 Gaussian 16, Revision A.03,

 -----------------------------------------------------------
 # opt freq B3LYP/6-31G(d) empiricaldispersion=gd3bj scf=xqc
 -----------------------------------------------------------

 -------------------------------
 CID_154264131_JID_5181_neutraal
 -------------------------------
 Symbolic Z-matrix:
 Charge =  0 Multiplicity = 1

 SCF Done:  E(RB3LYP) =  -678.872629735     A.U. after   16 cycles
 SCF Done:  E(RB3LYP) =  -678.882273143     A.U. after   13 cycles
 SCF Done:  E(RB3LYP) =  -678.883765121     A.U. after   12 cycles
 SCF Done:  E(RB3LYP) =  -678.884142763     A.U. after   12 cycles
 SCF Done:  E(RB3LYP) =  -678.884423727     A.U. after   12 cycles
 SCF Done:  E(RB3LYP) =  -678.884609272     A.U. after   12 cycles
 SCF Done:  E(RB3LYP) =  -678.884752336     A.U. after   11 cycles
 SCF Done:  E(RB3LYP) =  -678.884807997     A.U. after   12 cycles
 SCF Done:  E(RB3LYP) =  -678.884832727     A.U. after   11 cycles
 SCF Done:  E(RB3LYP) =  -678.884843449     A.U. after   11 cycles
 SCF Done:  E(RB3LYP) =  -678.884849223     A.U. after   11 cycles
 SCF Done:  E(RB3LYP) =  -678.884859154     A.U. after   11 cycles
 SCF Done:  E(RB3LYP) =  -678.884868810     A.U. after   11 cycles
 SCF Done:  E(RB3LYP) =  -678.884871094     A.U. after   11 cycles
 SCF Done:  E(RB3LYP) =  -678.884871329     A.U. after    8 cycles
 SCF Done:  E(RB3LYP) =  -678.884871353     A.U. after    8 cycles
 Optimization completed.
    -- Stationary point found.
 Normal termination of Gaussian 16 at Thu Dec 10 14:47:50 2020.

 --------------------------------------------------------------------
 #N Geom=AllCheck Guess=TCheck SCRF=Check GenChk RB3LYP/6-31G(d) Freq
 --------------------------------------------------------------------

 Structure from the checkpoint file:  "JID_5181.chk"
 -------------------------------
 CID_154264131_JID_5181_neutraal
 -------------------------------
 Charge =  0 Multiplicity = 1

 SCF Done:  E(RB3LYP) =  -678.884871353     A.U. after    1 cycles

  Exact polarizability: 220.916  12.178 136.045  -0.001  -0.001  45.087
 Approx polarizability: 366.585  29.001 260.793  -0.004  -0.004  73.301

                      1                      2                      3
                      A                      A                      A
 Frequencies --     23.3801                67.9613               115.1269
 Red. masses --      5.6719                 8.6034                 7.8303
 Frc consts  --      0.0018                 0.0234                 0.0611
 IR Inten    --      2.0716                 0.8560                 0.6666

                      4                      5                      6
                      A                      A                      A
 Frequencies --    171.8032               191.9094               304.4946
 Red. masses --      4.0476                 7.6993                 9.2030
 Frc consts  --      0.0704                 0.1671                 0.5027
 IR Inten    --      1.9322                 0.3528                 0.1646

                      7                      8                      9
                      A                      A                      A
 Frequencies --    333.3041               342.6668               389.8112
 Red. masses --      6.0349                 8.3636                 3.2051
 Frc consts  --      0.3950                 0.5786                 0.2869
 IR Inten    --      0.0365                 7.7780                 0.9314

                     10                     11                     12
                      A                      A                      A
 Frequencies --    429.6463               480.4692               495.5446
 Red. masses --     11.0706                 3.1493                 5.1048
 Frc consts  --      1.2040                 0.4284                 0.7386
 IR Inten    --     37.5078                 0.6761                 6.9004

                     13                     14                     15
                      A                      A                      A
 Frequencies --    550.6062               568.0137               597.0283
 Red. masses --      7.2804                 3.8938                 9.6587
 Frc consts  --      1.3004                 0.7402                 2.0284
 IR Inten    --      1.2042                 1.8919                13.3093

                     16                     17                     18
                      A                      A                      A
 Frequencies --    621.1642               660.6823               686.9091
 Red. masses --      4.0368                 7.8562                 6.5618
 Frc consts  --      0.9177                 2.0204                 1.8242
 IR Inten    --      5.9405                 1.7056                 1.6128

                     19                     20                     21
                      A                      A                      A
 Frequencies --    731.2594               805.4551               812.4657
 Red. masses --      3.1103                 5.7790                 3.9558
 Frc consts  --      0.9799                 2.2090                 1.5385
 IR Inten    --      0.6044                 3.9018                 5.3457

                     22                     23                     24
                      A                      A                      A
 Frequencies --    832.1134               855.3407               865.0887
 Red. masses --      1.6894                 1.6269                 1.4798
 Frc consts  --      0.6892                 0.7013                 0.6525
 IR Inten    --      5.7228                 8.4531                43.8371

                     25                     26                     27
                      A                      A                      A
 Frequencies --    872.7780               946.8852               955.7032
 Red. masses --      7.1096                 1.4000                 6.2581
 Frc consts  --      3.1908                 0.7396                 3.3677
 IR Inten    --      0.9643                 0.6862                51.8507

                     28                     29                     30
                      A                      A                      A
 Frequencies --    965.7322               985.1860               996.7212
 Red. masses --      7.4312                 1.3325                 1.3907
 Frc consts  --      4.0834                 0.7620                 0.8140
 IR Inten    --      0.3862                 1.2032                 0.7225

                     31                     32                     33
                      A                      A                      A
 Frequencies --   1016.0174              1063.5421              1117.1130
 Red. masses --      6.9310                 2.1015                 4.5530
 Frc consts  --      4.2155                 1.4005                 3.3477
 IR Inten    --     26.4934                 3.3296                22.7821

                     34                     35                     36
                      A                      A                      A
 Frequencies --   1168.7837              1186.9399              1212.2252
 Red. masses --      1.5394                 1.5612                 1.6448
 Frc consts  --      1.2390                 1.2959                 1.4241
 IR Inten    --      5.9291                81.3861                10.9708

                     37                     38                     39
                      A                      A                      A
 Frequencies --   1252.8507              1298.8133              1326.4437
 Red. masses --      2.3683                 2.0267                 4.2702
 Frc consts  --      2.1902                 2.0143                 4.4267
 IR Inten    --      4.3029                17.5384                15.8762

                     40                     41                     42
                      A                      A                      A
 Frequencies --   1334.0963              1370.1194              1385.7455
 Red. masses --      2.6190                 5.3178                 2.8685
 Frc consts  --      2.7464                 5.8816                 3.2454
 IR Inten    --      9.5768                11.3378                 8.6553

                     43                     44                     45
                      A                      A                      A
 Frequencies --   1418.9408              1446.5230              1504.9044
 Red. masses --      7.9320                 2.0091                 2.8878
 Frc consts  --      9.4094                 2.4769                 3.8534
 IR Inten    --      3.5588                28.9836                 7.4005

                     46                     47                     48
                      A                      A                      A
 Frequencies --   1531.8208              1545.3845              1600.3512
 Red. masses --      4.1103                 6.3187                 5.9166
 Frc consts  --      5.6825                 8.8909                 8.9280
 IR Inten    --     21.4079                32.8465                31.4515

                     49                     50                     51
                      A                      A                      A
 Frequencies --   1607.4956              1654.6005              1668.5774
 Red. masses --      7.8955                 6.3365                 6.5867
 Frc consts  --     12.0208                10.2208                10.8046
 IR Inten    --     40.4152                34.5223               162.4887

                     52                     53                     54
                      A                      A                      A
 Frequencies --   3149.4360              3192.1122              3192.3264
 Red. masses --      1.0899                 1.0884                 1.0899
 Frc consts  --      6.3694                 6.5342                 6.5439
 IR Inten    --     28.6030                 9.1915                21.9885

                     55                     56                     57
                      A                      A                      A
 Frequencies --   3213.6799              3230.5823              3299.6182
 Red. masses --      1.0951                 1.0945                 1.0987
 Frc consts  --      6.6635                 6.7303                 7.0478
 IR Inten    --     13.4943                 7.2161                 2.5514

 - Thermochemistry -
 -------------------
 Temperature   298.150 Kelvin.  Pressure   1.00000 Atm.
 Atom     1 has atomic number  6 and mass  12.00000

 Molecular mass:   198.05416 amu.
 Principal axes and moments of inertia in atomic units:
                           1         2         3
     Eigenvalues --   876.513805601.678026478.19180
           X            0.99996   0.00881  -0.00000
           Y           -0.00881   0.99996   0.00000
           Z            0.00000  -0.00000   1.00000
 This molecule is an asymmetric top.
 Rotational symmetry number  1.
 Warning -- assumption of classical behavior for rotation
           may cause significant error
 Rotational temperatures (Kelvin)      0.09882     0.01546     0.01337
 Rotational constants (GHZ):           2.05900     0.32218     0.27859
 Zero-point vibrational energy     392640.1 (Joules/Mol)
                                   93.84323 (Kcal/Mol)
 Warning -- explicit consideration of  15 degrees of freedom as
           vibrations may cause significant error
 Vibrational temperatures:     33.64    97.78   165.64   247.19   276.11
          (Kelvin)            438.10   479.55   493.02   560.85   618.17
                              691.29   712.98   792.20   817.25   858.99
                              893.72   950.57   988.31  1052.12  1158.87
                             1168.96  1197.23  1230.64  1244.67  1255.73
                             1362.36  1375.04  1389.47  1417.46  1434.06
                             1461.82  1530.20  1607.28  1681.62  1707.74
                             1744.12  1802.57  1868.70  1908.46  1919.47
                             1971.30  1993.78  2041.54  2081.22  2165.22
                             2203.95  2223.46  2302.55  2312.83  2380.60
                             2400.71  4531.34  4592.74  4593.05  4623.77
                             4648.09  4747.41

 Zero-point correction=                           0.149549 (Hartree/Particle)
 Thermal correction to Energy=                    0.160066
 Thermal correction to Enthalpy=                  0.161010
 Thermal correction to Gibbs Free Energy=         0.111572
 Sum of electronic and zero-point Energies=           -678.735323
 Sum of electronic and thermal Energies=              -678.724805
 Sum of electronic and thermal Enthalpies=            -678.723861
 Sum of electronic and thermal Free Energies=         -678.773300

                     E (Thermal)             CV                S
                      KCal/Mol        Cal/Mol-Kelvin    Cal/Mol-Kelvin
 Total                  100.443             41.248            104.053
 Electronic               0.000              0.000              0.000
 Translational            0.889              2.981             41.755
 Rotational               0.889              2.981             31.831
 Vibrational             98.666             35.287             30.467
 Vibration     1          0.593              1.985              6.324
 Vibration     2          0.598              1.969              4.212
 Vibration     3          0.608              1.937              3.181
 Vibration     4          0.626              1.877              2.416
 Vibration     5          0.634              1.851              2.209
 Vibration     6          0.695              1.665              1.392
 Vibration     7          0.715              1.609              1.244
 Vibration     8          0.722              1.590              1.200
 Vibration     9          0.758              1.492              1.001
 Vibration    10          0.791              1.406              0.860
 Vibration    11          0.837              1.293              0.709
 Vibration    12          0.851              1.260              0.669
 Vibration    13          0.906              1.138              0.543
 Vibration    14          0.924              1.100              0.508
 Vibration    15          0.955              1.038              0.455

 Optimization completed.
    -- Stationary point found.
 Normal termination of Gaussian 16 at Thu Dec 10 14:53:05 2020.

 ----------------------------------------------------------------------
 # B3LYP/6-311++G(d,p) empiricaldispersion=gd3bj scf=xqc pop=npa geom=c
 heck
 ----------------------------------------------------------------------

 ---------------------------------------
 CID_154264131_JID_5181_Energie_neutraal
 ---------------------------------------
 Structure from the checkpoint file:  "JID_5181.chk"
 Charge =  0 Multiplicity = 1

 SCF Done:  E(RB3LYP) =  -679.053910061     A.U. after   16 cycles
 Normal termination of Gaussian 16 at Thu Dec 10 14:55:21 2020.

 ----------------------------------------------------------------------
 # B3LYP/6-311++G(d,p) empiricaldispersion=gd3bj scf=xqc pop=npa geom=c
 heck
 ----------------------------------------------------------------------

 -------------------------------------
 CID_154264131_JID_5181_Energie_kation
 -------------------------------------
 Structure from the checkpoint file:  "JID_5181.chk"
 Charge =  1 Multiplicity = 2

 SCF Done:  E(UB3LYP) =  -678.725951287     A.U. after   30 cycles
 Normal termination of Gaussian 16 at Thu Dec 10 15:01:08 2020.
 Gaussian 16:  ES64L-G16RevA.03 25-Dec-2016

 ----------------------------------------------------------------------
 # B3LYP/6-311++G(d,p) empiricaldispersion=gd3bj scf=xqc pop=npa geom=c
 heck
 ----------------------------------------------------------------------

 ------------------------------------
 CID_154264131_JID_5181_Energie_anion
 ------------------------------------
 Structure from the checkpoint file:  "JID_5181.chk"
 Charge = -1 Multiplicity = 2

                         Standard orientation:
 ---------------------------------------------------------------------
 Center     Atomic      Atomic             Coordinates (Angstroms)
 Number     Number       Type             X           Y           Z
 ---------------------------------------------------------------------
      1          6           0       -1.071928    1.889251    0.000104
      2          6           0        0.276387    1.644225    0.000099
      3          6           0        0.735495    0.291509    0.000017
      4          7           0       -0.075243   -0.753106   -0.000046
      5          6           0       -1.415253   -0.518626   -0.000031
      6          6           0       -1.969751    0.794674    0.000041
      7          6           0       -3.382483    0.922969    0.000048
      8          7           0       -4.214891   -0.097621   -0.000015
      9          6           0       -3.672919   -1.347774   -0.000090
     10          6           0       -2.320958   -1.607052   -0.000098
     11          6           0        2.175419    0.019018    0.000003
     12          6           0        3.253385    0.865387   -0.000253
     13          8           0        4.379094    0.172356   -0.000175
     14          7           0        3.952678   -1.252743    0.000182
     15          7           0        2.708832   -1.260655    0.000268
     16          1           0       -1.458008    2.905309    0.000170
     17          1           0        0.987769    2.463545    0.000172
     18          1           0       -3.824393    1.920186    0.000108
     19          1           0       -4.390754   -2.164278   -0.000142
     20          1           0       -1.928667   -2.618052   -0.000155
     21          1           0        3.337313    1.941834   -0.000519
 ---------------------------------------------------------------------

 SCF Done:  E(UB3LYP) =  -679.089441827     A.U. after   30 cycles

 The electronic state is 2-A.
 Alpha  occ. eigenvalues --  -19.08886 -14.29339 -14.24988 -14.15969 -14.14542
 Alpha  occ. eigenvalues --  -10.11821 -10.09126 -10.07280 -10.06835 -10.06527
 Alpha  occ. eigenvalues --  -10.05964 -10.05018 -10.04566 -10.04359 -10.02867
 Alpha  occ. eigenvalues --   -1.03990  -0.88233  -0.81068  -0.78883  -0.70161
 Alpha  occ. eigenvalues --   -0.67398  -0.64475  -0.61377  -0.54508  -0.52990
 Alpha  occ. eigenvalues --   -0.49869  -0.49773  -0.47318  -0.41979  -0.39593
 Alpha  occ. eigenvalues --   -0.37979  -0.37470  -0.37199  -0.32843  -0.30858
 Alpha  occ. eigenvalues --   -0.30836  -0.29318  -0.28716  -0.27369  -0.27076
 Alpha  occ. eigenvalues --   -0.25125  -0.24646  -0.23746  -0.22822  -0.18791
 Alpha  occ. eigenvalues --   -0.17922  -0.17538  -0.12294  -0.11754  -0.11417
 Alpha  occ. eigenvalues --   -0.11163   0.02318
 Alpha virt. eigenvalues --    0.06293   0.08186   0.09607   0.09831   0.10010
 Alpha virt. eigenvalues --    0.11679   0.12224   0.12682   0.13729   0.14358
 Alpha virt. eigenvalues --    0.14884   0.15598   0.15733   0.16687   0.16814

  Beta  occ. eigenvalues --  -19.08771 -14.29432 -14.24948 -14.15738 -14.14122
  Beta  occ. eigenvalues --  -10.11502 -10.09178 -10.07336 -10.06570 -10.06519
  Beta  occ. eigenvalues --  -10.05768 -10.05123 -10.04590 -10.04036 -10.02672
  Beta  occ. eigenvalues --   -1.03862  -0.88130  -0.80556  -0.78308  -0.69936
  Beta  occ. eigenvalues --   -0.66924  -0.64164  -0.61095  -0.53986  -0.52688
  Beta  occ. eigenvalues --   -0.49763  -0.49497  -0.46981  -0.41718  -0.39355
  Beta  occ. eigenvalues --   -0.37817  -0.37198  -0.36799  -0.32712  -0.30745
  Beta  occ. eigenvalues --   -0.30682  -0.29156  -0.27682  -0.27219  -0.26910
  Beta  occ. eigenvalues --   -0.24576  -0.24455  -0.22688  -0.22615  -0.18754
  Beta  occ. eigenvalues --   -0.16922  -0.16330  -0.11974  -0.10994  -0.10918
  Beta  occ. eigenvalues --   -0.09512
  Beta virt. eigenvalues --    0.07004   0.08168   0.08202   0.09602   0.09949
  Beta virt. eigenvalues --    0.10003   0.11662   0.12685   0.13138   0.13724
  Beta virt. eigenvalues --    0.14359   0.15304   0.15721   0.16326   0.16681

 Mulliken charges and spin densities:
               1          2
     1  C   -0.652864   0.263699
     2  C   -0.851736  -0.074506
     3  C    0.705514   0.201094
     4  N    0.079345   0.197372
     5  C   -1.047779  -0.058167
     6  C    1.374761  -0.022166
     7  C   -0.717409   0.129360
     8  N   -0.111238   0.108048
     9  C   -0.390394  -0.035693
    10  C    0.094244   0.170047
    11  C   -0.576248  -0.035085
    12  C    0.364879   0.208055
    13  O   -0.013748   0.021603
    14  N    0.266459  -0.041021
    15  N   -0.305820   0.018069
    16  H    0.127964  -0.018433
    17  H    0.051395   0.005166
    18  H    0.117180  -0.012599
    19  H    0.133103   0.001365
    20  H    0.158568  -0.010968
    21  H    0.193824  -0.015241
 Sum of Mulliken charges =  -1.00000   1.00000

 Dipole moment (field-independent basis, Debye):
    X=              2.1088    Y=              3.6223    Z=             -0.0004  Tot=              4.1914
 Quadrupole moment (field-independent basis, Debye-Ang):
   XX=           -151.4877   YY=            -92.3494   ZZ=            -92.4592
   XY=              9.8409   XZ=             -0.0014   YZ=              0.0004

 Summary of Natural Population Analysis:

                                       Natural Population
                Natural  -----------------------------------------------
    Atom  No    Charge         Core      Valence    Rydberg      Total
 -----------------------------------------------------------------------
      C    1   -0.01557      0.99955     2.00710    0.00893     3.01557
      C    2   -0.14269      0.99954     2.13527    0.00787     3.14269
      C    3    0.13789      0.99953     1.85015    0.01243     2.86211
      N    4   -0.17678      0.99965     2.66496    0.01217     3.67678
      C    5    0.08722      0.99948     1.90142    0.01188     2.91278
      C    6   -0.07253      0.99948     2.06560    0.00745     3.07253
      C    7    0.07279      0.99958     1.91231    0.01533     2.92721
      N    8   -0.21974      0.99971     2.70625    0.01378     3.71974
      C    9   -0.00199      0.99959     1.98731    0.01510     3.00199
      C   10   -0.08522      0.99952     2.07662    0.00908     3.08522
      C   11   -0.00141      0.99952     1.98810    0.01380     3.00141
      C   12    0.13859      0.99952     1.84774    0.01414     2.86141
      O   13   -0.17727      0.99988     3.16793    0.00946     4.17727
      N   14    0.00251      0.99980     2.47978    0.01790     3.49749
      N   15   -0.07397      0.99970     2.55830    0.01597     3.57397
      H   16    0.08766      0.00000     0.41039    0.00195     0.41234
      H   17    0.09122      0.00000     0.40723    0.00155     0.40878
      H   18    0.07525      0.00000     0.42294    0.00181     0.42475
      H   19    0.08059      0.00000     0.41803    0.00138     0.41941
      H   20    0.09940      0.00000     0.39885    0.00174     0.40060
      H   21    0.09405      0.00000     0.40500    0.00095     0.40595
 =======================================================================
   * Total *   -0.00000     14.99406    35.81127    0.19466    51.00000

 Normal termination of Gaussian 16 at Thu Dec 10 15:07:09 2020.
