 Gaussian 16, Revision A.03,

 -----------------------------------------------------------
 # opt freq B3LYP/6-31G(d) empiricaldispersion=gd3bj scf=xqc
 -----------------------------------------------------------

 -------------------------------
 CID_104754027_JID_5496_neutraal
 -------------------------------
 Symbolic Z-matrix:
 Charge =  0 Multiplicity = 1

 SCF Done:  E(RB3LYP) =  -1036.40050225     A.U. after   13 cycles
 SCF Done:  E(RB3LYP) =  -1036.40728735     A.U. after   12 cycles
 SCF Done:  E(RB3LYP) =  -1036.40727258     A.U. after   12 cycles
 SCF Done:  E(RB3LYP) =  -1036.40809507     A.U. after   12 cycles
 SCF Done:  E(RB3LYP) =  -1036.40857230     A.U. after   11 cycles
 SCF Done:  E(RB3LYP) =  -1036.40888062     A.U. after   12 cycles
 SCF Done:  E(RB3LYP) =  -1036.40901864     A.U. after   11 cycles
 SCF Done:  E(RB3LYP) =  -1036.40914166     A.U. after   12 cycles
 SCF Done:  E(RB3LYP) =  -1036.40938112     A.U. after   11 cycles
 SCF Done:  E(RB3LYP) =  -1036.40962691     A.U. after   12 cycles
 SCF Done:  E(RB3LYP) =  -1036.41058644     A.U. after    9 cycles
 SCF Done:  E(RB3LYP) =  -1036.41058851     A.U. after    9 cycles
 SCF Done:  E(RB3LYP) =  -1036.41058889     A.U. after    7 cycles
 SCF Done:  E(RB3LYP) =  -1036.41058905     A.U. after    7 cycles
 SCF Done:  E(RB3LYP) =  -1036.41058910     A.U. after    7 cycles
 SCF Done:  E(RB3LYP) =  -1036.41058913     A.U. after    6 cycles
 Optimization completed.
    -- Stationary point found.
 Normal termination of Gaussian 16 at Thu Dec 10 17:00:04 2020.

 --------------------------------------------------------------------
 #N Geom=AllCheck Guess=TCheck SCRF=Check GenChk RB3LYP/6-31G(d) Freq
 --------------------------------------------------------------------

 Structure from the checkpoint file:  "JID_5496.chk"
 -------------------------------
 CID_104754027_JID_5496_neutraal
 -------------------------------
 Charge =  0 Multiplicity = 1

 SCF Done:  E(RB3LYP) =  -1036.41058913     A.U. after    1 cycles

  Exact polarizability: 157.403  -5.786 142.714   1.278   0.787 126.276
 Approx polarizability: 206.765  -2.086 197.222   4.964  -0.691 199.902

                      1                      2                      3
                      A                      A                      A
 Frequencies --     24.0483                44.5089                52.1708
 Red. masses --      3.2662                 3.0553                 2.1042
 Frc consts  --      0.0011                 0.0036                 0.0034
 IR Inten    --      0.4439                 1.2123                 0.1617

                      4                      5                      6
                      A                      A                      A
 Frequencies --     70.5097                78.4813               109.0878
 Red. masses --      2.6523                 2.3402                 2.2047
 Frc consts  --      0.0078                 0.0085                 0.0155
 IR Inten    --      0.2338                 0.9100                 1.4512

                      7                      8                      9
                      A                      A                      A
 Frequencies --    114.4536               131.9106               150.9301
 Red. masses --      4.1075                 3.1892                 2.6074
 Frc consts  --      0.0317                 0.0327                 0.0350
 IR Inten    --      3.6881                 3.9606                 1.7067

                     10                     11                     12
                      A                      A                      A
 Frequencies --    180.4369               195.3454               216.3184
 Red. masses --      1.3699                 2.9302                 2.5674
 Frc consts  --      0.0263                 0.0659                 0.0708
 IR Inten    --      0.4526                 0.6476                 1.1437

                     13                     14                     15
                      A                      A                      A
 Frequencies --    229.7162               262.5457               282.9401
 Red. masses --      3.5392                 4.5734                 2.3431
 Frc consts  --      0.1100                 0.1857                 0.1105
 IR Inten    --      1.8400                 1.3182                 2.2775

                     16                     17                     18
                      A                      A                      A
 Frequencies --    295.6948               304.4393               320.9914
 Red. masses --      1.2496                 3.2918                 2.7795
 Frc consts  --      0.0644                 0.1798                 0.1687
 IR Inten    --      0.0964                 1.8791                 3.1808

                     19                     20                     21
                      A                      A                      A
 Frequencies --    399.1856               416.4938               425.2632
 Red. masses --      3.2825                 2.7320                 2.7549
 Frc consts  --      0.3082                 0.2792                 0.2935
 IR Inten    --      7.6045                 7.6633                 4.2715

                     22                     23                     24
                      A                      A                      A
 Frequencies --    495.2199               509.3568               544.9959
 Red. masses --      5.4372                 3.3716                 3.9444
 Frc consts  --      0.7856                 0.5154                 0.6903
 IR Inten    --     32.8586                35.9683                 2.7781

                     25                     26                     27
                      A                      A                      A
 Frequencies --    560.8615               624.0147               643.2368
 Red. masses --      1.9761                 2.4789                 3.1885
 Frc consts  --      0.3662                 0.5687                 0.7773
 IR Inten    --     14.2090                 0.0757                25.9687

                     28                     29                     30
                      A                      A                      A
 Frequencies --    719.4510               747.7398               777.7161
 Red. masses --      1.7026                 2.0208                 1.2746
 Frc consts  --      0.5192                 0.6657                 0.4542
 IR Inten    --     59.6412                34.5235                13.1466

                     31                     32                     33
                      A                      A                      A
 Frequencies --    805.8334               831.3935               852.1956
 Red. masses --      1.5387                 1.6714                 2.2871
 Frc consts  --      0.5887                 0.6807                 0.9786
 IR Inten    --      8.6086                 0.5725                20.6041

                     34                     35                     36
                      A                      A                      A
 Frequencies --    868.2942               902.4698               910.4061
 Red. masses --      2.0834                 2.6952                 1.6812
 Frc consts  --      0.9255                 1.2933                 0.8210
 IR Inten    --      5.3031                 4.0361                 2.4342

                     37                     38                     39
                      A                      A                      A
 Frequencies --    922.3032               957.8645               983.4272
 Red. masses --      2.1226                 2.1922                 2.0366
 Frc consts  --      1.0638                 1.1851                 1.1605
 IR Inten    --      5.2459                 3.6602                 0.3483

                     40                     41                     42
                      A                      A                      A
 Frequencies --    987.8886              1006.3489              1035.5615
 Red. masses --      1.3295                 1.7535                 2.4905
 Frc consts  --      0.7645                 1.0463                 1.5736
 IR Inten    --      0.5106                 5.6600                11.9533

                     43                     44                     45
                      A                      A                      A
 Frequencies --   1057.8721              1067.6386              1078.3870
 Red. masses --      1.8442                 2.5329                 1.5449
 Frc consts  --      1.2160                 1.7010                 1.0585
 IR Inten    --     12.7387                 2.7210                20.5937

                     46                     47                     48
                      A                      A                      A
 Frequencies --   1091.3191              1107.8301              1114.0428
 Red. masses --      2.4634                 3.3780                 2.3629
 Frc consts  --      1.7286                 2.4427                 1.7278
 IR Inten    --      5.6302                65.1688                 4.6102

                     49                     50                     51
                      A                      A                      A
 Frequencies --   1119.9678              1149.4197              1164.7402
 Red. masses --      2.2555                 2.3437                 1.2189
 Frc consts  --      1.6669                 1.8244                 0.9743
 IR Inten    --     46.1028                40.3493                17.3215

                     52                     53                     54
                      A                      A                      A
 Frequencies --   1171.0141              1188.3779              1221.1414
 Red. masses --      1.5853                 1.7729                 1.4671
 Frc consts  --      1.2808                 1.4752                 1.2889
 IR Inten    --     23.5430                21.1817                 3.8940

                     55                     56                     57
                      A                      A                      A
 Frequencies --   1238.7763              1245.7734              1263.1994
 Red. masses --      1.3941                 1.3582                 1.4697
 Frc consts  --      1.2604                 1.2419                 1.3817
 IR Inten    --      2.7569                 4.6029                 4.3017

                     58                     59                     60
                      A                      A                      A
 Frequencies --   1268.4728              1275.3944              1293.7045
 Red. masses --      2.2415                 1.3035                 1.3095
 Frc consts  --      2.1250                 1.2492                 1.2913
 IR Inten    --     66.6622                17.4368                 3.9717

                     61                     62                     63
                      A                      A                      A
 Frequencies --   1305.6493              1318.4217              1328.3097
 Red. masses --      1.8197                 1.4051                 1.2990
 Frc consts  --      1.8277                 1.4390                 1.3504
 IR Inten    --     64.4806                18.9008                11.3282

                     64                     65                     66
                      A                      A                      A
 Frequencies --   1352.7615              1355.8529              1356.3652
 Red. masses --      1.2523                 1.3991                 1.2417
 Frc consts  --      1.3503                 1.5154                 1.3459
 IR Inten    --      0.7718                 0.3157                 2.2958

                     67                     68                     69
                      A                      A                      A
 Frequencies --   1366.7174              1376.2115              1390.2339
 Red. masses --      1.2652                 1.3160                 1.2837
 Frc consts  --      1.3924                 1.4685                 1.4618
 IR Inten    --      0.3335                12.6421                 3.9326

                     70                     71                     72
                      A                      A                      A
 Frequencies --   1401.6362              1415.1297              1441.8133
 Red. masses --      1.4011                 1.4488                 1.2603
 Frc consts  --      1.6218                 1.7094                 1.5437
 IR Inten    --     12.4451                 2.1122                 4.1370

                     73                     74                     75
                      A                      A                      A
 Frequencies --   1477.4123              1485.1901              1485.5428
 Red. masses --      1.0869                 1.1277                 1.1126
 Frc consts  --      1.3978                 1.4656                 1.4466
 IR Inten    --      7.9087                 3.4870                 0.4518

                     76                     77                     78
                      A                      A                      A
 Frequencies --   1508.4790              1510.2201              1514.3328
 Red. masses --      1.2322                 1.0778                 1.0868
 Frc consts  --      1.6519                 1.4483                 1.4683
 IR Inten    --      9.4484                 3.4320                 0.6478

                     79                     80                     81
                      A                      A                      A
 Frequencies --   1522.0840              1524.8601              1527.6460
 Red. masses --      1.0664                 1.0808                 1.0646
 Frc consts  --      1.4556                 1.4806                 1.4637
 IR Inten    --      3.3609                 5.3229                 0.2942

                     82                     83                     84
                      A                      A                      A
 Frequencies --   1529.2219              1547.2942              1547.8397
 Red. masses --      1.0690                 1.0719                 1.0465
 Frc consts  --      1.4729                 1.5120                 1.4773
 IR Inten    --     12.8038                 5.3804                 9.2392

                     85                     86                     87
                      A                      A                      A
 Frequencies --   1551.4646              2973.5448              2984.0267
 Red. masses --      1.0797                 1.0816                 1.0558
 Frc consts  --      1.5312                 5.6349                 5.5392
 IR Inten    --      2.7685                37.1759                76.4266

                     88                     89                     90
                      A                      A                      A
 Frequencies --   3046.3125              3051.3816              3051.8246
 Red. masses --      1.0411                 1.0686                 1.0732
 Frc consts  --      5.6926                 5.8621                 5.8889
 IR Inten    --     19.1424                22.8496                31.7742

                     91                     92                     93
                      A                      A                      A
 Frequencies --   3055.0039              3060.0985              3067.6423
 Red. masses --      1.0631                 1.0640                 1.0663
 Frc consts  --      5.8461                 5.8705                 5.9123
 IR Inten    --      1.4412                63.6095                39.7263

                     94                     95                     96
                      A                      A                      A
 Frequencies --   3078.9584              3081.4234              3088.2466
 Red. masses --      1.0803                 1.0814                 1.0596
 Frc consts  --      6.0339                 6.0496                 5.9542
 IR Inten    --     21.9021                26.0242                 5.0243

                     97                     98                     99
                      A                      A                      A
 Frequencies --   3092.5157              3097.6451              3102.0132
 Red. masses --      1.0977                 1.0610                 1.1031
 Frc consts  --      6.1855                 5.9985                 6.2540
 IR Inten    --     23.1079                 4.1262                 6.7921

                    100                    101                    102
                      A                      A                      A
 Frequencies --   3106.0030              3117.4315              3120.6811
 Red. masses --      1.0937                 1.1037                 1.0980
 Frc consts  --      6.2163                 6.3195                 6.3004
 IR Inten    --      7.5875                79.2822                25.4487

                    103                    104                    105
                      A                      A                      A
 Frequencies --   3121.6174              3136.8085              3146.6087
 Red. masses --      1.1032                 1.1022                 1.1043
 Frc consts  --      6.3336                 6.3896                 6.4420
 IR Inten    --     30.9733                24.9878                11.2530

                    106                    107                    108
                      A                      A                      A
 Frequencies --   3156.8391              3163.2975              3533.3860
 Red. masses --      1.1052                 1.0905                 1.0740
 Frc consts  --      6.4895                 6.4291                 7.9002
 IR Inten    --      2.1949                17.5842                 0.1602

 - Thermochemistry -
 -------------------
 Temperature   298.150 Kelvin.  Pressure   1.00000 Atm.
 Atom     1 has atomic number  6 and mass  12.00000

 Molecular mass:   233.14495 amu.
 Principal axes and moments of inertia in atomic units:
                           1         2         3
     Eigenvalues --  2687.731645075.492406001.76468
           X            0.99945  -0.02570   0.02114
           Y            0.02555   0.99965   0.00740
           Z           -0.02132  -0.00685   0.99975
 This molecule is an asymmetric top.
 Rotational symmetry number  1.
 Warning -- assumption of classical behavior for rotation
           may cause significant error
 Rotational temperatures (Kelvin)      0.03223     0.01707     0.01443
 Rotational constants (GHZ):           0.67147     0.35558     0.30070
 Zero-point vibrational energy     895303.9 (Joules/Mol)
                                  213.98277 (Kcal/Mol)
 Warning -- explicit consideration of  25 degrees of freedom as
           vibrations may cause significant error
 Vibrational temperatures:     34.60    64.04    75.06   101.45   112.92
          (Kelvin)            156.95   164.67   189.79   217.15   259.61
                              281.06   311.23   330.51   377.74   407.09
                              425.44   438.02   461.84   574.34   599.24
                              611.86   712.51   732.85   784.13   806.95
                              897.82   925.47  1035.13  1075.83  1118.96
                             1159.41  1196.19  1226.12  1249.28  1298.45
                             1309.87  1326.99  1378.15  1414.93  1421.35
                             1447.91  1489.94  1522.04  1536.09  1551.56
                             1570.16  1593.92  1602.86  1611.38  1653.76
                             1675.80  1684.83  1709.81  1756.95  1782.32
                             1792.39  1817.46  1825.05  1835.01  1861.35
                             1878.54  1896.91  1911.14  1946.32  1950.77
                             1951.51  1966.40  1980.06  2000.24  2016.64
                             2036.06  2074.45  2125.67  2136.86  2137.36
                             2170.36  2172.87  2178.79  2189.94  2193.93
                             2197.94  2200.21  2226.21  2227.00  2232.21
                             4278.27  4293.35  4382.96  4390.26  4390.89
                             4395.47  4402.80  4413.65  4429.93  4433.48
                             4443.30  4449.44  4456.82  4463.11  4468.85
                             4485.29  4489.96  4491.31  4513.17  4527.27
                             4541.99  4551.28  5083.75

 Zero-point correction=                           0.341003 (Hartree/Particle)
 Thermal correction to Energy=                    0.358481
 Thermal correction to Enthalpy=                  0.359425
 Thermal correction to Gibbs Free Energy=         0.294620
 Sum of electronic and zero-point Energies=          -1036.069586
 Sum of electronic and thermal Energies=             -1036.052108
 Sum of electronic and thermal Enthalpies=           -1036.051164
 Sum of electronic and thermal Free Energies=        -1036.115969

                     E (Thermal)             CV                S
                      KCal/Mol        Cal/Mol-Kelvin    Cal/Mol-Kelvin
 Total                  224.950             64.708            136.395
 Electronic               0.000              0.000              0.000
 Translational            0.889              2.981             42.241
 Rotational               0.889              2.981             32.771
 Vibrational            223.173             58.746             61.383
 Vibration     1          0.593              1.985              6.268
 Vibration     2          0.595              1.980              5.048
 Vibration     3          0.596              1.977              4.733
 Vibration     4          0.598              1.968              4.139
 Vibration     5          0.600              1.964              3.928
 Vibration     6          0.606              1.942              3.285
 Vibration     7          0.607              1.937              3.192
 Vibration     8          0.612              1.921              2.918
 Vibration     9          0.618              1.902              2.660
 Vibration    10          0.629              1.866              2.324
 Vibration    11          0.636              1.846              2.176
 Vibration    12          0.645              1.816              1.990
 Vibration    13          0.652              1.796              1.881
 Vibration    14          0.670              1.741              1.645
 Vibration    15          0.682              1.705              1.516
 Vibration    16          0.690              1.682              1.441
 Vibration    17          0.695              1.665              1.392
 Vibration    18          0.706              1.633              1.305
 Vibration    19          0.765              1.472              0.966
 Vibration    20          0.780              1.434              0.904
 Vibration    21          0.787              1.415              0.874
 Vibration    22          0.851              1.261              0.670
 Vibration    23          0.865              1.229              0.635
 Vibration    24          0.900              1.151              0.555
 Vibration    25          0.917              1.116              0.522

                           ! Non-Optimized Parameters !
 Normal termination of Gaussian 16 at Thu Dec 10 17:14:30 2020.

 ----------------------------------------------------------------------
 # B3LYP/6-311++G(d,p) empiricaldispersion=gd3bj scf=xqc pop=npa geom=c
 heck
 ----------------------------------------------------------------------

 ---------------------------------------
 CID_104754027_JID_5496_Energie_neutraal
 ---------------------------------------
 Structure from the checkpoint file:  "JID_5496.chk"
 Charge =  0 Multiplicity = 1

 SCF Done:  E(RB3LYP) =  -1036.62280479     A.U. after   15 cycles
 Normal termination of Gaussian 16 at Thu Dec 10 17:21:01 2020.

 ----------------------------------------------------------------------
 # B3LYP/6-311++G(d,p) empiricaldispersion=gd3bj scf=xqc pop=npa geom=c
 heck
 ----------------------------------------------------------------------

 -------------------------------------
 CID_104754027_JID_5496_Energie_kation
 -------------------------------------
 Structure from the checkpoint file:  "JID_5496.chk"
 Charge =  1 Multiplicity = 2

 SCF Done:  E(UB3LYP) =  -1036.31399904     A.U. after   24 cycles
 Normal termination of Gaussian 16 at Thu Dec 10 17:35:08 2020.
 Gaussian 16:  ES64L-G16RevA.03 25-Dec-2016

 ----------------------------------------------------------------------
 # B3LYP/6-311++G(d,p) empiricaldispersion=gd3bj scf=xqc pop=npa geom=c
 heck
 ----------------------------------------------------------------------

 ------------------------------------
 CID_104754027_JID_5496_Energie_anion
 ------------------------------------
 Structure from the checkpoint file:  "JID_5496.chk"
 Charge = -1 Multiplicity = 2

                         Standard orientation:
 ---------------------------------------------------------------------
 Center     Atomic      Atomic             Coordinates (Angstroms)
 Number     Number       Type             X           Y           Z
 ---------------------------------------------------------------------
      1          6           0        2.889401   -0.711588    2.194866
      2          6           0        3.165336   -1.368708    0.840714
      3          6           0        2.042238   -1.229998   -0.186143
      4         16           0        1.764779    0.480573   -0.779154
      5          8           0        3.032399    1.215032   -0.605105
      6          8           0        1.141721    0.387648   -2.114031
      7          6           0        0.561115    1.252746    0.350237
      8          6           0       -0.940762    1.088465    0.043571
      9          6           0       -1.457784   -0.362857    0.216998
     10          6           0       -2.932887   -0.513601    0.642897
     11          6           0       -3.232065   -2.012903    0.438816
     12          6           0       -2.273744   -2.474739   -0.697711
     13          6           0       -1.434331   -1.231849   -1.058779
     14          7           0       -1.603163    2.095043    0.888439
     15          6           0       -2.677538    2.848762    0.254081
     16          1           0        2.875764    0.378639    2.106371
     17          1           0        3.672938   -0.971965    2.913686
     18          1           0        1.930522   -1.041250    2.615064
     19          1           0        4.082820   -0.955365    0.411047
     20          1           0        3.332451   -2.444587    0.979944
     21          1           0        2.275980   -1.768900   -1.109626
     22          1           0        1.084188   -1.600951    0.188739
     23          1           0        0.803472    0.918097    1.363123
     24          1           0        0.821057    2.311739    0.281038
     25          1           0       -1.094674    1.387374   -0.998792
     26          1           0       -0.850892   -0.857895    0.994534
     27          1           0       -3.133388   -0.184709    1.668034
     28          1           0       -3.564237    0.087685   -0.021670
     29          1           0       -4.285211   -2.186683    0.197595
     30          1           0       -3.024540   -2.566750    1.361434
     31          1           0       -2.814204   -2.861391   -1.567252
     32          1           0       -1.626556   -3.286028   -0.345039
     33          1           0       -1.919204   -0.662177   -1.861744
     34          1           0       -0.437149   -1.475400   -1.425161
     35          1           0       -1.926934    1.672656    1.753030
     36          1           0       -3.515862    2.242645   -0.128795
     37          1           0       -3.080254    3.568278    0.974583
     38          1           0       -2.267247    3.418637   -0.586943
 ---------------------------------------------------------------------

 SCF Done:  E(UB3LYP) =  -1036.61474924     A.U. after   27 cycles

 The electronic state is 2-A.
 Alpha  occ. eigenvalues --  -88.94588 -19.01707 -19.01683 -14.21041 -10.12182
 Alpha  occ. eigenvalues --  -10.11587 -10.11199 -10.10338 -10.08956 -10.08207
 Alpha  occ. eigenvalues --  -10.07074 -10.06945 -10.06779 -10.06734 -10.06664
 Alpha  occ. eigenvalues --   -8.01114  -5.97378  -5.97259  -5.97206  -1.00765
 Alpha  occ. eigenvalues --   -0.90511  -0.82365  -0.74359  -0.72324  -0.69330
 Alpha  occ. eigenvalues --   -0.63800  -0.62079  -0.61435  -0.58795  -0.54631
 Alpha  occ. eigenvalues --   -0.52069  -0.48396  -0.47914  -0.46922  -0.42082
 Alpha  occ. eigenvalues --   -0.41247  -0.39666  -0.38931  -0.37822  -0.36776
 Alpha  occ. eigenvalues --   -0.36046  -0.35345  -0.34463  -0.33804  -0.32859
 Alpha  occ. eigenvalues --   -0.32710  -0.31871  -0.31261  -0.29032  -0.28203
 Alpha  occ. eigenvalues --   -0.27321  -0.26871  -0.25998  -0.25002  -0.24728
 Alpha  occ. eigenvalues --   -0.24220  -0.23644  -0.23077  -0.22965  -0.22141
 Alpha  occ. eigenvalues --   -0.21903  -0.20596  -0.19378  -0.13826   0.03990
 Alpha virt. eigenvalues --    0.05998   0.06991   0.07186   0.08101   0.08714
 Alpha virt. eigenvalues --    0.09014   0.09563   0.09770   0.10754   0.10910
 Alpha virt. eigenvalues --    0.11317   0.11573   0.12084   0.12577   0.12904

  Beta  occ. eigenvalues --  -88.94588 -19.01704 -19.01678 -14.21021 -10.12179
  Beta  occ. eigenvalues --  -10.11569 -10.11190 -10.10323 -10.08936 -10.08191
  Beta  occ. eigenvalues --  -10.07040 -10.06918 -10.06776 -10.06717 -10.06642
  Beta  occ. eigenvalues --   -8.01112  -5.97378  -5.97258  -5.97205  -1.00755
  Beta  occ. eigenvalues --   -0.90501  -0.82338  -0.74328  -0.72291  -0.69307
  Beta  occ. eigenvalues --   -0.63762  -0.62035  -0.61393  -0.58751  -0.54582
  Beta  occ. eigenvalues --   -0.52012  -0.48355  -0.47869  -0.46857  -0.42058
  Beta  occ. eigenvalues --   -0.41215  -0.39635  -0.38888  -0.37803  -0.36749
  Beta  occ. eigenvalues --   -0.36005  -0.35316  -0.34435  -0.33778  -0.32831
  Beta  occ. eigenvalues --   -0.32687  -0.31830  -0.31233  -0.29006  -0.28167
  Beta  occ. eigenvalues --   -0.27283  -0.26832  -0.25960  -0.24971  -0.24691
  Beta  occ. eigenvalues --   -0.24176  -0.23620  -0.23057  -0.22927  -0.22109
  Beta  occ. eigenvalues --   -0.21888  -0.20586  -0.19365  -0.13802
  Beta virt. eigenvalues --    0.06248   0.06764   0.07372   0.07890   0.08518
  Beta virt. eigenvalues --    0.08910   0.09537   0.09739   0.09908   0.11062
  Beta virt. eigenvalues --    0.11136   0.11558   0.11916   0.12253   0.12830

 Mulliken charges and spin densities:
               1          2
     1  C    0.603934  -1.106511
     2  C   -0.123870  -0.451042
     3  C   -0.626841   0.390010
     4  S    0.725277  -0.426621
     5  O   -0.167372   0.011790
     6  O   -0.184790   0.010947
     7  C   -0.464152  -0.048149
     8  C   -1.332954   0.255313
     9  C    0.098889   0.459101
    10  C    0.918774  -1.380395
    11  C   -0.148623  -0.379428
    12  C    0.268724  -0.872770
    13  C   -0.765523   0.568218
    14  N    0.114073   0.068208
    15  C    0.036055  -0.339863
    16  H    0.068865   0.105669
    17  H   -0.155321   0.312230
    18  H   -0.569796   0.736493
    19  H    0.193051  -0.010004
    20  H   -0.424680   0.591168
    21  H   -0.069976   0.319758
    22  H    0.294977  -0.012425
    23  H    0.237286   0.051418
    24  H    0.242688   0.046461
    25  H    0.268785  -0.055346
    26  H    0.667063  -0.437463
    27  H   -0.707848   0.888950
    28  H    0.413040  -0.321036
    29  H   -0.161811   0.316141
    30  H   -0.158217   0.320672
    31  H    0.073817   0.059332
    32  H   -0.348276   0.497703
    33  H    0.004740   0.165976
    34  H    0.283745  -0.090860
    35  H    0.044549   0.202546
    36  H   -0.119736   0.246471
    37  H   -0.119756   0.263445
    38  H    0.091210   0.043892
 Sum of Mulliken charges =  -1.00000   1.00000

 Dipole moment (field-independent basis, Debye):
    X=             -0.0795    Y=              3.3185    Z=             -4.4014  Tot=              5.5128
 Quadrupole moment (field-independent basis, Debye-Ang):
   XX=           -166.1015   YY=           -153.9259   ZZ=           -153.4893
   XY=             -2.1922   XZ=              9.4952   YZ=              8.3724

 Summary of Natural Population Analysis:

                                       Natural Population
                Natural  -----------------------------------------------
    Atom  No    Charge         Core      Valence    Rydberg      Total
 -----------------------------------------------------------------------
      C    1   -0.28985      0.99966     2.28462    0.00557     3.28985
      C    2   -0.20081      0.99963     2.19173    0.00945     3.20081
      C    3   -0.28724      0.99957     2.27628    0.01139     3.28724
      S    4    1.01413      4.99925     1.89343    0.09319     6.98587
      O    5   -0.47432      0.99991     3.46893    0.00548     4.47432
      O    6   -0.47375      0.99991     3.46829    0.00555     4.47375
      C    7   -0.28702      0.99954     2.27521    0.01227     3.28702
      C    8   -0.01448      0.99955     2.00101    0.01391     3.01448
      C    9   -0.12359      0.99957     2.11135    0.01268     3.12359
      C   10   -0.18818      0.99962     2.17918    0.00938     3.18818
      C   11   -0.19087      0.99964     2.18343    0.00779     3.19087
      C   12   -0.19252      0.99964     2.18492    0.00795     3.19252
      C   13   -0.18898      0.99962     2.18170    0.00766     3.18898
      N   14   -0.34496      0.99974     2.83286    0.01237     3.84496
      C   15   -0.17453      0.99965     2.16679    0.00810     3.17453
      H   16    0.09894      0.00000     0.39986    0.00120     0.40106
      H   17    0.10238      0.00000     0.39673    0.00090     0.39762
      H   18    0.10117      0.00000     0.39698    0.00185     0.39883
      H   19    0.10532      0.00000     0.39343    0.00126     0.39468
      H   20    0.10497      0.00000     0.39332    0.00171     0.39503
      H   21    0.11790      0.00000     0.38094    0.00116     0.38210
      H   22    0.11598      0.00000     0.38191    0.00211     0.38402
      H   23    0.11638      0.00000     0.38174    0.00188     0.38362
      H   24    0.12323      0.00000     0.37567    0.00110     0.37677
      H   25    0.10124      0.00000     0.39686    0.00190     0.39876
      H   26    0.09541      0.00000     0.40103    0.00356     0.40459
      H   27    0.10353      0.00000     0.39418    0.00229     0.39647
      H   28    0.09276      0.00000     0.40569    0.00155     0.40724
      H   29    0.09648      0.00000     0.40263    0.00089     0.40352
      H   30    0.10081      0.00000     0.39739    0.00180     0.39919
      H   31    0.09613      0.00000     0.40305    0.00082     0.40387
      H   32    0.09931      0.00000     0.39923    0.00146     0.40069
      H   33    0.09422      0.00000     0.40452    0.00126     0.40578
      H   34    0.10598      0.00000     0.39263    0.00139     0.39402
      H   35    0.17970      0.00000     0.31678    0.00352     0.32030
      H   36    0.07997      0.00000     0.41872    0.00131     0.42003
      H   37    0.09551      0.00000     0.40372    0.00077     0.40449
      H   38    0.08964      0.00000     0.40952    0.00084     0.41036
 =======================================================================
   * Total *    0.00000     18.99450    44.74623    0.25928    64.00000

 Normal termination of Gaussian 16 at Thu Dec 10 17:50:43 2020.
