 Gaussian 16, Revision A.03,

 -----------------------------------------------------------
 # opt freq B3LYP/6-31G(d) empiricaldispersion=gd3bj scf=xqc
 -----------------------------------------------------------

 -----------------------------
 CID_87457922_JID_206_neutraal
 -----------------------------
 Symbolic Z-matrix:
 Charge =  0 Multiplicity = 1

 SCF Done:  E(RB3LYP) =  -533.091539381     A.U. after   15 cycles
 SCF Done:  E(RB3LYP) =  -533.093892998     A.U. after   13 cycles
 SCF Done:  E(RB3LYP) =  -533.090853972     A.U. after   14 cycles
 SCF Done:  E(RB3LYP) =  -533.094025717     A.U. after   12 cycles
 SCF Done:  E(RB3LYP) =  -533.093896273     A.U. after   13 cycles
 SCF Done:  E(RB3LYP) =  -533.094207447     A.U. after   12 cycles
 SCF Done:  E(RB3LYP) =  -533.094281974     A.U. after   12 cycles
 SCF Done:  E(RB3LYP) =  -533.094315577     A.U. after   11 cycles
 SCF Done:  E(RB3LYP) =  -533.094314515     A.U. after   10 cycles
 SCF Done:  E(RB3LYP) =  -533.094315829     A.U. after   10 cycles
 SCF Done:  E(RB3LYP) =  -533.094322188     A.U. after    9 cycles
 SCF Done:  E(RB3LYP) =  -533.094322217     A.U. after    8 cycles
 SCF Done:  E(RB3LYP) =  -533.094322237     A.U. after    8 cycles
 SCF Done:  E(RB3LYP) =  -533.094322244     A.U. after    8 cycles
 Optimization completed.
    -- Stationary point found.
 Normal termination of Gaussian 16 at Tue Dec  8 10:19:33 2020.

 --------------------------------------------------------------------
 #N Geom=AllCheck Guess=TCheck SCRF=Check GenChk RB3LYP/6-31G(d) Freq
 --------------------------------------------------------------------

 Structure from the checkpoint file:  "JID_206.chk"
 -----------------------------
 CID_87457922_JID_206_neutraal
 -----------------------------
 Charge =  0 Multiplicity = 1

 SCF Done:  E(RB3LYP) =  -533.094322244     A.U. after    1 cycles

  Exact polarizability:  79.311  -7.187  70.567   1.065   3.712  53.207
 Approx polarizability:  96.372 -18.834 117.808  -0.833  19.411  89.808

                      1                      2                      3
                      A                      A                      A
 Frequencies --     21.1795                59.5145                97.2996
 Red. masses --      8.9100                 6.3675                 6.7568
 Frc consts  --      0.0024                 0.0133                 0.0377
 IR Inten    --      2.1319                 1.7262                 0.7774

                      4                      5                      6
                      A                      A                      A
 Frequencies --    151.6638               169.8945               218.7633
 Red. masses --      4.8714                 4.1854                 1.8181
 Frc consts  --      0.0660                 0.0712                 0.0513
 IR Inten    --      2.4150                 2.5191                 0.3503

                      7                      8                      9
                      A                      A                      A
 Frequencies --    260.4512               283.8827               358.8783
 Red. masses --      1.7832                 4.4316                 6.0462
 Frc consts  --      0.0713                 0.2104                 0.4588
 IR Inten    --      2.7441                 4.9322                 2.3415

                     10                     11                     12
                      A                      A                      A
 Frequencies --    401.4635               473.7986               508.5975
 Red. masses --      5.1944                 4.0071                11.3393
 Frc consts  --      0.4933                 0.5300                 1.7282
 IR Inten    --      1.3889                 2.0943                 1.2663

                     13                     14                     15
                      A                      A                      A
 Frequencies --    545.5453               580.8778               608.8782
 Red. masses --      4.2375                 4.7527                 1.2461
 Frc consts  --      0.7431                 0.9449                 0.2722
 IR Inten    --      3.8646                38.2882                59.8404

                     16                     17                     18
                      A                      A                      A
 Frequencies --    666.5480               674.6490               708.8111
 Red. masses --      1.2504                 1.3977                 3.5238
 Frc consts  --      0.3273                 0.3748                 1.0431
 IR Inten    --     43.5257               162.2686                36.3461

                     19                     20                     21
                      A                      A                      A
 Frequencies --    797.1060               813.2839               885.7506
 Red. masses --      4.4602                11.2938                 3.7284
 Frc consts  --      1.6697                 4.4013                 1.7234
 IR Inten    --      7.9800                 1.0300                 6.9253

                     22                     23                     24
                      A                      A                      A
 Frequencies --    923.9773              1061.2515              1120.7686
 Red. masses --      2.8592                 3.0303                 1.7864
 Frc consts  --      1.4382                 2.0108                 1.3221
 IR Inten    --     26.7454                24.5998                14.3198

                     25                     26                     27
                      A                      A                      A
 Frequencies --   1160.9610              1173.2438              1267.6277
 Red. masses --      2.0852                 4.0544                 2.3349
 Frc consts  --      1.6559                 3.2882                 2.2105
 IR Inten    --     19.9130               620.6119               103.6127

                     28                     29                     30
                      A                      A                      A
 Frequencies --   1368.4927              1392.4783              1416.7000
 Red. masses --      1.3641                 1.5660                 2.2928
 Frc consts  --      1.5051                 1.7891                 2.7112
 IR Inten    --     17.6192                18.9826                 5.3934

                     31                     32                     33
                      A                      A                      A
 Frequencies --   1429.6582              1514.0176              1534.8043
 Red. masses --      1.2473                 1.0452                 1.0507
 Frc consts  --      1.5020                 1.4116                 1.4582
 IR Inten    --     10.4579                 7.1188                 3.8181

                     34                     35                     36
                      A                      A                      A
 Frequencies --   1839.5851              1857.5156              2248.5638
 Red. masses --     12.5995                10.9541                 5.9338
 Frc consts  --     25.1214                22.2685                17.6765
 IR Inten    --    281.8142               147.8233                 5.3305

                     37                     38                     39
                      A                      A                      A
 Frequencies --   3074.9509              3092.5117              3143.3120
 Red. masses --      1.0371                 1.0846                 1.1033
 Frc consts  --      5.7774                 6.1115                 6.4227
 IR Inten    --     12.3788                10.5743                16.8354

                     40                     41                     42
                      A                      A                      A
 Frequencies --   3186.5077              3496.1711              3690.2216
 Red. masses --      1.1015                 1.1619                 1.0642
 Frc consts  --      6.5899                 8.3676                 8.5381
 IR Inten    --      4.5452                53.5501                67.9796

 - Thermochemistry -
 -------------------
 Temperature   298.150 Kelvin.  Pressure   1.00000 Atm.
 Atom     1 has atomic number  6 and mass  12.00000

 Molecular mass:   142.02661 amu.
 Principal axes and moments of inertia in atomic units:
                           1         2         3
     Eigenvalues --   716.802612244.154562395.76891
           X            0.99988   0.01426  -0.00572
           Y           -0.01488   0.99152  -0.12908
           Z            0.00383   0.12915   0.99162
 This molecule is an asymmetric top.
 Rotational symmetry number  1.
 Warning -- assumption of classical behavior for rotation
           may cause significant error
 Rotational temperatures (Kelvin)      0.12083     0.03860     0.03615
 Rotational constants (GHZ):           2.51777     0.80420     0.75330
 Zero-point vibrational energy     300742.1 (Joules/Mol)
                                   71.87909 (Kcal/Mol)
 Warning -- explicit consideration of  15 degrees of freedom as
           vibrations may cause significant error
 Vibrational temperatures:     30.47    85.63   139.99   218.21   244.44
          (Kelvin)            314.75   374.73   408.44   516.35   577.62
                              681.69   731.76   784.92   835.75   876.04
                              959.01   970.67  1019.82  1146.86  1170.13
                             1274.40  1329.40  1526.90  1612.54  1670.36
                             1688.04  1823.83  1968.96  2003.47  2038.32
                             2056.96  2178.33  2208.24  2646.75  2672.55
                             3235.18  4424.17  4449.43  4522.52  4584.67
                             5030.21  5309.41

 Zero-point correction=                           0.114547 (Hartree/Particle)
 Thermal correction to Energy=                    0.124929
 Thermal correction to Enthalpy=                  0.125873
 Thermal correction to Gibbs Free Energy=         0.077332
 Sum of electronic and zero-point Energies=           -532.979776
 Sum of electronic and thermal Energies=              -532.969393
 Sum of electronic and thermal Enthalpies=            -532.968449
 Sum of electronic and thermal Free Energies=         -533.016990

                     E (Thermal)             CV                S
                      KCal/Mol        Cal/Mol-Kelvin    Cal/Mol-Kelvin
 Total                   78.394             36.373            102.163
 Electronic               0.000              0.000              0.000
 Translational            0.889              2.981             40.764
 Rotational               0.889              2.981             29.734
 Vibrational             76.617             30.412             31.665
 Vibration     1          0.593              1.985              6.520
 Vibration     2          0.597              1.974              4.473
 Vibration     3          0.603              1.951              3.508
 Vibration     4          0.619              1.901              2.651
 Vibration     5          0.625              1.880              2.437
 Vibration     6          0.647              1.812              1.969
 Vibration     7          0.669              1.745              1.659
 Vibration     8          0.682              1.704              1.510
 Vibration     9          0.734              1.557              1.127
 Vibration    10          0.767              1.467              0.957
 Vibration    11          0.831              1.308              0.727
 Vibration    12          0.864              1.231              0.637
 Vibration    13          0.901              1.149              0.553
 Vibration    14          0.938              1.073              0.484
 Vibration    15          0.968              1.013              0.435

 Optimization completed.
    -- Stationary point found.
 Normal termination of Gaussian 16 at Tue Dec  8 10:21:53 2020.

 ----------------------------------------------------------------------
 # B3LYP/6-311++G(d,p) empiricaldispersion=gd3bj scf=xqc pop=npa geom=c
 heck
 ----------------------------------------------------------------------

 -------------------------------------
 CID_87457922_JID_206_Energie_neutraal
 -------------------------------------
 Structure from the checkpoint file:  "JID_206.chk"
 Charge =  0 Multiplicity = 1

 SCF Done:  E(RB3LYP) =  -533.265950143     A.U. after   16 cycles
 Normal termination of Gaussian 16 at Tue Dec  8 10:22:45 2020.

 ----------------------------------------------------------------------
 # B3LYP/6-311++G(d,p) empiricaldispersion=gd3bj scf=xqc pop=npa geom=c
 heck
 ----------------------------------------------------------------------

 -----------------------------------
 CID_87457922_JID_206_Energie_kation
 -----------------------------------
 Structure from the checkpoint file:  "JID_206.chk"
 Charge =  1 Multiplicity = 2

 SCF Done:  E(UB3LYP) =  -532.911696941     A.U. after   25 cycles
 Normal termination of Gaussian 16 at Tue Dec  8 10:24:36 2020.
 Gaussian 16:  ES64L-G16RevA.03 25-Dec-2016

 ----------------------------------------------------------------------
 # B3LYP/6-311++G(d,p) empiricaldispersion=gd3bj scf=xqc pop=npa geom=c
 heck
 ----------------------------------------------------------------------

 ----------------------------------
 CID_87457922_JID_206_Energie_anion
 ----------------------------------
 Structure from the checkpoint file:  "JID_206.chk"
 Charge = -1 Multiplicity = 2

                         Standard orientation:
 ---------------------------------------------------------------------
 Center     Atomic      Atomic             Coordinates (Angstroms)
 Number     Number       Type             X           Y           Z
 ---------------------------------------------------------------------
      1          6           0       -1.954358   -1.422618    0.937176
      2          6           0       -1.602136   -0.706684   -0.367923
      3          6           0       -2.205074    0.620028   -0.487283
      4          6           0       -2.750724    1.688031   -0.612395
      5          8           0       -0.155668   -0.665728   -0.583378
      6          6           0        0.585494    0.080657    0.242497
      7          8           0        0.201981    0.725862    1.186166
      8          6           0        2.062124   -0.006035   -0.189732
      9          8           0        2.480586   -0.701166   -1.082182
     10          8           0        2.815809    0.798876    0.577377
     11          1           0       -1.656983   -0.825552    1.799377
     12          1           0       -1.450164   -2.393260    0.968263
     13          1           0       -3.035537   -1.586656    0.974072
     14          1           0       -1.927407   -1.318069   -1.214778
     15          1           0       -3.215716    2.643501   -0.702606
     16          1           0        3.732193    0.697009    0.257768
 ---------------------------------------------------------------------

 SCF Done:  E(UB3LYP) =  -533.272492501     A.U. after   33 cycles
 SCF Done:  E(UB3LYP) =  -533.272492501     a.u. after    1 cycles

 The electronic state is 2-A.
 Alpha  occ. eigenvalues --  -19.01090 -19.00852 -18.93432 -18.92914 -10.13404
 Alpha  occ. eigenvalues --  -10.11329 -10.11087 -10.06342 -10.05256 -10.04697
 Alpha  occ. eigenvalues --   -0.95661  -0.93753  -0.86021  -0.84921  -0.68250
 Alpha  occ. eigenvalues --   -0.62061  -0.55110  -0.51099  -0.45681  -0.40931
 Alpha  occ. eigenvalues --   -0.38462  -0.34041  -0.33054  -0.31990  -0.31134
 Alpha  occ. eigenvalues --   -0.29660  -0.28172  -0.26331  -0.24831  -0.24508
 Alpha  occ. eigenvalues --   -0.21481  -0.17202  -0.17025  -0.16499  -0.15985
 Alpha  occ. eigenvalues --   -0.14788  -0.09096   0.05600
 Alpha virt. eigenvalues --    0.07778   0.08837   0.10289   0.10554   0.11483
 Alpha virt. eigenvalues --    0.12550   0.13649   0.14257   0.16198   0.16894
 Alpha virt. eigenvalues --    0.17319   0.17590   0.18769   0.19402   0.19786

  Beta  occ. eigenvalues --  -19.01004 -19.00753 -18.93023 -18.92462 -10.13403
  Beta  occ. eigenvalues --  -10.11002 -10.10768 -10.06335 -10.05244 -10.04656
  Beta  occ. eigenvalues --   -0.95223  -0.93440  -0.85339  -0.84300  -0.68163
  Beta  occ. eigenvalues --   -0.62007  -0.54717  -0.50433  -0.45511  -0.40824
  Beta  occ. eigenvalues --   -0.38318  -0.33623  -0.32785  -0.31458  -0.30417
  Beta  occ. eigenvalues --   -0.28273  -0.28029  -0.26018  -0.24627  -0.23482
  Beta  occ. eigenvalues --   -0.21089  -0.16931  -0.16428  -0.15341  -0.14543
  Beta  occ. eigenvalues --   -0.14393  -0.08592
  Beta virt. eigenvalues --    0.08045   0.09039   0.10279   0.10754   0.11748
  Beta virt. eigenvalues --    0.12515   0.13348   0.13668   0.14394   0.16255
  Beta virt. eigenvalues --    0.16831   0.17309   0.17550   0.18708   0.19399

 Mulliken charges and spin densities:
               1          2
     1  C    0.482105  -1.060502
     2  C   -1.295668   1.493991
     3  C    2.126540  -0.630814
     4  C   -1.239748  -0.550313
     5  O    0.034065  -0.003264
     6  C   -0.082448   0.108780
     7  O   -0.343950   0.156450
     8  C    0.095656   0.174862
     9  O   -0.435743   0.140304
    10  O   -0.198147   0.015128
    11  H    0.041648   0.150902
    12  H    0.002285   0.128270
    13  H   -0.338394   0.487955
    14  H   -0.105063   0.294525
    15  H    0.018097   0.093483
    16  H    0.238764   0.000244
 Sum of Mulliken charges =  -1.00000   1.00000

 Dipole moment (field-independent basis, Debye):
    X=             -0.7979    Y=              1.2020    Z=             -0.5508  Tot=              1.5442
 Quadrupole moment (field-independent basis, Debye-Ang):
   XX=            -84.2232   YY=            -71.1825   ZZ=            -75.5448
   XY=             -2.6172   XZ=              6.0662   YZ=             -4.4700

 Summary of Natural Population Analysis:

                                       Natural Population
                Natural  -----------------------------------------------
    Atom  No    Charge         Core      Valence    Rydberg      Total
 -----------------------------------------------------------------------
      C    1   -0.29096      0.99964     2.28505    0.00627     3.29096
      C    2    0.02227      0.99947     1.96359    0.01467     2.97773
      C    3    0.00312      0.99935     1.98873    0.00879     2.99688
      C    4   -0.12477      0.99928     2.12138    0.00411     3.12477
      O    5   -0.26704      0.99986     3.25870    0.00848     4.26704
      C    6    0.39456      0.99969     1.58014    0.02561     2.60544
      O    7   -0.26327      0.99987     3.25782    0.00558     4.26327
      C    8    0.39755      0.99974     1.57579    0.02692     2.60245
      O    9   -0.28096      0.99987     3.27433    0.00676     4.28096
      O   10   -0.33986      0.99988     3.33230    0.00768     4.33986
      H   11    0.11603      0.00000     0.38271    0.00125     0.38397
      H   12    0.10175      0.00000     0.39724    0.00101     0.39825
      H   13    0.09852      0.00000     0.39995    0.00152     0.40148
      H   14    0.10378      0.00000     0.39454    0.00168     0.39622
      H   15    0.10646      0.00000     0.39247    0.00107     0.39354
      H   16    0.22281      0.00000     0.27145    0.00575     0.27719
 =======================================================================
   * Total *    0.00000      9.99666    26.87619    0.12715    37.00000

 Normal termination of Gaussian 16 at Tue Dec  8 10:27:11 2020.
