 Gaussian 16, Revision A.03,

 -----------------------------------------------------------
 # opt freq B3LYP/6-31G(d) empiricaldispersion=gd3bj scf=xqc
 -----------------------------------------------------------

 ------------------------------
 CID_14277652_JID_9725_neutraal
 ------------------------------
 Symbolic Z-matrix:
 Charge =  0 Multiplicity = 1

 SCF Done:  E(RB3LYP) =  -1219.98926718     A.U. after   15 cycles
 SCF Done:  E(RB3LYP) =  -1219.92449144     A.U. after   16 cycles
 SCF Done:  E(RB3LYP) =  -1219.99454836     A.U. after   14 cycles
 SCF Done:  E(RB3LYP) =  -1219.99577470     A.U. after   13 cycles
 SCF Done:  E(RB3LYP) =  -1219.99531364     A.U. after   13 cycles
 SCF Done:  E(RB3LYP) =  -1219.99613748     A.U. after   12 cycles
 SCF Done:  E(RB3LYP) =  -1219.99614331     A.U. after   12 cycles
 SCF Done:  E(RB3LYP) =  -1219.99643785     A.U. after   11 cycles
 SCF Done:  E(RB3LYP) =  -1219.99647723     A.U. after   11 cycles
 SCF Done:  E(RB3LYP) =  -1219.99650063     A.U. after   11 cycles
 SCF Done:  E(RB3LYP) =  -1219.99650740     A.U. after   10 cycles
 SCF Done:  E(RB3LYP) =  -1219.99651526     A.U. after    9 cycles
 SCF Done:  E(RB3LYP) =  -1219.99651606     A.U. after    8 cycles
 SCF Done:  E(RB3LYP) =  -1219.99651617     A.U. after    8 cycles
 Optimization completed.
    -- Stationary point found.
 Normal termination of Gaussian 16 at Sun Dec 13 12:41:09 2020.

 --------------------------------------------------------------------
 #N Geom=AllCheck Guess=TCheck SCRF=Check GenChk RB3LYP/6-31G(d) Freq
 --------------------------------------------------------------------

 Structure from the checkpoint file:  "JID_9725.chk"
 ------------------------------
 CID_14277652_JID_9725_neutraal
 ------------------------------
 Charge =  0 Multiplicity = 1

 SCF Done:  E(RB3LYP) =  -1219.99651617     A.U. after    1 cycles

  Exact polarizability: 206.102 -13.249 179.733  30.476  17.643 122.165
 Approx polarizability: 318.851 -34.718 316.672  64.326  41.669 210.525

                      1                      2                      3
                      A                      A                      A
 Frequencies --     23.3010                33.3426                58.0966
 Red. masses --      6.5485                 4.0961                 5.1883
 Frc consts  --      0.0021                 0.0027                 0.0103
 IR Inten    --      0.3575                 1.8892                 0.0401

                      4                      5                      6
                      A                      A                      A
 Frequencies --     74.3313                87.4368                88.8836
 Red. masses --      6.1453                 5.0326                 5.5718
 Frc consts  --      0.0200                 0.0227                 0.0259
 IR Inten    --      3.2808                 2.1835                 0.2453

                      7                      8                      9
                      A                      A                      A
 Frequencies --    117.0520               133.2672               178.4489
 Red. masses --      4.8819                 5.2135                 5.0993
 Frc consts  --      0.0394                 0.0546                 0.0957
 IR Inten    --      1.0089                 0.3669                 1.0603

                     10                     11                     12
                      A                      A                      A
 Frequencies --    205.1715               236.8102               253.8599
 Red. masses --      6.8161                 3.0409                 1.7872
 Frc consts  --      0.1691                 0.1005                 0.0679
 IR Inten    --      0.9719                 3.9920                 0.6022

                     13                     14                     15
                      A                      A                      A
 Frequencies --    280.5719               295.6182               340.5020
 Red. masses --      2.2675                 6.8979                 5.9496
 Frc consts  --      0.1052                 0.3552                 0.4064
 IR Inten    --      0.5802                 0.2675                 1.5548

                     16                     17                     18
                      A                      A                      A
 Frequencies --    345.0003               379.7180               399.4004
 Red. masses --      2.7464                 5.3553                 3.2071
 Frc consts  --      0.1926                 0.4549                 0.3014
 IR Inten    --      1.7354                 0.8880                 3.0293

                     19                     20                     21
                      A                      A                      A
 Frequencies --    428.0149               447.2146               453.2920
 Red. masses --      3.1685                 5.5908                 8.0268
 Frc consts  --      0.3420                 0.6588                 0.9717
 IR Inten    --      0.4374                 5.5631                 2.6260

                     22                     23                     24
                      A                      A                      A
 Frequencies --    515.7711               525.3205               547.7025
 Red. masses --      3.4385                 4.9439                 3.3711
 Frc consts  --      0.5389                 0.8038                 0.5958
 IR Inten    --      6.5471                 0.8720                13.0467

                     25                     26                     27
                      A                      A                      A
 Frequencies --    567.5458               603.3059               642.6069
 Red. masses --      3.4172                 1.5529                 4.4699
 Frc consts  --      0.6485                 0.3330                 1.0875
 IR Inten    --      8.4406               109.5951                29.1970

                     28                     29                     30
                      A                      A                      A
 Frequencies --    654.8629               663.4491               711.0552
 Red. masses --      6.2963                 4.6486                 6.3792
 Frc consts  --      1.5909                 1.2055                 1.9003
 IR Inten    --      1.4195                41.1908                15.8299

                     31                     32                     33
                      A                      A                      A
 Frequencies --    739.4891               741.7847               757.7846
 Red. masses --      4.3001                 4.7641                 4.4402
 Frc consts  --      1.3854                 1.5445                 1.5023
 IR Inten    --      6.6196                18.4404                 3.8479

                     34                     35                     36
                      A                      A                      A
 Frequencies --    793.9993               808.7723               825.2846
 Red. masses --      4.6443                 6.0383                 1.2895
 Frc consts  --      1.7251                 2.3271                 0.5175
 IR Inten    --     32.2428                22.3267                 8.4544

                     37                     38                     39
                      A                      A                      A
 Frequencies --    846.4484               858.1882               861.8600
 Red. masses --      1.9349                 2.5498                 1.5927
 Frc consts  --      0.8168                 1.1064                 0.6971
 IR Inten    --     23.0357                24.2298                 1.6252

                     40                     41                     42
                      A                      A                      A
 Frequencies --    912.9900               948.3801               959.1961
 Red. masses --      1.7308                 1.3292                 1.3005
 Frc consts  --      0.8500                 0.7044                 0.7050
 IR Inten    --      3.3138                 0.2600                 0.4472

                     43                     44                     45
                      A                      A                      A
 Frequencies --    969.1014               998.9473              1035.1530
 Red. masses --      1.3874                 1.4551                 2.7294
 Frc consts  --      0.7677                 0.8555                 1.7231
 IR Inten    --      0.5598                 0.9616                 0.3848

                     46                     47                     48
                      A                      A                      A
 Frequencies --   1069.5165              1078.4487              1106.8950
 Red. masses --      3.9959                 6.3941                 5.3882
 Frc consts  --      2.6930                 4.3816                 3.8897
 IR Inten    --     14.7476                50.8438                 3.9795

                     49                     50                     51
                      A                      A                      A
 Frequencies --   1139.4944              1154.1753              1182.2409
 Red. masses --      1.3170                 2.7561                 1.0996
 Frc consts  --      1.0075                 2.1632                 0.9055
 IR Inten    --      4.2653                79.3172                 3.4464

                     52                     53                     54
                      A                      A                      A
 Frequencies --   1187.9542              1211.0664              1213.7627
 Red. masses --      1.2641                 1.3146                 1.6796
 Frc consts  --      1.0511                 1.1360                 1.4579
 IR Inten    --      0.6412                47.8805                58.9873

                     55                     56                     57
                      A                      A                      A
 Frequencies --   1221.7839              1238.3467              1246.9871
 Red. masses --      1.3787                 1.6661                 2.4190
 Frc consts  --      1.2126                 1.5054                 2.2162
 IR Inten    --      7.5473                58.7237                 2.9050

                     58                     59                     60
                      A                      A                      A
 Frequencies --   1278.6949              1289.7368              1311.0047
 Red. masses --      1.4266                 5.0475                 3.8104
 Frc consts  --      1.3744                 4.9468                 3.8586
 IR Inten    --     61.8476                 7.0631               224.5409

                     61                     62                     63
                      A                      A                      A
 Frequencies --   1313.3289              1350.5032              1378.1309
 Red. masses --      1.8384                 1.4425                 4.3403
 Frc consts  --      1.8682                 1.5501                 4.8569
 IR Inten    --      5.3126                14.6105                39.0034

                     64                     65                     66
                      A                      A                      A
 Frequencies --   1407.3535              1452.7966              1476.1236
 Red. masses --      2.0287                 2.4574                 2.9358
 Frc consts  --      2.3675                 3.0558                 3.7689
 IR Inten    --     60.3555                22.8809                 0.8634

                     67                     68                     69
                      A                      A                      A
 Frequencies --   1497.5762              1498.4866              1512.8792
 Red. masses --      1.1273                 1.1976                 2.3832
 Frc consts  --      1.4896                 1.5844                 3.2139
 IR Inten    --      4.1753                11.2322                10.2788

                     70                     71                     72
                      A                      A                      A
 Frequencies --   1523.3071              1536.6368              1570.0987
 Red. masses --      1.0508                 1.0599                 2.5179
 Frc consts  --      1.4366                 1.4746                 3.6572
 IR Inten    --      7.4913                25.5645                95.7373

                     73                     74                     75
                      A                      A                      A
 Frequencies --   1589.9842              1625.3744              1636.2787
 Red. masses --      6.5617                 5.5191                 6.5156
 Frc consts  --      9.7735                 8.5906                10.2782
 IR Inten    --     14.9736                78.6957                10.8239

                     76                     77                     78
                      A                      A                      A
 Frequencies --   1676.4670              1802.5619              3031.3656
 Red. masses --      5.7267                 9.8049                 1.0355
 Frc consts  --      9.4830                18.7704                 5.6064
 IR Inten    --     85.1586               213.7599                51.8670

                     79                     80                     81
                      A                      A                      A
 Frequencies --   3080.6373              3097.5546              3135.2406
 Red. masses --      1.0585                 1.1049                 1.1083
 Frc consts  --      5.9187                 6.2459                 6.4189
 IR Inten    --     19.8359                31.1804                 4.6922

                     82                     83                     84
                      A                      A                      A
 Frequencies --   3161.8375              3179.0340              3185.5978
 Red. masses --      1.1012                 1.0898                 1.0888
 Frc consts  --      6.4863                 6.4889                 6.5098
 IR Inten    --     29.0778                26.4782                 9.5974

                     85                     86                     87
                      A                      A                      A
 Frequencies --   3186.7339              3209.3622              3214.7720
 Red. masses --      1.0895                 1.0908                 1.0934
 Frc consts  --      6.5186                 6.6196                 6.6579
 IR Inten    --     11.5546                 3.5756                 8.1973

                     88                     89                     90
                      A                      A                      A
 Frequencies --   3222.8169              3236.0436              3682.9288
 Red. masses --      1.0937                 1.0914                 1.0637
 Frc consts  --      6.6932                 6.7336                 8.5008
 IR Inten    --      5.5265                 7.5872                48.7343

 - Thermochemistry -
 -------------------
 Temperature   298.150 Kelvin.  Pressure   1.00000 Atm.
 Atom     1 has atomic number  6 and mass  12.00000

 Molecular mass:   275.06162 amu.
 Principal axes and moments of inertia in atomic units:
                           1         2         3
     Eigenvalues --  3233.999576227.213547428.37416
           X            0.99980  -0.01859   0.00695
           Y            0.01850   0.99975   0.01254
           Z           -0.00719  -0.01241   0.99990
 This molecule is an asymmetric top.
 Rotational symmetry number  1.
 Warning -- assumption of classical behavior for rotation
           may cause significant error
 Rotational temperatures (Kelvin)      0.02678     0.01391     0.01166
 Rotational constants (GHZ):           0.55805     0.28982     0.24295
 Zero-point vibrational energy     650471.0 (Joules/Mol)
                                  155.46629 (Kcal/Mol)
 Warning -- explicit consideration of  26 degrees of freedom as
           vibrations may cause significant error
 Vibrational temperatures:     33.52    47.97    83.59   106.95   125.80
          (Kelvin)            127.88   168.41   191.74   256.75   295.20
                              340.72   365.25   403.68   425.33   489.91
                              496.38   546.33   574.65   615.82   643.44
                              652.19   742.08   755.82   788.02   816.57
                              868.02   924.57   942.20   954.56  1023.05
                             1063.96  1067.26  1090.28  1142.39  1163.64
                             1187.40  1217.85  1234.74  1240.02  1313.59
                             1364.51  1380.07  1394.32  1437.26  1489.35
                             1538.80  1551.65  1592.57  1639.48  1660.60
                             1700.98  1709.20  1742.45  1746.33  1757.87
                             1781.70  1794.14  1839.76  1855.64  1886.24
                             1889.59  1943.07  1982.82  2024.87  2090.25
                             2123.81  2154.68  2155.99  2176.70  2191.70
                             2210.88  2259.02  2287.63  2338.55  2354.24
                             2412.06  2593.48  4361.46  4432.35  4456.69
                             4510.91  4549.18  4573.92  4583.36  4585.00
                             4617.56  4625.34  4636.91  4655.95  5298.91

 Zero-point correction=                           0.247751 (Hartree/Particle)
 Thermal correction to Energy=                    0.264795
 Thermal correction to Enthalpy=                  0.265739
 Thermal correction to Gibbs Free Energy=         0.201437
 Sum of electronic and zero-point Energies=          -1219.748765
 Sum of electronic and thermal Energies=             -1219.731721
 Sum of electronic and thermal Enthalpies=           -1219.730777
 Sum of electronic and thermal Free Energies=        -1219.795080

                     E (Thermal)             CV                S
                      KCal/Mol        Cal/Mol-Kelvin    Cal/Mol-Kelvin
 Total                  166.161             64.597            135.336
 Electronic               0.000              0.000              0.000
 Translational            0.889              2.981             42.734
 Rotational               0.889              2.981             33.369
 Vibrational            164.384             58.635             59.232
 Vibration     1          0.593              1.985              6.331
 Vibration     2          0.594              1.983              5.620
 Vibration     3          0.596              1.974              4.521
 Vibration     4          0.599              1.966              4.035
 Vibration     5          0.601              1.958              3.717
 Vibration     6          0.602              1.957              3.684
 Vibration     7          0.608              1.935              3.148
 Vibration     8          0.613              1.920              2.898
 Vibration     9          0.629              1.869              2.345
 Vibration    10          0.640              1.833              2.086
 Vibration    11          0.656              1.784              1.827
 Vibration    12          0.665              1.756              1.704
 Vibration    13          0.680              1.710              1.530
 Vibration    14          0.690              1.682              1.442
 Vibration    15          0.720              1.595              1.210
 Vibration    16          0.723              1.585              1.189
 Vibration    17          0.750              1.513              1.040
 Vibration    18          0.765              1.471              0.965
 Vibration    19          0.790              1.409              0.865
 Vibration    20          0.806              1.367              0.804
 Vibration    21          0.812              1.354              0.786
 Vibration    22          0.871              1.215              0.620
 Vibration    23          0.880              1.194              0.598
 Vibration    24          0.903              1.145              0.549
 Vibration    25          0.924              1.101              0.509
 Vibration    26          0.962              1.025              0.444

 Optimization completed.
    -- Stationary point found.
 Normal termination of Gaussian 16 at Sun Dec 13 13:00:24 2020.

 ----------------------------------------------------------------------
 # B3LYP/6-311++G(d,p) empiricaldispersion=gd3bj scf=xqc pop=npa geom=c
 heck
 ----------------------------------------------------------------------

 --------------------------------------
 CID_14277652_JID_9725_Energie_neutraal
 --------------------------------------
 Structure from the checkpoint file:  "JID_9725.chk"
 Charge =  0 Multiplicity = 1

 SCF Done:  E(RB3LYP) =  -1220.25160518     A.U. after   16 cycles
 Normal termination of Gaussian 16 at Sun Dec 13 13:08:42 2020.

 ----------------------------------------------------------------------
 # B3LYP/6-311++G(d,p) empiricaldispersion=gd3bj scf=xqc pop=npa geom=c
 heck
 ----------------------------------------------------------------------

 ------------------------------------
 CID_14277652_JID_9725_Energie_kation
 ------------------------------------
 Structure from the checkpoint file:  "JID_9725.chk"
 Charge =  1 Multiplicity = 2

 SCF Done:  E(UB3LYP) =  -1219.96469171     A.U. after   25 cycles
 Normal termination of Gaussian 16 at Sun Dec 13 13:27:09 2020.
 Gaussian 16:  ES64L-G16RevA.03 25-Dec-2016

 ----------------------------------------------------------------------
 # B3LYP/6-311++G(d,p) empiricaldispersion=gd3bj scf=xqc pop=npa geom=c
 heck
 ----------------------------------------------------------------------

 -----------------------------------
 CID_14277652_JID_9725_Energie_anion
 -----------------------------------
 Structure from the checkpoint file:  "JID_9725.chk"
 Charge = -1 Multiplicity = 2

                         Standard orientation:
 ---------------------------------------------------------------------
 Center     Atomic      Atomic             Coordinates (Angstroms)
 Number     Number       Type             X           Y           Z
 ---------------------------------------------------------------------
      1          6           0        4.156208   -1.794724   -0.488745
      2          8           0        3.993433   -0.451371   -0.055459
      3          6           0        2.830637    0.175233   -0.378232
      4          6           0        2.590285    1.393375    0.278231
      5          6           0        1.410802    2.083454    0.050843
      6          6           0        0.444101    1.591841   -0.840882
      7          6           0        0.714782    0.398192   -1.513912
      8          6           0        1.895701   -0.311530   -1.296026
      9          6           0       -0.877187    2.274090   -0.998850
     10         16           0       -2.085967    1.889320    0.378773
     11          6           0       -2.238671    0.121179    0.121329
     12          6           0       -1.354779   -0.857754    0.619546
     13          6           0       -1.576694   -2.193802    0.240515
     14          7           0       -2.577038   -2.612458   -0.533777
     15          6           0       -3.420828   -1.674756   -0.983490
     16          6           0       -3.288538   -0.319459   -0.692930
     17          6           0       -0.169031   -0.653947    1.504653
     18          8           0        0.774894   -1.420761    1.531670
     19          8           0       -0.251853    0.413061    2.320604
     20          1           0        5.082135   -2.146590   -0.031038
     21          1           0        4.247889   -1.858354   -1.580992
     22          1           0        3.316859   -2.416081   -0.154001
     23          1           0        3.337898    1.761124    0.973749
     24          1           0        1.216167    3.005857    0.592085
     25          1           0       -0.020082   -0.001395   -2.207875
     26          1           0        2.059055   -1.246625   -1.817006
     27          1           0       -0.789011    3.363394   -0.945660
     28          1           0       -1.357262    2.014028   -1.945703
     29          1           0       -0.885393   -2.950006    0.601356
     30          1           0       -4.236041   -2.022963   -1.614997
     31          1           0       -3.987829    0.402272   -1.100784
     32          1           0        0.597844    0.437632    2.800117
 ---------------------------------------------------------------------

 SCF Done:  E(UB3LYP) =  -1220.27019313     A.U. after   27 cycles

 The electronic state is 2-A.
 Alpha  occ. eigenvalues --  -88.70555 -19.05446 -19.02150 -18.95016 -14.14991
 Alpha  occ. eigenvalues --  -10.13965 -10.13167 -10.12525 -10.07777 -10.06576
 Alpha  occ. eigenvalues --  -10.06519 -10.06417 -10.06376 -10.06319 -10.05698
 Alpha  occ. eigenvalues --  -10.05055 -10.04265 -10.03494 -10.02809  -7.79083
 Alpha  occ. eigenvalues --   -5.75479  -5.75136  -5.74440  -0.97123  -0.96139
 Alpha  occ. eigenvalues --   -0.86545  -0.79113  -0.75046  -0.69095  -0.66380
 Alpha  occ. eigenvalues --   -0.64465  -0.62635  -0.61941  -0.58640  -0.53326
 Alpha  occ. eigenvalues --   -0.51560  -0.50767  -0.47739  -0.45875  -0.44930
 Alpha  occ. eigenvalues --   -0.43355  -0.38957  -0.37576  -0.36875  -0.36148
 Alpha  occ. eigenvalues --   -0.34689  -0.34128  -0.33585  -0.33183  -0.32597
 Alpha  occ. eigenvalues --   -0.31788  -0.30532  -0.29562  -0.29149  -0.27784
 Alpha  occ. eigenvalues --   -0.26803  -0.26246  -0.25868  -0.25618  -0.24506
 Alpha  occ. eigenvalues --   -0.22739  -0.22435  -0.21147  -0.19910  -0.18532
 Alpha  occ. eigenvalues --   -0.15070  -0.14094  -0.13670  -0.12190  -0.11076
 Alpha  occ. eigenvalues --   -0.10944  -0.09179   0.03913
 Alpha virt. eigenvalues --    0.07089   0.08257   0.08947   0.09161   0.09830
 Alpha virt. eigenvalues --    0.09959   0.10179   0.10816   0.11092   0.11528
 Alpha virt. eigenvalues --    0.11861   0.12662   0.12791   0.13310   0.13913

  Beta  occ. eigenvalues --  -88.70562 -19.05436 -19.02109 -18.94750 -14.14765
  Beta  occ. eigenvalues --  -10.13779 -10.13167 -10.12489 -10.07638 -10.06563
  Beta  occ. eigenvalues --  -10.06509 -10.06406 -10.06383 -10.06322 -10.05751
  Beta  occ. eigenvalues --  -10.04627 -10.03937 -10.03615 -10.02568  -7.79087
  Beta  occ. eigenvalues --   -5.75489  -5.75157  -5.74443  -0.97100  -0.95907
  Beta  occ. eigenvalues --   -0.86161  -0.78644  -0.75005  -0.68724  -0.66046
  Beta  occ. eigenvalues --   -0.64409  -0.62411  -0.61559  -0.58525  -0.52912
  Beta  occ. eigenvalues --   -0.51271  -0.50736  -0.47602  -0.45727  -0.44570
  Beta  occ. eigenvalues --   -0.43330  -0.38931  -0.37541  -0.36761  -0.35909
  Beta  occ. eigenvalues --   -0.34479  -0.34008  -0.33286  -0.32814  -0.32527
  Beta  occ. eigenvalues --   -0.31761  -0.29978  -0.29446  -0.28999  -0.27432
  Beta  occ. eigenvalues --   -0.26664  -0.25871  -0.25684  -0.25397  -0.23665
  Beta  occ. eigenvalues --   -0.22689  -0.22235  -0.21014  -0.19466  -0.17596
  Beta  occ. eigenvalues --   -0.14722  -0.13360  -0.12767  -0.11222  -0.10768
  Beta  occ. eigenvalues --   -0.10322  -0.09107
  Beta virt. eigenvalues --    0.07077   0.08176   0.08917   0.09158   0.09492
  Beta virt. eigenvalues --    0.09868   0.09938   0.10795   0.11019   0.11392
  Beta virt. eigenvalues --    0.11738   0.11868   0.12614   0.12794   0.13301

 Mulliken charges and spin densities:
               1          2
     1  C   -0.354446  -0.002039
     2  O   -0.103772   0.000906
     3  C   -0.900444   0.024186
     4  C   -0.205826   0.051440
     5  C   -0.482132  -0.016182
     6  C    0.695079   0.019394
     7  C    0.062144   0.003518
     8  C    0.198761   0.007112
     9  C   -0.671669  -0.115889
    10  S   -0.124112   0.015442
    11  C    0.566883   0.329548
    12  C    0.162918   0.135001
    13  C   -0.476927  -0.025896
    14  N   -0.100605   0.094104
    15  C   -0.484651   0.244702
    16  C   -0.076312  -0.050216
    17  C   -0.562134   0.127073
    18  O   -0.253351   0.087950
    19  O    0.005676   0.000998
    20  H    0.140089  -0.000147
    21  H    0.124980   0.000164
    22  H    0.198390   0.000002
    23  H    0.151762   0.007830
    24  H    0.116249   0.018692
    25  H    0.183890  -0.000846
    26  H    0.173755   0.000929
    27  H    0.139015   0.056091
    28  H    0.206420  -0.005110
    29  H    0.171691   0.003169
    30  H    0.124093  -0.022026
    31  H    0.143333   0.008279
    32  H    0.231253   0.001822
 Sum of Mulliken charges =  -1.00000   1.00000

 Dipole moment (field-independent basis, Debye):
    X=              5.9763    Y=              2.7782    Z=             -1.6258  Tot=              6.7880
 Quadrupole moment (field-independent basis, Debye-Ang):
   XX=           -154.2541   YY=           -144.3067   ZZ=           -128.4234
   XY=            -11.6377   XZ=              0.7645   YZ=              1.9354

 Summary of Natural Population Analysis:

                                       Natural Population
                Natural  -----------------------------------------------
    Atom  No    Charge         Core      Valence    Rydberg      Total
 -----------------------------------------------------------------------
      C    1   -0.10260      0.99961     2.09495    0.00803     3.10260
      O    2   -0.27487      0.99985     3.26558    0.00944     4.27487
      C    3    0.16878      0.99939     1.81818    0.01365     2.83122
      C    4   -0.12764      0.99953     2.11857    0.00954     3.12764
      C    5   -0.07911      0.99952     2.07077    0.00881     3.07911
      C    6   -0.04894      0.99949     2.03743    0.01201     3.04894
      C    7   -0.07979      0.99953     2.07169    0.00857     3.07979
      C    8   -0.13895      0.99952     2.13200    0.00743     3.13895
      C    9   -0.22582      0.99954     2.21529    0.01099     3.22582
      S   10    0.09014      4.99958     2.89171    0.01858     7.90986
      C   11    0.01075      0.99936     1.97895    0.01095     2.98925
      C   12   -0.06559      0.99937     2.05140    0.01482     3.06559
      C   13    0.03563      0.99957     1.95121    0.01360     2.96437
      N   14   -0.21851      0.99971     2.70640    0.01241     3.71851
      C   15    0.07740      0.99960     1.90771    0.01529     2.92260
      C   16   -0.15303      0.99950     2.14363    0.00990     3.15303
      C   17    0.42068      0.99967     1.55396    0.02569     2.57932
      O   18   -0.30599      0.99987     3.29969    0.00643     4.30599
      O   19   -0.34210      0.99987     3.33455    0.00767     4.34210
      H   20    0.08748      0.00000     0.41174    0.00077     0.41252
      H   21    0.07766      0.00000     0.42099    0.00135     0.42234
      H   22    0.09546      0.00000     0.40329    0.00124     0.40454
      H   23    0.09996      0.00000     0.39855    0.00149     0.40004
      H   24    0.09826      0.00000     0.40040    0.00135     0.40174
      H   25    0.10376      0.00000     0.39506    0.00118     0.39624
      H   26    0.10184      0.00000     0.39711    0.00105     0.39816
      H   27    0.09949      0.00000     0.39856    0.00195     0.40051
      H   28    0.09981      0.00000     0.39895    0.00123     0.40019
      H   29    0.09244      0.00000     0.40618    0.00138     0.40756
      H   30    0.07472      0.00000     0.42357    0.00172     0.42528
      H   31    0.09863      0.00000     0.40010    0.00127     0.40137
      H   32    0.23003      0.00000     0.26626    0.00371     0.26997
 =======================================================================
   * Total *    0.00000     22.99208    48.76442    0.24350    72.00000

 Normal termination of Gaussian 16 at Sun Dec 13 13:46:48 2020.
