 Gaussian 16, Revision A.03,

 -----------------------------------------------------------
 # opt freq B3LYP/6-31G(d) empiricaldispersion=gd3bj scf=xqc
 -----------------------------------------------------------

 -------------------------------
 CID_122021983_JID_5223_neutraal
 -------------------------------
 Symbolic Z-matrix:
 Charge =  0 Multiplicity = 1

 SCF Done:  E(RB3LYP) =  -727.134322019     A.U. after   14 cycles
 SCF Done:  E(RB3LYP) =  -727.141992777     A.U. after   12 cycles
 SCF Done:  E(RB3LYP) =  -727.140382986     A.U. after   13 cycles
 SCF Done:  E(RB3LYP) =  -727.142870927     A.U. after   12 cycles
 SCF Done:  E(RB3LYP) =  -727.144900155     A.U. after   12 cycles
 SCF Done:  E(RB3LYP) =  -727.147392274     A.U. after   14 cycles
 SCF Done:  E(RB3LYP) =  -727.148253855     A.U. after   12 cycles
 SCF Done:  E(RB3LYP) =  -727.149553171     A.U. after   12 cycles
 SCF Done:  E(RB3LYP) =  -727.150179423     A.U. after   12 cycles
 SCF Done:  E(RB3LYP) =  -727.150582829     A.U. after   11 cycles
 SCF Done:  E(RB3LYP) =  -727.151376317     A.U. after    8 cycles
 SCF Done:  E(RB3LYP) =  -727.151377703     A.U. after    8 cycles
 SCF Done:  E(RB3LYP) =  -727.151378034     A.U. after    7 cycles
 SCF Done:  E(RB3LYP) =  -727.151378185     A.U. after    7 cycles
 SCF Done:  E(RB3LYP) =  -727.151378209     A.U. after    7 cycles
 Optimization completed.
    -- Stationary point found.
 Normal termination of Gaussian 16 at Thu Dec 10 15:02:31 2020.

 --------------------------------------------------------------------
 #N Geom=AllCheck Guess=TCheck SCRF=Check GenChk RB3LYP/6-31G(d) Freq
 --------------------------------------------------------------------

 Structure from the checkpoint file:  "JID_5223.chk"
 -------------------------------
 CID_122021983_JID_5223_neutraal
 -------------------------------
 Charge =  0 Multiplicity = 1

 SCF Done:  E(RB3LYP) =  -727.151378209     A.U. after    1 cycles

  Exact polarizability: 132.813  -2.408 129.743  -1.394   3.885 102.499
 Approx polarizability: 172.507   1.789 173.409   1.486  15.045 172.203

                      1                      2                      3
                      A                      A                      A
 Frequencies --     33.6918                49.2470                73.9303
 Red. masses --      4.6700                 4.9669                 9.2379
 Frc consts  --      0.0031                 0.0071                 0.0297
 IR Inten    --      0.6658                 1.2594                 2.1395

                      4                      5                      6
                      A                      A                      A
 Frequencies --     84.9299                97.9592               117.1199
 Red. masses --      4.6779                 5.3378                 2.7074
 Frc consts  --      0.0199                 0.0302                 0.0219
 IR Inten    --      0.4962                 1.9951                 0.1889

                      7                      8                      9
                      A                      A                      A
 Frequencies --    131.8554               155.4091               165.4900
 Red. masses --      3.6070                 2.5333                 2.5602
 Frc consts  --      0.0369                 0.0360                 0.0413
 IR Inten    --      0.5562                 0.7833                 0.6914

                     10                     11                     12
                      A                      A                      A
 Frequencies --    212.6152               217.8112               234.6058
 Red. masses --      3.0373                 2.9571                 1.5571
 Frc consts  --      0.0809                 0.0827                 0.0505
 IR Inten    --      6.2643                 6.3638                 0.5488

                     13                     14                     15
                      A                      A                      A
 Frequencies --    257.2562               283.8308               291.5700
 Red. masses --      2.6612                 1.9804                 2.3878
 Frc consts  --      0.1038                 0.0940                 0.1196
 IR Inten    --      2.2508                 0.9378                 4.8573

                     16                     17                     18
                      A                      A                      A
 Frequencies --    381.9624               400.0141               435.4492
 Red. masses --      2.7520                 2.5271                 3.8256
 Frc consts  --      0.2366                 0.2382                 0.4274
 IR Inten    --      3.7516                 1.4325                11.1033

                     19                     20                     21
                      A                      A                      A
 Frequencies --    474.9589               492.1925               524.6802
 Red. masses --      3.5111                 2.6629                 1.9613
 Frc consts  --      0.4667                 0.3801                 0.3181
 IR Inten    --      7.9853                26.0520                29.1155

                     22                     23                     24
                      A                      A                      A
 Frequencies --    617.5846               626.4295               670.2758
 Red. masses --      3.4758                 3.4711                 1.4422
 Frc consts  --      0.7811                 0.8025                 0.3817
 IR Inten    --     10.2459                36.7577               117.8969

                     25                     26                     27
                      A                      A                      A
 Frequencies --    682.8527               735.6510               782.2875
 Red. masses --      3.6606                 1.7709                 2.2104
 Frc consts  --      1.0057                 0.5647                 0.7970
 IR Inten    --     15.8097                64.5733                24.8297

                     28                     29                     30
                      A                      A                      A
 Frequencies --    784.5177               795.2966               809.1844
 Red. masses --      1.3750                 1.4284                 2.8947
 Frc consts  --      0.4986                 0.5323                 1.1167
 IR Inten    --      0.5382                 7.6194                33.2778

                     31                     32                     33
                      A                      A                      A
 Frequencies --    852.8437               872.6627               915.9119
 Red. masses --      1.6398                 2.2835                 2.3797
 Frc consts  --      0.7027                 1.0246                 1.1762
 IR Inten    --      1.7869                 8.6793                 3.8010

                     34                     35                     36
                      A                      A                      A
 Frequencies --    925.8098               954.9002               973.8313
 Red. masses --      2.8300                 2.1161                 1.9568
 Frc consts  --      1.4292                 1.1368                 1.0934
 IR Inten    --      3.1401                 1.5249                 6.7768

                     37                     38                     39
                      A                      A                      A
 Frequencies --    994.4454              1005.1830              1062.8578
 Red. masses --      2.1513                 1.2922                 2.2237
 Frc consts  --      1.2535                 0.7693                 1.4800
 IR Inten    --      3.3967                 2.5089                18.6514

                     40                     41                     42
                      A                      A                      A
 Frequencies --   1066.0958              1101.9695              1119.0448
 Red. masses --      2.0881                 2.4568                 2.5027
 Frc consts  --      1.3983                 1.7578                 1.8465
 IR Inten    --      7.9191                 5.7257                71.8834

                     43                     44                     45
                      A                      A                      A
 Frequencies --   1128.6903              1149.1273              1162.2900
 Red. masses --      1.6960                 2.8397                 1.8510
 Frc consts  --      1.2730                 2.2093                 1.4733
 IR Inten    --      3.7595                 1.1617                26.4932

                     46                     47                     48
                      A                      A                      A
 Frequencies --   1182.6989              1196.6120              1200.1178
 Red. masses --      2.5759                 1.8669                 2.2762
 Frc consts  --      2.1229                 1.5750                 1.9316
 IR Inten    --    168.2978                 8.9087                27.0377

                     49                     50                     51
                      A                      A                      A
 Frequencies --   1233.4043              1233.8354              1254.2102
 Red. masses --      1.3307                 1.2572                 1.4160
 Frc consts  --      1.1927                 1.1276                 1.3124
 IR Inten    --      4.0233                 1.8959                75.5730

                     52                     53                     54
                      A                      A                      A
 Frequencies --   1281.7356              1293.8088              1310.0200
 Red. masses --      1.5806                 1.2812                 1.2864
 Frc consts  --      1.5299                 1.2636                 1.3007
 IR Inten    --     15.0503                 0.5590                 1.0938

                     55                     56                     57
                      A                      A                      A
 Frequencies --   1326.9552              1333.5839              1336.2978
 Red. masses --      1.2722                 1.4202                 1.3800
 Frc consts  --      1.3198                 1.4881                 1.4519
 IR Inten    --      7.5206                24.4225                15.7535

                     58                     59                     60
                      A                      A                      A
 Frequencies --   1365.3478              1391.5794              1408.8683
 Red. masses --      1.4422                 1.4513                 1.6319
 Frc consts  --      1.5840                 1.6559                 1.9085
 IR Inten    --      1.3390                81.8167                50.2764

                     61                     62                     63
                      A                      A                      A
 Frequencies --   1412.4924              1433.9288              1438.6792
 Red. masses --      1.4599                 2.1193                 1.2667
 Frc consts  --      1.7161                 2.5675                 1.5447
 IR Inten    --      6.8924                97.7536                16.2594

                     64                     65                     66
                      A                      A                      A
 Frequencies --   1450.6584              1476.5922              1486.0388
 Red. masses --      2.7971                 1.3751                 1.1429
 Frc consts  --      3.4680                 1.7665                 1.4871
 IR Inten    --    311.5518                 9.0777                13.3460

                     67                     68                     69
                      A                      A                      A
 Frequencies --   1512.9516              1517.4089              1528.4324
 Red. masses --      1.1023                 1.0999                 1.0560
 Frc consts  --      1.4867                 1.4921                 1.4534
 IR Inten    --      3.7412                 0.8027                 0.8445

                     70                     71                     72
                      A                      A                      A
 Frequencies --   1534.7429              1547.5030              1550.9362
 Red. masses --      1.0623                 1.0640                 1.0937
 Frc consts  --      1.4742                 1.5012                 1.5500
 IR Inten    --      6.3132                 5.6422                 1.0930

                     73                     74                     75
                      A                      A                      A
 Frequencies --   1554.9768              1777.6310              1831.8334
 Red. masses --      1.1047                 7.7857                 9.2421
 Frc consts  --      1.5738                14.4954                18.2722
 IR Inten    --      3.8420               396.8754               206.4341

                     76                     77                     78
                      A                      A                      A
 Frequencies --   3011.5828              3044.8081              3046.7475
 Red. masses --      1.0756                 1.0723                 1.0371
 Frc consts  --      5.7476                 5.8574                 5.6719
 IR Inten    --     53.1188                 4.0146                20.6386

                     79                     80                     81
                      A                      A                      A
 Frequencies --   3048.1497              3061.1431              3065.0973
 Red. masses --      1.0669                 1.0804                 1.0654
 Frc consts  --      5.8407                 5.9651                 5.8972
 IR Inten    --     36.1105                57.9331                13.8065

                     82                     83                     84
                      A                      A                      A
 Frequencies --   3068.2609              3098.3972              3098.7036
 Red. masses --      1.0575                 1.0617                 1.0975
 Frc consts  --      5.8655                 6.0051                 6.2091
 IR Inten    --     35.4229                26.4672                 6.3417

                     85                     86                     87
                      A                      A                      A
 Frequencies --   3103.9535              3110.6544              3112.4492
 Red. masses --      1.0953                 1.1103                 1.0961
 Frc consts  --      6.2174                 6.3300                 6.2562
 IR Inten    --      3.9149                22.4419                18.6487

                     88                     89                     90
                      A                      A                      A
 Frequencies --   3118.4599              3123.9121              3150.8440
 Red. masses --      1.1027                 1.0969                 1.1094
 Frc consts  --      6.3179                 6.3070                 6.4895
 IR Inten    --     26.8687                53.4020                30.1330

                     91                     92                     93
                      A                      A                      A
 Frequencies --   3183.5476              3552.8907              3689.9859
 Red. masses --      1.0874                 1.0745                 1.0640
 Frc consts  --      6.4934                 7.9913                 8.5355
 IR Inten    --      6.8715                12.2599                39.9477

 - Thermochemistry -
 -------------------
 Temperature   298.150 Kelvin.  Pressure   1.00000 Atm.
 Atom     1 has atomic number  6 and mass  12.00000

 Molecular mass:   214.13174 amu.
 Principal axes and moments of inertia in atomic units:
                           1         2         3
     Eigenvalues --  2265.204483896.128525335.20450
           X            0.99846  -0.05483  -0.00834
           Y            0.05468   0.99835  -0.01740
           Z            0.00928   0.01691   0.99981
 This molecule is an asymmetric top.
 Rotational symmetry number  1.
 Warning -- assumption of classical behavior for rotation
           may cause significant error
 Rotational temperatures (Kelvin)      0.03824     0.02223     0.01623
 Rotational constants (GHZ):           0.79672     0.46321     0.33827
 Zero-point vibrational energy     753646.1 (Joules/Mol)
                                  180.12574 (Kcal/Mol)
 Warning -- explicit consideration of  22 degrees of freedom as
           vibrations may cause significant error
 Vibrational temperatures:     48.47    70.86   106.37   122.20   140.94
          (Kelvin)            168.51   189.71   223.60   238.10   305.91
                              313.38   337.55   370.13   408.37   419.50
                              549.56   575.53   626.51   683.36   708.16
                              754.90   888.57   901.29   964.38   982.47
                             1058.44  1125.54  1128.75  1144.25  1164.24
                             1227.05  1255.57  1317.79  1332.03  1373.89
                             1401.13  1430.79  1446.23  1529.22  1533.87
                             1585.49  1610.06  1623.93  1653.34  1672.28
                             1701.64  1721.66  1726.70  1774.59  1775.21
                             1804.53  1844.13  1861.50  1884.83  1909.19
                             1918.73  1922.63  1964.43  2002.17  2027.05
                             2032.26  2063.10  2069.94  2087.17  2124.49
                             2138.08  2176.80  2183.21  2199.07  2208.15
                             2226.51  2231.45  2237.26  2557.61  2635.60
                             4333.00  4380.80  4383.59  4385.61  4404.30
                             4409.99  4414.54  4457.90  4458.34  4465.90
                             4475.54  4478.12  4486.77  4494.61  4533.36
                             4580.41  5111.82  5309.07

 Zero-point correction=                           0.287049 (Hartree/Particle)
 Thermal correction to Energy=                    0.302791
 Thermal correction to Enthalpy=                  0.303735
 Thermal correction to Gibbs Free Energy=         0.243351
 Sum of electronic and zero-point Energies=           -726.864330
 Sum of electronic and thermal Energies=              -726.848587
 Sum of electronic and thermal Enthalpies=            -726.847643
 Sum of electronic and thermal Free Energies=         -726.908027

                     E (Thermal)             CV                S
                      KCal/Mol        Cal/Mol-Kelvin    Cal/Mol-Kelvin
 Total                  190.004             58.216            127.090
 Electronic               0.000              0.000              0.000
 Translational            0.889              2.981             41.988
 Rotational               0.889              2.981             32.221
 Vibrational            188.227             52.255             52.881
 Vibration     1          0.594              1.983              5.599
 Vibration     2          0.595              1.978              4.847
 Vibration     3          0.599              1.966              4.046
 Vibration     4          0.601              1.960              3.774
 Vibration     5          0.603              1.951              3.495
 Vibration     6          0.608              1.935              3.147
 Vibration     7          0.612              1.921              2.919
 Vibration     8          0.620              1.897              2.605
 Vibration     9          0.624              1.885              2.486
 Vibration    10          0.644              1.822              2.021
 Vibration    11          0.646              1.814              1.977
 Vibration    12          0.654              1.788              1.843
 Vibration    13          0.667              1.751              1.680
 Vibration    14          0.682              1.704              1.510
 Vibration    15          0.687              1.689              1.465
 Vibration    16          0.751              1.509              1.031
 Vibration    17          0.766              1.470              0.963
 Vibration    18          0.796              1.393              0.841
 Vibration    19          0.832              1.306              0.724
 Vibration    20          0.848              1.267              0.678
 Vibration    21          0.880              1.195              0.599
 Vibration    22          0.977              0.995              0.420

                           ! Non-Optimized Parameters !
 Normal termination of Gaussian 16 at Thu Dec 10 15:15:02 2020.

 ----------------------------------------------------------------------
 # B3LYP/6-311++G(d,p) empiricaldispersion=gd3bj scf=xqc pop=npa geom=c
 heck
 ----------------------------------------------------------------------

 ---------------------------------------
 CID_122021983_JID_5223_Energie_neutraal
 ---------------------------------------
 Structure from the checkpoint file:  "JID_5223.chk"
 Charge =  0 Multiplicity = 1

 SCF Done:  E(RB3LYP) =  -727.372185679     A.U. after   15 cycles
 Normal termination of Gaussian 16 at Thu Dec 10 15:21:17 2020.

 ----------------------------------------------------------------------
 # B3LYP/6-311++G(d,p) empiricaldispersion=gd3bj scf=xqc pop=npa geom=c
 heck
 ----------------------------------------------------------------------

 -------------------------------------
 CID_122021983_JID_5223_Energie_kation
 -------------------------------------
 Structure from the checkpoint file:  "JID_5223.chk"
 Charge =  1 Multiplicity = 2

 SCF Done:  E(UB3LYP) =  -727.058882824     A.U. after   28 cycles
 Normal termination of Gaussian 16 at Thu Dec 10 15:37:39 2020.
 Gaussian 16:  ES64L-G16RevA.03 25-Dec-2016

 ----------------------------------------------------------------------
 # B3LYP/6-311++G(d,p) empiricaldispersion=gd3bj scf=xqc pop=npa geom=c
 heck
 ----------------------------------------------------------------------

 ------------------------------------
 CID_122021983_JID_5223_Energie_anion
 ------------------------------------
 Structure from the checkpoint file:  "JID_5223.chk"
 Charge = -1 Multiplicity = 2

                         Standard orientation:
 ---------------------------------------------------------------------
 Center     Atomic      Atomic             Coordinates (Angstroms)
 Number     Number       Type             X           Y           Z
 ---------------------------------------------------------------------
      1          6           0        0.126670    2.858999   -0.470040
      2          6           0       -0.509745    1.489371   -0.714550
      3          6           0       -1.267736    0.992637    0.513869
      4          6           0       -2.666438    1.635308    0.723732
      5          6           0       -3.288974    0.294021    0.260500
      6          7           0       -1.955972   -0.318316    0.345747
      7          6           0       -1.618131   -1.412900   -0.420074
      8          8           0       -2.448287   -2.020827   -1.089394
      9          7           0       -0.276766   -1.798090   -0.387090
     10          6           0        0.517219   -1.755735    0.843353
     11          6           0        1.997636   -2.016055    0.553924
     12          6           0        2.618321   -1.030361   -0.436715
     13          6           0        2.679128    0.387424    0.083067
     14          8           0        2.392214    0.756664    1.203176
     15          8           0        3.106399    1.245883   -0.873939
     16          1           0       -0.630210    3.618955   -0.243735
     17          1           0        0.682582    3.196024   -1.351630
     18          1           0        0.817301    2.814714    0.380203
     19          1           0       -1.201570    1.534367   -1.566320
     20          1           0        0.259268    0.760172   -0.985791
     21          1           0       -0.611356    1.023713    1.391653
     22          1           0       -2.882501    1.883461    1.765060
     23          1           0       -2.878107    2.502941    0.094396
     24          1           0       -3.685213    0.296583   -0.760657
     25          1           0       -4.028992   -0.163858    0.924079
     26          1           0       -0.188318   -2.672089   -0.896410
     27          1           0        0.414646   -0.773156    1.299507
     28          1           0        0.156553   -2.492591    1.577128
     29          1           0        2.542106   -1.978846    1.503449
     30          1           0        2.121742   -3.031618    0.155342
     31          1           0        3.642976   -1.327096   -0.694446
     32          1           0        2.059449   -1.018410   -1.378565
     33          1           0        3.108505    2.131561   -0.465001
 ---------------------------------------------------------------------

 SCF Done:  E(UB3LYP) =  -727.360752439     A.U. after   33 cycles
 SCF Done:  E(UB3LYP) =  -727.360752439     a.u. after    1 cycles

 The electronic state is 2-A.
 Alpha  occ. eigenvalues --  -19.07294 -19.02225 -18.99014 -14.23646 -14.23345
 Alpha  occ. eigenvalues --  -10.21243 -10.19589 -10.12303 -10.11371 -10.11161
 Alpha  occ. eigenvalues --  -10.08947 -10.08658 -10.08381 -10.07581 -10.06464
 Alpha  occ. eigenvalues --   -1.01514  -0.95430  -0.92632  -0.86057  -0.82439
 Alpha  occ. eigenvalues --   -0.70881  -0.69374  -0.66299  -0.62622  -0.59253
 Alpha  occ. eigenvalues --   -0.54685  -0.52923  -0.51503  -0.48637  -0.45582
 Alpha  occ. eigenvalues --   -0.43201  -0.40734  -0.40439  -0.40052  -0.39360
 Alpha  occ. eigenvalues --   -0.38067  -0.36160  -0.35093  -0.34302  -0.33698
 Alpha  occ. eigenvalues --   -0.32292  -0.31340  -0.31011  -0.30613  -0.28417
 Alpha  occ. eigenvalues --   -0.28268  -0.27752  -0.27378  -0.26468  -0.26146
 Alpha  occ. eigenvalues --   -0.25557  -0.25047  -0.23298  -0.22909  -0.19020
 Alpha  occ. eigenvalues --   -0.18221  -0.15915  -0.15205   0.04196
 Alpha virt. eigenvalues --    0.05891   0.06492   0.07795   0.07959   0.08492
 Alpha virt. eigenvalues --    0.08726   0.09345   0.10081   0.10626   0.10976
 Alpha virt. eigenvalues --    0.11244   0.11941   0.12193   0.12746   0.13090

  Beta  occ. eigenvalues --  -19.07250 -19.02211 -18.99011 -14.23645 -14.23338
  Beta  occ. eigenvalues --  -10.21229 -10.19587 -10.12301 -10.11364 -10.11155
  Beta  occ. eigenvalues --  -10.08911 -10.08634 -10.08355 -10.07571 -10.06426
  Beta  occ. eigenvalues --   -1.01452  -0.95425  -0.92581  -0.86049  -0.82425
  Beta  occ. eigenvalues --   -0.70833  -0.69348  -0.66274  -0.62560  -0.59216
  Beta  occ. eigenvalues --   -0.54618  -0.52871  -0.51455  -0.48542  -0.45559
  Beta  occ. eigenvalues --   -0.43179  -0.40683  -0.40416  -0.40013  -0.39321
  Beta  occ. eigenvalues --   -0.38035  -0.36133  -0.35055  -0.34279  -0.33673
  Beta  occ. eigenvalues --   -0.32266  -0.31315  -0.30981  -0.30577  -0.28383
  Beta  occ. eigenvalues --   -0.28234  -0.27705  -0.27339  -0.26430  -0.26107
  Beta  occ. eigenvalues --   -0.25523  -0.25015  -0.23259  -0.22886  -0.18987
  Beta  occ. eigenvalues --   -0.18213  -0.15902  -0.15196
  Beta virt. eigenvalues --    0.06347   0.06952   0.07438   0.08176   0.08411
  Beta virt. eigenvalues --    0.08917   0.09122   0.09753   0.10318   0.11020
  Beta virt. eigenvalues --    0.11354   0.11627   0.12086   0.12410   0.12877

 Mulliken charges and spin densities:
               1          2
     1  C    0.662555  -1.465249
     2  C   -0.263074   0.407222
     3  C   -1.083080   0.831802
     4  C    0.247525  -0.781718
     5  C    0.095775  -0.328996
     6  N    0.122266  -0.025907
     7  C    0.037526   0.072029
     8  O   -0.351263   0.000019
     9  N   -0.218309  -0.018182
    10  C   -0.175635   0.012803
    11  C    0.489780  -0.970754
    12  C   -0.069344  -0.054538
    13  C    0.879972  -1.193647
    14  O   -0.270348   0.055465
    15  O   -0.127767   0.072580
    16  H   -0.288597   0.404521
    17  H   -0.200810   0.367818
    18  H   -0.127985   0.291146
    19  H   -0.048110   0.238903
    20  H    0.555261  -0.396704
    21  H    0.100796   0.107450
    22  H   -0.169755   0.331940
    23  H   -0.033653   0.167343
    24  H    0.133438   0.040005
    25  H    0.063640   0.093207
    26  H    0.259732   0.044936
    27  H    0.155300   0.017545
    28  H   -0.053834   0.233302
    29  H    0.028736   0.160673
    30  H   -0.352597   0.513835
    31  H   -0.825262   1.060013
    32  H    0.099341   0.132908
    33  H   -0.272221   0.578231
 Sum of Mulliken charges =  -1.00000   1.00000

 Dipole moment (field-independent basis, Debye):
    X=             -4.4624    Y=             -1.1318    Z=              1.2981  Tot=              4.7832
 Quadrupole moment (field-independent basis, Debye-Ang):
   XX=           -165.2308   YY=           -151.5028   ZZ=           -122.4006
   XY=             -2.0612   XZ=              0.4059   YZ=             -2.8728

 Summary of Natural Population Analysis:

                                       Natural Population
                Natural  -----------------------------------------------
    Atom  No    Charge         Core      Valence    Rydberg      Total
 -----------------------------------------------------------------------
      C    1   -0.28947      0.99966     2.28379    0.00601     3.28947
      C    2   -0.20134      0.99960     2.19359    0.00815     3.20134
      C    3    0.00541      0.99961     1.98310    0.01188     2.99459
      C    4   -0.19438      0.99960     2.18732    0.00745     3.19438
      C    5   -0.07529      0.99966     2.06487    0.01076     3.07529
      N    6   -0.27436      0.99964     2.76536    0.00936     3.77436
      C    7    0.41375      0.99967     1.56393    0.02265     2.58625
      O    8   -0.33685      0.99988     3.33221    0.00476     4.33685
      N    9   -0.33636      0.99968     2.82782    0.00887     3.83636
      C   10   -0.08977      0.99960     2.07992    0.01025     3.08977
      C   11   -0.19269      0.99963     2.18292    0.01015     3.19269
      C   12   -0.24457      0.99957     2.23506    0.00995     3.24457
      C   13    0.40903      0.99972     1.56557    0.02568     2.59097
      O   14   -0.31237      0.99987     3.30654    0.00596     4.31237
      O   15   -0.34379      0.99988     3.33700    0.00691     4.34379
      H   16    0.09704      0.00000     0.40168    0.00128     0.40296
      H   17    0.10310      0.00000     0.39582    0.00108     0.39690
      H   18    0.10233      0.00000     0.39620    0.00148     0.39767
      H   19    0.09507      0.00000     0.40360    0.00133     0.40493
      H   20    0.10363      0.00000     0.39380    0.00256     0.39637
      H   21    0.09794      0.00000     0.40047    0.00159     0.40206
      H   22    0.10117      0.00000     0.39781    0.00102     0.39883
      H   23    0.10137      0.00000     0.39760    0.00103     0.39863
      H   24    0.09685      0.00000     0.40209    0.00106     0.40315
      H   25    0.09299      0.00000     0.40605    0.00096     0.40701
      H   26    0.18859      0.00000     0.30900    0.00240     0.31141
      H   27    0.10521      0.00000     0.39260    0.00219     0.39479
      H   28    0.08747      0.00000     0.41138    0.00115     0.41253
      H   29    0.10742      0.00000     0.39149    0.00109     0.39258
      H   30    0.09912      0.00000     0.39914    0.00174     0.40088
      H   31    0.12219      0.00000     0.37460    0.00321     0.37781
      H   32    0.11646      0.00000     0.38183    0.00171     0.38354
      H   33    0.24510      0.00000     0.24650    0.00840     0.25490
 =======================================================================
   * Total *    0.00000     14.99527    42.81065    0.19409    58.00000

 Normal termination of Gaussian 16 at Thu Dec 10 15:56:58 2020.
