 Gaussian 16, Revision A.03,

 -----------------------------------------------------------
 # opt freq B3LYP/6-31G(d) empiricaldispersion=gd3bj scf=xqc
 -----------------------------------------------------------

 -------------------------------
 CID_129781417_JID_5965_neutraal
 -------------------------------
 Symbolic Z-matrix:
 Charge =  0 Multiplicity = 1

 SCF Done:  E(RB3LYP) =  -681.254557342     A.U. after   15 cycles
 SCF Done:  E(RB3LYP) =  -681.257724573     A.U. after   13 cycles
 SCF Done:  E(RB3LYP) =  -681.260998871     A.U. after   14 cycles
 SCF Done:  E(RB3LYP) =  -681.261733729     A.U. after   14 cycles
 SCF Done:  E(RB3LYP) =  -681.262324844     A.U. after   13 cycles
 SCF Done:  E(RB3LYP) =  -681.262597733     A.U. after   13 cycles
 SCF Done:  E(RB3LYP) =  -681.262702615     A.U. after   13 cycles
 SCF Done:  E(RB3LYP) =  -681.262754612     A.U. after   11 cycles
 SCF Done:  E(RB3LYP) =  -681.262875177     A.U. after   12 cycles
 SCF Done:  E(RB3LYP) =  -681.263033089     A.U. after   12 cycles
 SCF Done:  E(RB3LYP) =  -681.263575764     A.U. after   11 cycles
 SCF Done:  E(RB3LYP) =  -681.263580937     A.U. after   10 cycles
 SCF Done:  E(RB3LYP) =  -681.263582629     A.U. after   10 cycles
 SCF Done:  E(RB3LYP) =  -681.263583108     A.U. after    9 cycles
 SCF Done:  E(RB3LYP) =  -681.263583289     A.U. after    8 cycles
 Optimization completed.
    -- Stationary point found.
 Normal termination of Gaussian 16 at Thu Dec 10 17:44:29 2020.

 --------------------------------------------------------------------
 #N Geom=AllCheck Guess=TCheck SCRF=Check GenChk RB3LYP/6-31G(d) Freq
 --------------------------------------------------------------------

 Structure from the checkpoint file:  "JID_5965.chk"
 -------------------------------
 CID_129781417_JID_5965_neutraal
 -------------------------------
 Charge =  0 Multiplicity = 1

 SCF Done:  E(RB3LYP) =  -681.263583289     A.U. after    1 cycles

  Exact polarizability: 199.434  -2.994 164.147   0.032   4.792  54.540
 Approx polarizability: 282.980  -8.175 294.697  -0.617  11.559  86.446

                      1                      2                      3
                      A                      A                      A
 Frequencies --     21.2074                64.1861                78.4231
 Red. masses --      3.9503                 2.1417                 3.9385
 Frc consts  --      0.0010                 0.0052                 0.0143
 IR Inten    --      0.5235                 5.7293                 1.5367

                      4                      5                      6
                      A                      A                      A
 Frequencies --    105.8878               125.4758               160.0774
 Red. masses --      5.1794                 1.7761                 4.2558
 Frc consts  --      0.0342                 0.0165                 0.0643
 IR Inten    --      0.0854                 0.3313                 4.8553

                      7                      8                      9
                      A                      A                      A
 Frequencies --    184.3874               205.3764               293.8794
 Red. masses --      2.5523                 3.5697                 3.9269
 Frc consts  --      0.0511                 0.0887                 0.1998
 IR Inten    --      1.7502                 3.1312                 0.5964

                     10                     11                     12
                      A                      A                      A
 Frequencies --    319.2655               338.6529               348.2859
 Red. masses --      5.3061                 4.9554                 5.5986
 Frc consts  --      0.3187                 0.3348                 0.4001
 IR Inten    --     14.9647                 0.7572                 8.9863

                     13                     14                     15
                      A                      A                      A
 Frequencies --    412.8718               424.2839               471.1180
 Red. masses --      3.0534                 5.7121                 2.9629
 Frc consts  --      0.3067                 0.6058                 0.3875
 IR Inten    --      0.2761                 9.0914                54.7146

                     16                     17                     18
                      A                      A                      A
 Frequencies --    522.7517               534.4635               575.5401
 Red. masses --      3.5680                 1.8800                 4.0463
 Frc consts  --      0.5745                 0.3164                 0.7897
 IR Inten    --     37.1717                93.2650                 4.0580

                     19                     20                     21
                      A                      A                      A
 Frequencies --    635.4498               642.3059               661.3171
 Red. masses --      6.3947                 6.2986                 2.2294
 Frc consts  --      1.5214                 1.5310                 0.5745
 IR Inten    --      0.3421                 4.0856               294.7383

                     22                     23                     24
                      A                      A                      A
 Frequencies --    684.4046               709.2114               736.0988
 Red. masses --      2.8766                 2.0748                 3.0775
 Frc consts  --      0.7939                 0.6149                 0.9825
 IR Inten    --    124.1731                22.7778                34.1581

                     25                     26                     27
                      A                      A                      A
 Frequencies --    763.9360               800.0373               864.8400
 Red. masses --      6.1191                 2.4244                 3.6831
 Frc consts  --      2.1040                 0.9143                 1.6231
 IR Inten    --      2.0290                 9.9327                10.7968

                     28                     29                     30
                      A                      A                      A
 Frequencies --    869.5141               947.6566               952.7354
 Red. masses --      1.3626                 2.3026                 2.3530
 Frc consts  --      0.6070                 1.2183                 1.2584
 IR Inten    --      1.7274                21.7196                26.0688

                     31                     32                     33
                      A                      A                      A
 Frequencies --    983.5269               998.9281              1004.2116
 Red. masses --      1.3511                 5.5473                 1.2739
 Frc consts  --      0.7700                 3.2613                 0.7569
 IR Inten    --      0.5301                10.7072                 0.7446

                     34                     35                     36
                      A                      A                      A
 Frequencies --   1011.5006              1024.0286              1064.1259
 Red. masses --      2.0254                 6.2288                 2.2267
 Frc consts  --      1.2209                 3.8484                 1.4856
 IR Inten    --      5.8821                 0.0449                 4.1535

                     37                     38                     39
                      A                      A                      A
 Frequencies --   1069.8728              1116.1734              1152.8949
 Red. masses --      1.4974                 1.6207                 4.1221
 Frc consts  --      1.0099                 1.1896                 3.2281
 IR Inten    --      5.6425                 1.2887                29.3273

                     40                     41                     42
                      A                      A                      A
 Frequencies --   1185.6634              1195.5786              1222.2507
 Red. masses --      2.8715                 1.1007                 1.1511
 Frc consts  --      2.3784                 0.9270                 1.0132
 IR Inten    --     27.4160                 0.0131                 7.7520

                     43                     44                     45
                      A                      A                      A
 Frequencies --   1276.4741              1315.9284              1344.0042
 Red. masses --      4.3809                 3.2466                 3.0642
 Frc consts  --      4.2057                 3.3124                 3.2611
 IR Inten    --      7.2492                48.4467                15.4931

                     46                     47                     48
                      A                      A                      A
 Frequencies --   1362.4602              1377.3286              1436.4875
 Red. masses --      3.2892                 1.7455                 1.3754
 Frc consts  --      3.5974                 1.9509                 1.6722
 IR Inten    --     29.5985                 0.8836                 9.4957

                     49                     50                     51
                      A                      A                      A
 Frequencies --   1465.2470              1489.6331              1492.3350
 Red. masses --      2.7816                 3.3505                 1.1047
 Frc consts  --      3.5185                 4.3804                 1.4495
 IR Inten    --     42.2312                38.4270                 6.0526

                     52                     53                     54
                      A                      A                      A
 Frequencies --   1511.8120              1525.1985              1561.2863
 Red. masses --      1.1666                 3.4120                 2.8362
 Frc consts  --      1.5710                 4.6764                 4.0733
 IR Inten    --     10.1361                24.4534                 1.4991

                     55                     56                     57
                      A                      A                      A
 Frequencies --   1576.2954              1626.1334              1648.2225
 Red. masses --      7.9090                 6.8547                 3.1504
 Frc consts  --     11.5784                10.6796                 5.0425
 IR Inten    --     63.5532                54.0721                33.1052

                     58                     59                     60
                      A                      A                      A
 Frequencies --   1651.3864              1669.3664              3059.9698
 Red. masses --      1.4053                 5.4199                 1.0383
 Frc consts  --      2.2579                 8.8991                 5.7279
 IR Inten    --     11.9881                 0.5324                12.8634

                     61                     62                     63
                      A                      A                      A
 Frequencies --   3121.1688              3154.4701              3183.0654
 Red. masses --      1.0968                 1.1042                 1.0854
 Frc consts  --      6.2951                 6.4739                 6.4796
 IR Inten    --      6.5612                 8.2170                 0.2480

                     64                     65                     66
                      A                      A                      A
 Frequencies --   3193.9852              3207.1038              3227.3623
 Red. masses --      1.0901                 1.0955                 1.0932
 Frc consts  --      6.5522                 6.6387                 6.7090
 IR Inten    --     22.0725                33.7600                 4.3320

                     67                     68                     69
                      A                      A                      A
 Frequencies --   3244.3396              3450.3001              3644.0272
 Red. masses --      1.0921                 1.0500                 1.0949
 Frc consts  --      6.7726                 7.3649                 8.5658
 IR Inten    --      6.3308                 3.6260                34.0912

 - Thermochemistry -
 -------------------
 Temperature   298.150 Kelvin.  Pressure   1.00000 Atm.
 Atom     1 has atomic number  6 and mass  12.00000

 Molecular mass:   202.08546 amu.
 Principal axes and moments of inertia in atomic units:
                           1         2         3
     Eigenvalues --  1777.770564420.370136149.72496
           X            1.00000   0.00200   0.00015
           Y           -0.00200   1.00000   0.00104
           Z           -0.00015  -0.00104   1.00000
 This molecule is an asymmetric top.
 Rotational symmetry number  1.
 Warning -- assumption of classical behavior for rotation
           may cause significant error
 Rotational temperatures (Kelvin)      0.04872     0.01959     0.01408
 Rotational constants (GHZ):           1.01517     0.40828     0.29347
 Zero-point vibrational energy     510194.1 (Joules/Mol)
                                  121.93931 (Kcal/Mol)
 Warning -- explicit consideration of  18 degrees of freedom as
           vibrations may cause significant error
 Vibrational temperatures:     30.51    92.35   112.83   152.35   180.53
          (Kelvin)            230.32   265.29   295.49   422.83   459.35
                              487.25   501.11   594.03   610.45   677.83
                              752.12   768.97   828.07   914.27   924.13
                              951.49   984.71  1020.40  1059.08  1099.13
                             1151.08  1244.31  1251.04  1363.47  1370.77
                             1415.08  1437.23  1444.84  1455.32  1473.35
                             1531.04  1539.31  1605.92  1658.76  1705.91
                             1720.17  1758.55  1836.56  1893.33  1933.72
                             1960.28  1981.67  2066.79  2108.16  2143.25
                             2147.14  2175.16  2194.42  2246.34  2267.94
                             2339.64  2371.42  2375.98  2401.85  4402.61
                             4490.67  4538.58  4579.72  4595.43  4614.31
                             4643.45  4667.88  4964.21  5242.94

 Zero-point correction=                           0.194323 (Hartree/Particle)
 Thermal correction to Energy=                    0.207327
 Thermal correction to Enthalpy=                  0.208271
 Thermal correction to Gibbs Free Energy=         0.153370
 Sum of electronic and zero-point Energies=           -681.069261
 Sum of electronic and thermal Energies=              -681.056256
 Sum of electronic and thermal Enthalpies=            -681.055312
 Sum of electronic and thermal Free Energies=         -681.110214

                     E (Thermal)             CV                S
                      KCal/Mol        Cal/Mol-Kelvin    Cal/Mol-Kelvin
 Total                  130.100             49.064            115.550
 Electronic               0.000              0.000              0.000
 Translational            0.889              2.981             41.815
 Rotational               0.889              2.981             32.247
 Vibrational            128.322             43.102             41.488
 Vibration     1          0.593              1.985              6.518
 Vibration     2          0.597              1.971              4.324
 Vibration     3          0.600              1.964              3.930
 Vibration     4          0.605              1.945              3.343
 Vibration     5          0.610              1.928              3.014
 Vibration     6          0.622              1.891              2.549
 Vibration     7          0.631              1.861              2.284
 Vibration     8          0.640              1.832              2.084
 Vibration     9          0.689              1.685              1.452
 Vibration    10          0.705              1.637              1.314
 Vibration    11          0.719              1.598              1.218
 Vibration    12          0.726              1.579              1.174
 Vibration    13          0.777              1.442              0.917
 Vibration    14          0.786              1.417              0.878
 Vibration    15          0.828              1.314              0.734
 Vibration    16          0.878              1.200              0.604
 Vibration    17          0.889              1.174              0.577
 Vibration    18          0.932              1.084              0.494

                           ! Non-Optimized Parameters !
 Normal termination of Gaussian 16 at Thu Dec 10 17:51:59 2020.

 ----------------------------------------------------------------------
 # B3LYP/6-311++G(d,p) empiricaldispersion=gd3bj scf=xqc pop=npa geom=c
 heck
 ----------------------------------------------------------------------

 ---------------------------------------
 CID_129781417_JID_5965_Energie_neutraal
 ---------------------------------------
 Structure from the checkpoint file:  "JID_5965.chk"
 Charge =  0 Multiplicity = 1

 SCF Done:  E(RB3LYP) =  -681.447193523     A.U. after   16 cycles
 Normal termination of Gaussian 16 at Thu Dec 10 17:55:24 2020.

 ----------------------------------------------------------------------
 # B3LYP/6-311++G(d,p) empiricaldispersion=gd3bj scf=xqc pop=npa geom=c
 heck
 ----------------------------------------------------------------------

 -------------------------------------
 CID_129781417_JID_5965_Energie_kation
 -------------------------------------
 Structure from the checkpoint file:  "JID_5965.chk"
 Charge =  1 Multiplicity = 2

 SCF Done:  E(UB3LYP) =  -681.148829007     A.U. after   30 cycles
 Normal termination of Gaussian 16 at Thu Dec 10 18:04:26 2020.
 Gaussian 16:  ES64L-G16RevA.03 25-Dec-2016

 ----------------------------------------------------------------------
 # B3LYP/6-311++G(d,p) empiricaldispersion=gd3bj scf=xqc pop=npa geom=c
 heck
 ----------------------------------------------------------------------

 ------------------------------------
 CID_129781417_JID_5965_Energie_anion
 ------------------------------------
 Structure from the checkpoint file:  "JID_5965.chk"
 Charge = -1 Multiplicity = 2

                         Standard orientation:
 ---------------------------------------------------------------------
 Center     Atomic      Atomic             Coordinates (Angstroms)
 Number     Number       Type             X           Y           Z
 ---------------------------------------------------------------------
      1          6           0       -3.584245   -1.229616    0.083885
      2          6           0       -2.100276   -1.178621    0.053305
      3          6           0       -1.180396   -0.155319    0.039349
      4          6           0        0.098407   -0.819598    0.040746
      5          7           0       -0.062853   -2.129234    0.046937
      6          8           0       -1.443651   -2.352687    0.057451
      7          6           0        1.462767   -0.261358    0.018755
      8          6           0        2.551104   -1.115703   -0.229760
      9          6           0        3.849604   -0.618247   -0.239910
     10          6           0        4.085653    0.738621   -0.004327
     11          6           0        3.010681    1.591809    0.242027
     12          6           0        1.706021    1.099711    0.254323
     13          7           0       -1.370270    1.229491    0.054659
     14          7           0       -2.541755    1.596222   -0.235130
     15          7           0       -2.718366    2.929928   -0.083654
     16          1           0       -4.005435   -1.061386   -0.914153
     17          1           0       -3.917216   -2.206132    0.445896
     18          1           0       -3.974843   -0.438830    0.730261
     19          1           0        2.362241   -2.167620   -0.413276
     20          1           0        4.680617   -1.290315   -0.434835
     21          1           0        5.100597    1.126189   -0.014696
     22          1           0        3.185542    2.648037    0.427701
     23          1           0        0.870949    1.762669    0.442230
     24          1           0       -1.853718    3.472974   -0.061487
     25          1           0       -3.442732    3.280991   -0.697282
 ---------------------------------------------------------------------

 SCF Done:  E(UB3LYP) =  -681.454571476     A.U. after   33 cycles
 SCF Done:  E(UB3LYP) =  -681.454571475     a.u. after    1 cycles

 The electronic state is 2-A.
 Alpha  occ. eigenvalues --  -19.06715 -14.21097 -14.19277 -14.18987 -14.16057
 Alpha  occ. eigenvalues --  -10.08877 -10.06734 -10.05454 -10.05320 -10.05284
 Alpha  occ. eigenvalues --  -10.05279 -10.05246 -10.05038 -10.04758 -10.03838
 Alpha  occ. eigenvalues --   -1.00111  -0.89554  -0.75333  -0.74031  -0.72058
 Alpha  occ. eigenvalues --   -0.65796  -0.62313  -0.62194  -0.59000  -0.51980
 Alpha  occ. eigenvalues --   -0.50079  -0.48243  -0.44503  -0.42726  -0.39634
 Alpha  occ. eigenvalues --   -0.38895  -0.35091  -0.34895  -0.34106  -0.32504
 Alpha  occ. eigenvalues --   -0.31156  -0.29920  -0.29289  -0.28595  -0.27434
 Alpha  occ. eigenvalues --   -0.27206  -0.26185  -0.25087  -0.23120  -0.22507
 Alpha  occ. eigenvalues --   -0.21559  -0.18673  -0.16680  -0.15427  -0.13390
 Alpha  occ. eigenvalues --   -0.11129  -0.08688  -0.07682   0.04995
 Alpha virt. eigenvalues --    0.08124   0.08132   0.08879   0.09469   0.09940
 Alpha virt. eigenvalues --    0.10940   0.11057   0.12243   0.13055   0.13467
 Alpha virt. eigenvalues --    0.13931   0.14731   0.15246   0.15663   0.16121

  Beta  occ. eigenvalues --  -19.06753 -14.21070 -14.19160 -14.18003 -14.15845
  Beta  occ. eigenvalues --  -10.08738 -10.06662 -10.05464 -10.05277 -10.05266
  Beta  occ. eigenvalues --  -10.05249 -10.05218 -10.04925 -10.04748 -10.03771
  Beta  occ. eigenvalues --   -1.00107  -0.88453  -0.75121  -0.73708  -0.71954
  Beta  occ. eigenvalues --   -0.65578  -0.62218  -0.62002  -0.58827  -0.51333
  Beta  occ. eigenvalues --   -0.49797  -0.48100  -0.44323  -0.42457  -0.39447
  Beta  occ. eigenvalues --   -0.38788  -0.34929  -0.34528  -0.33898  -0.32414
  Beta  occ. eigenvalues --   -0.31001  -0.29874  -0.29017  -0.28463  -0.27274
  Beta  occ. eigenvalues --   -0.26431  -0.24808  -0.24364  -0.22804  -0.22401
  Beta  occ. eigenvalues --   -0.21132  -0.18111  -0.16562  -0.14445  -0.13083
  Beta  occ. eigenvalues --   -0.10665  -0.07789  -0.06371
  Beta virt. eigenvalues --    0.08064   0.08810   0.08870   0.09426   0.09910
  Beta virt. eigenvalues --    0.10836   0.10986   0.12124   0.12708   0.13083
  Beta virt. eigenvalues --    0.13581   0.13923   0.14714   0.15630   0.16066

 Mulliken charges and spin densities:
               1          2
     1  C   -0.415356   0.012394
     2  C    0.054126   0.047640
     3  C   -0.133117  -0.005036
     4  C   -0.122687   0.061976
     5  N   -0.465436   0.011197
     6  O    0.228521  -0.014637
     7  C    1.298135  -0.015919
     8  C    0.182202   0.030193
     9  C   -0.522468   0.029764
    10  C   -0.312747   0.070533
    11  C   -0.355705  -0.000622
    12  C   -1.328793   0.110564
    13  N   -0.441561   0.090380
    14  N    0.249200   0.375453
    15  N   -0.400780   0.108007
    16  H    0.141821   0.017585
    17  H    0.123566  -0.002396
    18  H    0.187417  -0.002123
    19  H    0.187553   0.000628
    20  H    0.121253   0.000247
    21  H    0.106093  -0.009657
    22  H    0.117954   0.024925
    23  H    0.205169  -0.031394
    24  H    0.121554   0.046282
    25  H    0.174089   0.044015
 Sum of Mulliken charges =  -1.00000   1.00000

 Dipole moment (field-independent basis, Debye):
    X=              1.1341    Y=             -0.1456    Z=             -0.3464  Tot=              1.1947
 Quadrupole moment (field-independent basis, Debye-Ang):
   XX=           -115.5374   YY=           -110.2329   ZZ=            -97.5412
   XY=              5.2784   XZ=              0.6985   YZ=             -0.1784

 Summary of Natural Population Analysis:

                                       Natural Population
                Natural  -----------------------------------------------
    Atom  No    Charge         Core      Valence    Rydberg      Total
 -----------------------------------------------------------------------
      C    1   -0.30820      0.99963     2.30306    0.00550     3.30820
      C    2    0.17929      0.99946     1.80765    0.01359     2.82071
      C    3    0.02195      0.99937     1.96410    0.01458     2.97805
      C    4    0.08438      0.99953     1.89905    0.01703     2.91562
      N    5   -0.09527      0.99967     2.58417    0.01142     3.59527
      O    6   -0.17816      0.99985     3.16907    0.00924     4.17816
      C    7   -0.02091      0.99949     2.01109    0.01033     3.02091
      C    8   -0.08621      0.99954     2.07875    0.00791     3.08621
      C    9   -0.10941      0.99957     2.10082    0.00901     3.10941
      C   10   -0.09245      0.99957     2.08349    0.00939     3.09245
      C   11   -0.11322      0.99957     2.10530    0.00835     3.11322
      C   12   -0.08064      0.99954     2.07119    0.00991     3.08064
      N   13   -0.16057      0.99969     2.64190    0.01899     3.66057
      N   14    0.09916      0.99975     2.37175    0.02934     3.40084
      N   15   -0.29880      0.99977     2.78498    0.01406     3.79880
      H   16    0.10631      0.00000     0.39165    0.00203     0.39369
      H   17    0.09723      0.00000     0.40162    0.00114     0.40277
      H   18    0.11553      0.00000     0.38270    0.00177     0.38447
      H   19    0.10661      0.00000     0.39234    0.00105     0.39339
      H   20    0.09203      0.00000     0.40701    0.00096     0.40797
      H   21    0.09005      0.00000     0.40893    0.00102     0.40995
      H   22    0.09361      0.00000     0.40553    0.00086     0.40639
      H   23    0.12009      0.00000     0.37833    0.00158     0.37991
      H   24    0.16460      0.00000     0.33026    0.00514     0.33540
      H   25    0.17299      0.00000     0.32379    0.00322     0.32701
 =======================================================================
   * Total *    0.00000     14.99400    37.79854    0.20745    53.00000

 Normal termination of Gaussian 16 at Thu Dec 10 18:14:35 2020.
