 Gaussian 16, Revision A.03,

 -----------------------------------------------------------
 # opt freq B3LYP/6-31G(d) empiricaldispersion=gd3bj scf=xqc
 -----------------------------------------------------------

 -------------------------------
 CID_117340570_JID_7490_neutraal
 -------------------------------
 Symbolic Z-matrix:
 Charge =  0 Multiplicity = 1

 SCF Done:  E(RB3LYP) =  -770.037992669     A.U. after   15 cycles
 SCF Done:  E(RB3LYP) =  -770.043122358     A.U. after   13 cycles
 SCF Done:  E(RB3LYP) =  -770.043616278     A.U. after   12 cycles
 SCF Done:  E(RB3LYP) =  -770.044276963     A.U. after   13 cycles
 SCF Done:  E(RB3LYP) =  -770.044503777     A.U. after   12 cycles
 SCF Done:  E(RB3LYP) =  -770.044842443     A.U. after   12 cycles
 SCF Done:  E(RB3LYP) =  -770.045432214     A.U. after   13 cycles
 SCF Done:  E(RB3LYP) =  -770.046472536     A.U. after   13 cycles
 SCF Done:  E(RB3LYP) =  -770.048442466     A.U. after   15 cycles
 SCF Done:  E(RB3LYP) =  -770.049930209     A.U. after   13 cycles
 SCF Done:  E(RB3LYP) =  -770.051184701     A.U. after   10 cycles
 SCF Done:  E(RB3LYP) =  -770.051190835     A.U. after    9 cycles
 SCF Done:  E(RB3LYP) =  -770.051192479     A.U. after    8 cycles
 SCF Done:  E(RB3LYP) =  -770.051192671     A.U. after    8 cycles
 SCF Done:  E(RB3LYP) =  -770.051192703     A.U. after    6 cycles
 Optimization completed.
    -- Stationary point found.
 Normal termination of Gaussian 16 at Fri Dec 11 12:20:50 2020.

 --------------------------------------------------------------------
 #N Geom=AllCheck Guess=TCheck SCRF=Check GenChk RB3LYP/6-31G(d) Freq
 --------------------------------------------------------------------

 Structure from the checkpoint file:  "JID_7490.chk"
 -------------------------------
 CID_117340570_JID_7490_neutraal
 -------------------------------
 Charge =  0 Multiplicity = 1

 SCF Done:  E(RB3LYP) =  -770.051192703     A.U. after    2 cycles

  Exact polarizability: 182.094   0.846 158.358  -7.629  -2.121 110.552
 Approx polarizability: 265.047   1.341 246.473 -13.069  -6.719 163.299

                      1                      2                      3
                      A                      A                      A
 Frequencies --     47.2419                50.1916                65.9960
 Red. masses --      7.0034                 3.6774                 5.5197
 Frc consts  --      0.0092                 0.0055                 0.0142
 IR Inten    --      1.2266                 0.5275                 0.6894

                      4                      5                      6
                      A                      A                      A
 Frequencies --     89.5972                99.3068               116.9689
 Red. masses --      3.4459                 2.9090                 4.2911
 Frc consts  --      0.0163                 0.0169                 0.0346
 IR Inten    --      3.2782                 0.4097                 0.0395

                      7                      8                      9
                      A                      A                      A
 Frequencies --    148.6513               190.8462               210.4577
 Red. masses --      3.5536                 3.1846                 1.4187
 Frc consts  --      0.0463                 0.0683                 0.0370
 IR Inten    --      0.4301                 0.8376                 0.0901

                     10                     11                     12
                      A                      A                      A
 Frequencies --    217.9386               236.8896               244.7831
 Red. masses --      3.0334                 1.1930                 1.4392
 Frc consts  --      0.0849                 0.0394                 0.0508
 IR Inten    --      0.5821                 0.5372                 0.2653

                     13                     14                     15
                      A                      A                      A
 Frequencies --    267.6997               278.2235               291.9736
 Red. masses --      2.5152                 2.2237                 2.3356
 Frc consts  --      0.1062                 0.1014                 0.1173
 IR Inten    --      0.3540                 0.2961                 0.9514

                     16                     17                     18
                      A                      A                      A
 Frequencies --    302.8808               305.1655               348.2224
 Red. masses --      2.5836                 2.1927                 5.9249
 Frc consts  --      0.1396                 0.1203                 0.4233
 IR Inten    --      0.4170                 0.1805                 3.0127

                     19                     20                     21
                      A                      A                      A
 Frequencies --    408.1203               416.6360               441.3524
 Red. masses --      4.4869                 4.3018                 2.8209
 Frc consts  --      0.4403                 0.4400                 0.3237
 IR Inten    --      0.2923                 1.1930                 2.5168

                     22                     23                     24
                      A                      A                      A
 Frequencies --    472.9572               530.0662               567.5183
 Red. masses --      5.4369                 3.6361                 3.8761
 Frc consts  --      0.7166                 0.6019                 0.7355
 IR Inten    --     23.6394                 2.4523                 0.2095

                     25                     26                     27
                      A                      A                      A
 Frequencies --    572.4910               624.2900               640.7718
 Red. masses --      4.4466                 3.6992                 2.7608
 Frc consts  --      0.8586                 0.8494                 0.6679
 IR Inten    --      4.9897                13.8282                31.3804

                     28                     29                     30
                      A                      A                      A
 Frequencies --    642.1094               679.2646               757.2484
 Red. masses --      1.7035                 3.6302                 2.0984
 Frc consts  --      0.4138                 0.9869                 0.7090
 IR Inten    --     53.6134                17.1944                 7.7396

                     31                     32                     33
                      A                      A                      A
 Frequencies --    759.5091               775.3903               803.9420
 Red. masses --      2.6673                 4.4287                 2.2147
 Frc consts  --      0.9066                 1.5688                 0.8433
 IR Inten    --     15.4660                45.6956                10.0809

                     34                     35                     36
                      A                      A                      A
 Frequencies --    807.4961               833.6184               881.0779
 Red. masses --      1.4351                 2.3558                 1.4232
 Frc consts  --      0.5513                 0.9646                 0.6509
 IR Inten    --      0.3546                 8.4863                 3.5149

                     37                     38                     39
                      A                      A                      A
 Frequencies --    902.2404               908.7824               921.3896
 Red. masses --      4.0075                 2.6845                 3.1590
 Frc consts  --      1.9221                 1.3062                 1.5801
 IR Inten    --      6.8715                 0.6852                 8.8421

                     40                     41                     42
                      A                      A                      A
 Frequencies --    947.6769               957.7906               979.2302
 Red. masses --      1.1741                 1.2514                 1.5061
 Frc consts  --      0.6213                 0.6764                 0.8509
 IR Inten    --      1.0822                 0.3373                 0.1334

                     43                     44                     45
                      A                      A                      A
 Frequencies --    992.0624               996.2191              1078.2831
 Red. masses --      1.4163                 2.6532                 1.3744
 Frc consts  --      0.8213                 1.5514                 0.9415
 IR Inten    --      4.1935                 8.0079                27.8330

                     46                     47                     48
                      A                      A                      A
 Frequencies --   1086.1739              1104.0404              1107.3148
 Red. masses --      1.8587                 2.9626                 1.6427
 Frc consts  --      1.2920                 2.1276                 1.1868
 IR Inten    --     25.0154                62.4583                19.7335

                     49                     50                     51
                      A                      A                      A
 Frequencies --   1130.1480              1141.5807              1171.9374
 Red. masses --      1.9826                 2.4219                 2.5189
 Frc consts  --      1.4920                 1.8596                 2.0383
 IR Inten    --      3.2624                 0.4818               175.2967

                     52                     53                     54
                      A                      A                      A
 Frequencies --   1179.0635              1186.0766              1194.0554
 Red. masses --      1.9121                 1.2712                 1.4952
 Frc consts  --      1.5661                 1.0536                 1.2560
 IR Inten    --     64.6191                 0.8117                18.4999

                     55                     56                     57
                      A                      A                      A
 Frequencies --   1218.0509              1220.5553              1237.5019
 Red. masses --      1.4246                 1.3365                 1.6459
 Frc consts  --      1.2453                 1.1731                 1.4851
 IR Inten    --      5.8452                 0.5982                 6.9323

                     58                     59                     60
                      A                      A                      A
 Frequencies --   1247.3892              1276.6139              1298.6995
 Red. masses --      2.2621                 2.1025                 2.7966
 Frc consts  --      2.0738                 2.0189                 2.7791
 IR Inten    --     17.6095                34.6116               175.8752

                     61                     62                     63
                      A                      A                      A
 Frequencies --   1332.4690              1366.1520              1372.8823
 Red. masses --      3.9295                 4.1074                 1.2939
 Frc consts  --      4.1106                 4.5166                 1.4368
 IR Inten    --      4.1153                43.0124                 3.8172

                     64                     65                     66
                      A                      A                      A
 Frequencies --   1405.2438              1412.2470              1418.8932
 Red. masses --      2.6853                 1.4891                 1.2867
 Frc consts  --      3.1243                 1.7499                 1.5263
 IR Inten    --     87.9152                11.1060                 0.4948

                     67                     68                     69
                      A                      A                      A
 Frequencies --   1438.8964              1477.4907              1493.4604
 Red. masses --      1.2344                 1.0894                 1.6133
 Frc consts  --      1.5058                 1.4012                 2.1201
 IR Inten    --      3.4812                 4.1282                46.6764

                     70                     71                     72
                      A                      A                      A
 Frequencies --   1505.0619              1513.6648              1517.3719
 Red. masses --      2.0339                 1.3469                 1.0717
 Frc consts  --      2.7145                 1.8183                 1.4538
 IR Inten    --      4.1910                 9.2522                 3.4155

                     73                     74                     75
                      A                      A                      A
 Frequencies --   1520.1871              1521.5629              1532.6084
 Red. masses --      1.6437                 1.0481                 1.0857
 Frc consts  --      2.2381                 1.4297                 1.5025
 IR Inten    --     26.4553                 4.8432                 3.4340

                     76                     77                     78
                      A                      A                      A
 Frequencies --   1534.8452              1538.9582              1551.3995
 Red. masses --      1.1242                 1.1093                 1.0773
 Frc consts  --      1.5603                 1.5479                 1.5276
 IR Inten    --      6.0036                 9.1749                 4.6482

                     79                     80                     81
                      A                      A                      A
 Frequencies --   1640.0050              1655.5639              1820.5659
 Red. masses --      5.7134                 6.1982                 9.3073
 Frc consts  --      9.0538                10.0094                18.1755
 IR Inten    --     54.8019                 9.7424               269.5793

                     82                     83                     84
                      A                      A                      A
 Frequencies --   3025.8889              3049.0500              3054.7738
 Red. masses --      1.0345                 1.0387                 1.0405
 Frc consts  --      5.5809                 5.6892                 5.7210
 IR Inten    --     63.7903                31.9303                41.7213

                     85                     86                     87
                      A                      A                      A
 Frequencies --   3085.0281              3101.2647              3107.3155
 Red. masses --      1.1066                 1.0824                 1.1019
 Frc consts  --      6.2054                 6.1334                 6.2684
 IR Inten    --     39.4313                 9.4488                39.5408

                     88                     89                     90
                      A                      A                      A
 Frequencies --   3121.0559              3153.5707              3156.6825
 Red. masses --      1.0980                 1.0993                 1.0998
 Frc consts  --      6.3017                 6.4410                 6.4572
 IR Inten    --     30.6614                 2.0201                28.0917

                     91                     92                     93
                      A                      A                      A
 Frequencies --   3158.8732              3163.2666              3166.7618
 Red. masses --      1.0987                 1.0523                 1.0553
 Frc consts  --      6.4596                 6.2040                 6.2355
 IR Inten    --     33.3771                 6.9113                 5.8488

                     94                     95                     96
                      A                      A                      A
 Frequencies --   3190.1395              3209.4014              3232.8630
 Red. masses --      1.0866                 1.0935                 1.0917
 Frc consts  --      6.5154                 6.6361                 6.7226
 IR Inten    --      7.5065                20.8897                13.5849

                     97                     98                     99
                      A                      A                      A
 Frequencies --   3248.7703              3261.2192              3687.0310
 Red. masses --      1.1206                 1.1177                 1.0639
 Frc consts  --      6.9684                 7.0040                 8.5211
 IR Inten    --      0.0154                 5.8956                58.2362

 - Thermochemistry -
 -------------------
 Temperature   298.150 Kelvin.  Pressure   1.00000 Atm.
 Atom     1 has atomic number  6 and mass  12.00000

 Molecular mass:   234.12559 amu.
 Principal axes and moments of inertia in atomic units:
                           1         2         3
     Eigenvalues --  2402.742754984.609465845.32066
           X            0.99985  -0.01241  -0.01216
           Y            0.01230   0.99988  -0.00913
           Z            0.01227   0.00898   0.99988
 This molecule is an asymmetric top.
 Rotational symmetry number  1.
 Warning -- assumption of classical behavior for rotation
           may cause significant error
 Rotational temperatures (Kelvin)      0.03605     0.01738     0.01482
 Rotational constants (GHZ):           0.75112     0.36206     0.30875
 Zero-point vibrational energy     779679.6 (Joules/Mol)
                                  186.34790 (Kcal/Mol)
 Warning -- explicit consideration of  25 degrees of freedom as
           vibrations may cause significant error
 Vibrational temperatures:     67.97    72.21    94.95   128.91   142.88
          (Kelvin)            168.29   213.88   274.59   302.80   313.57
                              340.83   352.19   385.16   400.30   420.08
                              435.78   439.07   501.01   587.19   599.45
                              635.01   680.48   762.65   816.53   823.69
                              898.21   921.93   923.85   977.31  1089.51
                             1092.76  1115.61  1156.69  1161.81  1199.39
                             1267.67  1298.12  1307.54  1325.67  1363.50
                             1378.05  1408.89  1427.36  1433.34  1551.41
                             1562.76  1588.47  1593.18  1626.03  1642.48
                             1686.16  1696.41  1706.50  1717.98  1752.50
                             1756.11  1780.49  1794.71  1836.76  1868.54
                             1917.13  1965.59  1975.27  2021.83  2031.91
                             2041.47  2070.25  2125.78  2148.76  2165.45
                             2177.83  2183.16  2187.21  2189.19  2205.08
                             2208.30  2214.22  2232.12  2359.60  2381.99
                             2619.39  4353.58  4386.90  4395.14  4438.67
                             4462.03  4470.73  4490.50  4537.28  4541.76
                             4544.91  4551.24  4556.26  4589.90  4617.61
                             4651.37  4674.26  4692.17  5304.82

 Zero-point correction=                           0.296964 (Hartree/Particle)
 Thermal correction to Energy=                    0.313832
 Thermal correction to Enthalpy=                  0.314776
 Thermal correction to Gibbs Free Energy=         0.252941
 Sum of electronic and zero-point Energies=           -769.754228
 Sum of electronic and thermal Energies=              -769.737360
 Sum of electronic and thermal Enthalpies=            -769.736416
 Sum of electronic and thermal Free Energies=         -769.798252

                     E (Thermal)             CV                S
                      KCal/Mol        Cal/Mol-Kelvin    Cal/Mol-Kelvin
 Total                  196.933             64.662            130.143
 Electronic               0.000              0.000              0.000
 Translational            0.889              2.981             42.254
 Rotational               0.889              2.981             32.615
 Vibrational            195.155             58.700             55.275
 Vibration     1          0.595              1.979              4.930
 Vibration     2          0.595              1.978              4.810
 Vibration     3          0.597              1.970              4.269
 Vibration     4          0.602              1.957              3.669
 Vibration     5          0.604              1.950              3.468
 Vibration     6          0.608              1.935              3.150
 Vibration     7          0.618              1.904              2.689
 Vibration     8          0.634              1.853              2.220
 Vibration     9          0.643              1.825              2.040
 Vibration    10          0.646              1.814              1.976
 Vibration    11          0.656              1.784              1.826
 Vibration    12          0.660              1.771              1.768
 Vibration    13          0.673              1.732              1.611
 Vibration    14          0.679              1.714              1.545
 Vibration    15          0.687              1.689              1.462
 Vibration    16          0.694              1.668              1.401
 Vibration    17          0.696              1.664              1.388
 Vibration    18          0.726              1.579              1.174
 Vibration    19          0.773              1.453              0.933
 Vibration    20          0.780              1.434              0.903
 Vibration    21          0.801              1.380              0.822
 Vibration    22          0.830              1.310              0.729
 Vibration    23          0.885              1.183              0.587
 Vibration    24          0.923              1.102              0.509
 Vibration    25          0.929              1.091              0.499

 Optimization completed.
    -- Stationary point found.
 Normal termination of Gaussian 16 at Fri Dec 11 12:36:55 2020.

 ----------------------------------------------------------------------
 # B3LYP/6-311++G(d,p) empiricaldispersion=gd3bj scf=xqc pop=npa geom=c
 heck
 ----------------------------------------------------------------------

 ---------------------------------------
 CID_117340570_JID_7490_Energie_neutraal
 ---------------------------------------
 Structure from the checkpoint file:  "JID_7490.chk"
 Charge =  0 Multiplicity = 1

 SCF Done:  E(RB3LYP) =  -770.269528722     A.U. after   15 cycles
 Normal termination of Gaussian 16 at Fri Dec 11 12:47:01 2020.

 ----------------------------------------------------------------------
 # B3LYP/6-311++G(d,p) empiricaldispersion=gd3bj scf=xqc pop=npa geom=c
 heck
 ----------------------------------------------------------------------

 -------------------------------------
 CID_117340570_JID_7490_Energie_kation
 -------------------------------------
 Structure from the checkpoint file:  "JID_7490.chk"
 Charge =  1 Multiplicity = 2

 SCF Done:  E(UB3LYP) =  -769.978042969     A.U. after   25 cycles
 Normal termination of Gaussian 16 at Fri Dec 11 13:05:47 2020.
 Gaussian 16:  ES64L-G16RevA.03 25-Dec-2016

 ----------------------------------------------------------------------
 # B3LYP/6-311++G(d,p) empiricaldispersion=gd3bj scf=xqc pop=npa geom=c
 heck
 ----------------------------------------------------------------------

 ------------------------------------
 CID_117340570_JID_7490_Energie_anion
 ------------------------------------
 Structure from the checkpoint file:  "JID_7490.chk"
 Charge = -1 Multiplicity = 2

                         Standard orientation:
 ---------------------------------------------------------------------
 Center     Atomic      Atomic             Coordinates (Angstroms)
 Number     Number       Type             X           Y           Z
 ---------------------------------------------------------------------
      1          6           0        0.807973   -2.366998   -0.957040
      2          6           0        0.384115   -1.575385    0.293741
      3          6           0        1.023522   -2.140631    1.575193
      4          6           0        0.613818   -0.077401    0.134708
      5          6           0       -0.459047    0.833243    0.136770
      6          6           0       -0.235382    2.203617   -0.055194
      7          6           0        1.051538    2.690496   -0.232253
      8          6           0        2.135119    1.813835   -0.219811
      9          6           0        1.915294    0.445817   -0.039909
     10          8           0        2.939221   -0.466181   -0.023152
     11          6           0        4.264383   -0.001849   -0.204448
     12          6           0       -1.876660    0.366911    0.330778
     13          6           0       -2.318981   -0.168611    1.690377
     14          6           0       -2.808675    1.163998    1.243609
     15          6           0       -2.585799   -0.265825   -0.822865
     16          8           0       -3.710703   -0.724270   -0.781365
     17          8           0       -1.847899   -0.277896   -1.959533
     18          1           0        1.886889   -2.311532   -1.116837
     19          1           0        0.303512   -1.972456   -1.844492
     20          1           0        0.529534   -3.421688   -0.843435
     21          1           0       -0.693244   -1.720980    0.398526
     22          1           0        2.112677   -2.068933    1.540597
     23          1           0        0.673455   -1.596319    2.459840
     24          1           0        0.749851   -3.195365    1.697322
     25          1           0       -1.082716    2.881524   -0.069471
     26          1           0        1.221599    3.753071   -0.380409
     27          1           0        3.137991    2.200245   -0.353365
     28          1           0        4.560146    0.696691    0.589275
     29          1           0        4.899060   -0.888594   -0.159679
     30          1           0        4.391262    0.486994   -1.179217
     31          1           0       -3.015591   -1.000166    1.678167
     32          1           0       -1.547268   -0.206812    2.452532
     33          1           0       -2.386400    2.050984    1.703976
     34          1           0       -3.842690    1.243668    0.926015
     35          1           0       -2.410332   -0.710868   -2.628892
 ---------------------------------------------------------------------

 SCF Done:  E(UB3LYP) =  -770.255648318     A.U. after   33 cycles
 SCF Done:  E(UB3LYP) =  -770.255648318     a.u. after    1 cycles

 The electronic state is 2-A.
 Alpha  occ. eigenvalues --  -19.08134 -19.05525 -19.02604 -10.22117 -10.13830
 Alpha  occ. eigenvalues --  -10.12118 -10.12053 -10.10300 -10.10173 -10.09338
 Alpha  occ. eigenvalues --  -10.08518 -10.08340 -10.07924 -10.07496 -10.07332
 Alpha  occ. eigenvalues --  -10.06219 -10.05458  -1.02296  -0.97205  -0.93266
 Alpha  occ. eigenvalues --   -0.80353  -0.75905  -0.70747  -0.66216  -0.64733
 Alpha  occ. eigenvalues --   -0.60336  -0.59739  -0.58592  -0.53811  -0.52711
 Alpha  occ. eigenvalues --   -0.50879  -0.47873  -0.47520  -0.44598  -0.41908
 Alpha  occ. eigenvalues --   -0.40021  -0.39955  -0.38521  -0.38213  -0.37224
 Alpha  occ. eigenvalues --   -0.36506  -0.35189  -0.34372  -0.33758  -0.32614
 Alpha  occ. eigenvalues --   -0.31874  -0.31272  -0.29521  -0.29144  -0.29080
 Alpha  occ. eigenvalues --   -0.27501  -0.26942  -0.26089  -0.24582  -0.24353
 Alpha  occ. eigenvalues --   -0.23964  -0.23448  -0.22592  -0.22133  -0.20819
 Alpha  occ. eigenvalues --   -0.19990  -0.15086  -0.12839   0.04275
 Alpha virt. eigenvalues --    0.05927   0.06631   0.06958   0.07449   0.07842
 Alpha virt. eigenvalues --    0.08278   0.08556   0.09004   0.09133   0.09754
 Alpha virt. eigenvalues --    0.10201   0.10558   0.10997   0.11524   0.12519

  Beta  occ. eigenvalues --  -19.08097 -19.05515 -19.02594 -10.22115 -10.13831
  Beta  occ. eigenvalues --  -10.12114 -10.11995 -10.10292 -10.10168 -10.09334
  Beta  occ. eigenvalues --  -10.08515 -10.08338 -10.07911 -10.07478 -10.07326
  Beta  occ. eigenvalues --  -10.06210 -10.05442  -1.02247  -0.97185  -0.93227
  Beta  occ. eigenvalues --   -0.80343  -0.75891  -0.70732  -0.66191  -0.64705
  Beta  occ. eigenvalues --   -0.60286  -0.59681  -0.58566  -0.53787  -0.52677
  Beta  occ. eigenvalues --   -0.50840  -0.47821  -0.47495  -0.44561  -0.41881
  Beta  occ. eigenvalues --   -0.39998  -0.39926  -0.38496  -0.38178  -0.37190
  Beta  occ. eigenvalues --   -0.36479  -0.35166  -0.34351  -0.33733  -0.32574
  Beta  occ. eigenvalues --   -0.31855  -0.31241  -0.29506  -0.29119  -0.29060
  Beta  occ. eigenvalues --   -0.27481  -0.26918  -0.26059  -0.24562  -0.24335
  Beta  occ. eigenvalues --   -0.23938  -0.23431  -0.22566  -0.22112  -0.20802
  Beta  occ. eigenvalues --   -0.19962  -0.15062  -0.12822
  Beta virt. eigenvalues --    0.06302   0.07033   0.07188   0.07332   0.07529
  Beta virt. eigenvalues --    0.07977   0.08679   0.08834   0.09169   0.09375
  Beta virt. eigenvalues --    0.10069   0.10630   0.10921   0.11307   0.11760

 Mulliken charges and spin densities:
               1          2
     1  C    0.065064  -0.855976
     2  C   -1.209880   1.428474
     3  C   -0.302287  -0.367313
     4  C    0.738653  -0.364574
     5  C    1.010674  -0.354626
     6  C    0.235559  -0.687402
     7  C   -0.141470  -0.410146
     8  C    0.926967  -0.821926
     9  C   -0.794469   0.365123
    10  O   -0.134818   0.062405
    11  C    1.461864  -1.750783
    12  C   -0.324226   0.441940
    13  C   -0.434491   0.130045
    14  C    0.144656  -0.471650
    15  C   -0.366657   0.016755
    16  O   -0.248189   0.018505
    17  O   -0.168900   0.015790
    18  H    0.092996   0.078679
    19  H    0.026650   0.122505
    20  H   -0.050837   0.183771
    21  H    0.147667   0.115468
    22  H    0.099020   0.074502
    23  H   -0.044347   0.158441
    24  H    0.072337   0.066885
    25  H    0.066233   0.098003
    26  H   -0.601521   0.769496
    27  H   -0.099008   0.285117
    28  H   -0.502177   0.657568
    29  H   -0.565674   0.736827
    30  H   -0.386648   0.539831
    31  H    0.167748   0.038454
    32  H    0.142519  -0.007868
    33  H    0.024848   0.126868
    34  H    0.128199   0.066911
    35  H   -0.176053   0.493903
 Sum of Mulliken charges =  -1.00000   1.00000

 Dipole moment (field-independent basis, Debye):
    X=             -6.5352    Y=             -0.8977    Z=              3.2348  Tot=              7.3471
 Quadrupole moment (field-independent basis, Debye-Ang):
   XX=           -194.7626   YY=           -147.0524   ZZ=           -137.6777
   XY=             -9.1009   XZ=             -5.2462   YZ=             -2.0322

 Summary of Natural Population Analysis:

                                       Natural Population
                Natural  -----------------------------------------------
    Atom  No    Charge         Core      Valence    Rydberg      Total
 -----------------------------------------------------------------------
      C    1   -0.28296      0.99964     2.27708    0.00624     3.28296
      C    2   -0.12170      0.99958     2.11143    0.01069     3.12170
      C    3   -0.28002      0.99964     2.27580    0.00458     3.28002
      C    4   -0.01756      0.99943     2.00606    0.01207     3.01756
      C    5   -0.01363      0.99946     2.00177    0.01240     3.01363
      C    6   -0.10778      0.99951     2.09886    0.00942     3.10778
      C    7   -0.09017      0.99956     2.08045    0.01016     3.09017
      C    8   -0.13704      0.99952     2.12835    0.00917     3.13704
      C    9    0.16796      0.99934     1.81937    0.01332     2.83204
      O   10   -0.27821      0.99986     3.26781    0.01054     4.27821
      C   11   -0.09971      0.99959     2.09099    0.00912     3.09971
      C   12   -0.09680      0.99947     2.08305    0.01427     3.09680
      C   13   -0.18062      0.99960     2.17310    0.00792     3.18062
      C   14   -0.17812      0.99960     2.17059    0.00792     3.17812
      C   15    0.41054      0.99961     1.56352    0.02633     2.58946
      O   16   -0.31886      0.99987     3.31313    0.00586     4.31886
      O   17   -0.33452      0.99988     3.32802    0.00663     4.33452
      H   18    0.10533      0.00000     0.39339    0.00128     0.39467
      H   19    0.10432      0.00000     0.39445    0.00123     0.39568
      H   20    0.09375      0.00000     0.40548    0.00078     0.40625
      H   21    0.09763      0.00000     0.39977    0.00259     0.40237
      H   22    0.10739      0.00000     0.39135    0.00127     0.39261
      H   23    0.09528      0.00000     0.40376    0.00096     0.40472
      H   24    0.09440      0.00000     0.40480    0.00080     0.40560
      H   25    0.09986      0.00000     0.39864    0.00150     0.40014
      H   26    0.10141      0.00000     0.39741    0.00118     0.39859
      H   27    0.10927      0.00000     0.38886    0.00187     0.39073
      H   28    0.08690      0.00000     0.41061    0.00248     0.41310
      H   29    0.09566      0.00000     0.40268    0.00166     0.40434
      H   30    0.08665      0.00000     0.41124    0.00211     0.41335
      H   31    0.11182      0.00000     0.38715    0.00103     0.38818
      H   32    0.10794      0.00000     0.39113    0.00093     0.39206
      H   33    0.10786      0.00000     0.39115    0.00099     0.39214
      H   34    0.11107      0.00000     0.38798    0.00095     0.38893
      H   35    0.24266      0.00000     0.24997    0.00737     0.25734
 =======================================================================
   * Total *   -0.00000     16.99317    45.79922    0.20761    63.00000

 Normal termination of Gaussian 16 at Fri Dec 11 13:28:43 2020.
