 Gaussian 16, Revision A.03,

 -----------------------------------------------------------
 # opt freq B3LYP/6-31G(d) empiricaldispersion=gd3bj scf=xqc
 -----------------------------------------------------------

 -------------------------------
 CID_123629737_JID_1608_neutraal
 -------------------------------
 Symbolic Z-matrix:
 Charge =  0 Multiplicity = 1

 SCF Done:  E(RB3LYP) =  -431.207566783     A.U. after   13 cycles
 SCF Done:  E(RB3LYP) =  -431.210228971     A.U. after   10 cycles
 SCF Done:  E(RB3LYP) =  -431.210689227     A.U. after   10 cycles
 SCF Done:  E(RB3LYP) =  -431.210841025     A.U. after   10 cycles
 SCF Done:  E(RB3LYP) =  -431.210930150     A.U. after    9 cycles
 SCF Done:  E(RB3LYP) =  -431.210944545     A.U. after    8 cycles
 SCF Done:  E(RB3LYP) =  -431.210948314     A.U. after    7 cycles
 SCF Done:  E(RB3LYP) =  -431.210950080     A.U. after    7 cycles
 SCF Done:  E(RB3LYP) =  -431.210951029     A.U. after    7 cycles
 SCF Done:  E(RB3LYP) =  -431.210951145     A.U. after    6 cycles
 Optimization completed.
    -- Stationary point found.
 Normal termination of Gaussian 16 at Tue Dec  8 20:28:24 2020.

 --------------------------------------------------------------------
 #N Geom=AllCheck Guess=TCheck SCRF=Check GenChk RB3LYP/6-31G(d) Freq
 --------------------------------------------------------------------

 Structure from the checkpoint file:  "JID_1608.chk"
 -------------------------------
 CID_123629737_JID_1608_neutraal
 -------------------------------
 Charge =  0 Multiplicity = 1

 SCF Done:  E(RB3LYP) =  -431.210951144     A.U. after    1 cycles

  Exact polarizability: 129.399   0.323 103.890   0.284  -0.023  98.149
 Approx polarizability: 157.330   0.328 147.926   0.401  -0.761 152.384

                      1                      2                      3
                      A                      A                      A
 Frequencies --     49.9953                82.4775                84.6651
 Red. masses --      3.2758                 2.5985                 2.5760
 Frc consts  --      0.0048                 0.0104                 0.0109
 IR Inten    --      0.0251                 0.0022                 0.0139

                      4                      5                      6
                      A                      A                      A
 Frequencies --    148.1398               171.0545               180.7375
 Red. masses --      2.5988                 1.1881                 1.6437
 Frc consts  --      0.0336                 0.0205                 0.0316
 IR Inten    --      0.0282                 0.0326                 0.2773

                      7                      8                      9
                      A                      A                      A
 Frequencies --    194.1802               210.5062               255.9115
 Red. masses --      1.2395                 1.5913                 2.7216
 Frc consts  --      0.0275                 0.0415                 0.1050
 IR Inten    --      0.3781                 0.0458                 0.2965

                     10                     11                     12
                      A                      A                      A
 Frequencies --    306.6418               327.9521               362.5295
 Red. masses --      1.8462                 1.9113                 2.1047
 Frc consts  --      0.1023                 0.1211                 0.1630
 IR Inten    --      0.1299                 0.4000                 0.1674

                     13                     14                     15
                      A                      A                      A
 Frequencies --    374.8679               410.6004               414.8529
 Red. masses --      2.1046                 2.2338                 2.4087
 Frc consts  --      0.1743                 0.2219                 0.2442
 IR Inten    --      0.0204                 0.0320                 0.0945

                     16                     17                     18
                      A                      A                      A
 Frequencies --    448.5887               461.1559               550.7313
 Red. masses --      2.0754                 2.1917                 2.3260
 Frc consts  --      0.2461                 0.2746                 0.4157
 IR Inten    --      1.3489                 0.2903                 2.0994

                     19                     20                     21
                      A                      A                      A
 Frequencies --    673.7172               705.5215               763.7105
 Red. masses --      2.9085                 3.0472                 1.6107
 Frc consts  --      0.7778                 0.8937                 0.5535
 IR Inten    --      1.3018                 0.0673                 1.9253

                     22                     23                     24
                      A                      A                      A
 Frequencies --    804.2671               830.1628               858.7030
 Red. masses --      1.2544                 1.1863                 2.3796
 Frc consts  --      0.4781                 0.4817                 1.0338
 IR Inten    --      2.2210                 4.6441                15.2941

                     25                     26                     27
                      A                      A                      A
 Frequencies --    872.7948               920.6821               935.5103
 Red. masses --      2.7183                 1.4522                 1.8143
 Frc consts  --      1.2200                 0.7253                 0.9355
 IR Inten    --      3.9319                 0.5472                 2.1810

                     28                     29                     30
                      A                      A                      A
 Frequencies --    943.6387               959.4166               963.8306
 Red. masses --      2.0221                 1.8004                 1.4773
 Frc consts  --      1.0609                 0.9764                 0.8086
 IR Inten    --      4.1510                 6.6263                 2.9076

                     31                     32                     33
                      A                      A                      A
 Frequencies --    981.6359              1013.8391              1039.3679
 Red. masses --      1.3335                 1.7961                 1.7472
 Frc consts  --      0.7571                 1.0877                 1.1121
 IR Inten    --      1.0125                 8.3016                 4.0855

                     34                     35                     36
                      A                      A                      A
 Frequencies --   1051.7361              1057.6924              1068.3459
 Red. masses --      1.3903                 1.3743                 1.3537
 Frc consts  --      0.9061                 0.9058                 0.9103
 IR Inten    --      0.8389                 7.8949                 4.6736

                     37                     38                     39
                      A                      A                      A
 Frequencies --   1075.3114              1081.1002              1114.3610
 Red. masses --      1.9188                 1.4337                 1.4708
 Frc consts  --      1.3072                 0.9873                 1.0761
 IR Inten    --      1.7430                 3.4222                 1.4425

                     40                     41                     42
                      A                      A                      A
 Frequencies --   1124.5211              1148.0073              1166.0890
 Red. masses --      1.5692                 1.1162                 1.8524
 Frc consts  --      1.1691                 0.8667                 1.4841
 IR Inten    --     12.6573                 0.1625                 5.3020

                     43                     44                     45
                      A                      A                      A
 Frequencies --   1210.5948              1224.0168              1236.2847
 Red. masses --      1.4054                 2.3205                 1.8037
 Frc consts  --      1.2135                 2.0483                 1.6242
 IR Inten    --      0.6212                 1.0258                 1.0278

                     46                     47                     48
                      A                      A                      A
 Frequencies --   1242.4517              1282.5651              1294.5124
 Red. masses --      2.8229                 1.6587                 1.4423
 Frc consts  --      2.5674                 1.6076                 1.4240
 IR Inten    --      1.1096                 3.4299                 2.7963

                     49                     50                     51
                      A                      A                      A
 Frequencies --   1328.3265              1368.8703              1401.5115
 Red. masses --      2.0051                 1.4349                 1.4638
 Frc consts  --      2.0844                 1.5841                 1.6940
 IR Inten    --      0.1482                 5.5253                 2.9440

                     52                     53                     54
                      A                      A                      A
 Frequencies --   1411.4270              1437.3645              1441.7875
 Red. masses --      2.0228                 1.3539                 1.2783
 Frc consts  --      2.3742                 1.6481                 1.5656
 IR Inten    --      1.9045                 0.8450                 5.9681

                     55                     56                     57
                      A                      A                      A
 Frequencies --   1445.4935              1454.9683              1495.5045
 Red. masses --      1.5023                 1.2734                 1.0888
 Frc consts  --      1.8494                 1.5883                 1.4348
 IR Inten    --      1.2196                 1.7863                 0.7523

                     58                     59                     60
                      A                      A                      A
 Frequencies --   1510.8798              1513.1866              1515.0015
 Red. masses --      1.0813                 1.0746                 1.1087
 Frc consts  --      1.4544                 1.4497                 1.4992
 IR Inten    --      5.9668                 0.5763                 1.6363

                     61                     62                     63
                      A                      A                      A
 Frequencies --   1520.2097              1523.0542              1528.9919
 Red. masses --      1.0855                 1.0850                 1.1221
 Frc consts  --      1.4780                 1.4829                 1.5456
 IR Inten    --      3.1292                 4.2689                 0.4723

                     64                     65                     66
                      A                      A                      A
 Frequencies --   1537.5840              1539.3440              1542.4383
 Red. masses --      1.3093                 1.0804                 1.1000
 Frc consts  --      1.8238                 1.5084                 1.5419
 IR Inten    --      4.4346                 1.9902                 5.7911

                     67                     68                     69
                      A                      A                      A
 Frequencies --   1553.5963              3021.4064              3029.6788
 Red. masses --      1.0888                 1.0618                 1.0714
 Frc consts  --      1.5483                 5.7110                 5.7945
 IR Inten    --      3.5510                39.1233                12.9717

                     70                     71                     72
                      A                      A                      A
 Frequencies --   3034.7848              3039.7554              3047.5427
 Red. masses --      1.0397                 1.0400                 1.0468
 Frc consts  --      5.6419                 5.6620                 5.7281
 IR Inten    --     18.2908                57.1779                45.0965

                     73                     74                     75
                      A                      A                      A
 Frequencies --   3058.8149              3087.0808              3091.7705
 Red. masses --      1.0969                 1.1019                 1.1009
 Frc consts  --      6.0470                 6.1871                 6.2004
 IR Inten    --     49.4176                 1.5457                61.2958

                     76                     77                     78
                      A                      A                      A
 Frequencies --   3098.8887              3115.6286              3124.9524
 Red. masses --      1.0920                 1.0922                 1.0668
 Frc consts  --      6.1786                 6.2468                 6.1381
 IR Inten    --     34.4191                12.0956                11.4290

                     79                     80                     81
                      A                      A                      A
 Frequencies --   3128.6046              3133.7527              3136.4971
 Red. masses --      1.0845                 1.0873                 1.0969
 Frc consts  --      6.2545                 6.2913                 6.3579
 IR Inten    --     31.9214                28.4182                43.9049

                     82                     83                     84
                      A                      A                      A
 Frequencies --   3140.5415              3148.5149              3148.9549
 Red. masses --      1.0532                 1.0936                 1.0621
 Frc consts  --      6.1201                 6.3874                 6.2054
 IR Inten    --     23.1350                16.6844                18.3550

                     85                     86                     87
                      A                      A                      A
 Frequencies --   3202.5057              3215.2210              3231.1239
 Red. masses --      1.1167                 1.1189                 1.1158
 Frc consts  --      6.7476                 6.8148                 6.8633
 IR Inten    --     16.9085                 2.6867                25.8004

 - Thermochemistry -
 -------------------
 Temperature   298.150 Kelvin.  Pressure   1.00000 Atm.
 Atom     1 has atomic number  6 and mass  12.00000

 Molecular mass:   152.15650 amu.
 Principal axes and moments of inertia in atomic units:
                           1         2         3
     Eigenvalues --   833.121592959.947653213.16046
           X            1.00000   0.00043  -0.00081
           Y           -0.00041   0.99969   0.02475
           Z            0.00082  -0.02475   0.99969
 This molecule is an asymmetric top.
 Rotational symmetry number  1.
 Warning -- assumption of classical behavior for rotation
           may cause significant error
 Rotational temperatures (Kelvin)      0.10396     0.02926     0.02696
 Rotational constants (GHZ):           2.16624     0.60972     0.56167
 Zero-point vibrational energy     753560.9 (Joules/Mol)
                                  180.10537 (Kcal/Mol)
 Warning -- explicit consideration of  18 degrees of freedom as
           vibrations may cause significant error
 Vibrational temperatures:     71.93   118.67   121.81   213.14   246.11
          (Kelvin)            260.04   279.38   302.87   368.20   441.19
                              471.85   521.60   539.35   590.76   596.88
                              645.42   663.50   792.38   969.33  1015.09
                             1098.81  1157.16  1194.42  1235.48  1255.76
                             1324.66  1345.99  1357.69  1380.39  1386.74
                             1412.36  1458.69  1495.42  1513.21  1521.78
                             1537.11  1547.13  1555.46  1603.32  1617.93
                             1651.73  1677.74  1741.78  1761.09  1778.74
                             1787.61  1845.33  1862.51  1911.17  1969.50
                             2016.46  2030.73  2068.05  2074.41  2079.74
                             2093.37  2151.70  2173.82  2177.14  2179.75
                             2187.24  2191.34  2199.88  2212.24  2214.77
                             2219.22  2235.28  4347.13  4359.03  4366.38
                             4373.53  4384.73  4400.95  4441.62  4448.37
                             4458.61  4482.69  4496.11  4501.36  4508.77
                             4512.72  4518.54  4530.01  4530.64  4607.69
                             4625.99  4648.87

 Zero-point correction=                           0.287016 (Hartree/Particle)
 Thermal correction to Energy=                    0.299785
 Thermal correction to Enthalpy=                  0.300729
 Thermal correction to Gibbs Free Energy=         0.248732
 Sum of electronic and zero-point Energies=           -430.923935
 Sum of electronic and thermal Energies=              -430.911166
 Sum of electronic and thermal Enthalpies=            -430.910222
 Sum of electronic and thermal Free Energies=         -430.962219

                     E (Thermal)             CV                S
                      KCal/Mol        Cal/Mol-Kelvin    Cal/Mol-Kelvin
 Total                  188.118             49.255            109.437
 Electronic               0.000              0.000              0.000
 Translational            0.889              2.981             40.969
 Rotational               0.889              2.981             30.450
 Vibrational            186.340             43.294             38.018
 Vibration     1          0.595              1.978              4.818
 Vibration     2          0.600              1.961              3.831
 Vibration     3          0.601              1.960              3.780
 Vibration     4          0.618              1.905              2.696
 Vibration     5          0.626              1.878              2.424
 Vibration     6          0.630              1.866              2.321
 Vibration     7          0.635              1.848              2.188
 Vibration     8          0.643              1.825              2.039
 Vibration     9          0.666              1.753              1.689
 Vibration    10          0.697              1.661              1.380
 Vibration    11          0.711              1.620              1.270
 Vibration    12          0.736              1.549              1.111
 Vibration    13          0.746              1.524              1.060
 Vibration    14          0.775              1.447              0.924
 Vibration    15          0.778              1.438              0.910
 Vibration    16          0.808              1.364              0.800
 Vibration    17          0.819              1.336              0.763
 Vibration    18          0.906              1.138              0.543

                           ! Non-Optimized Parameters !
 Normal termination of Gaussian 16 at Tue Dec  8 20:35:51 2020.

 ----------------------------------------------------------------------
 # B3LYP/6-311++G(d,p) empiricaldispersion=gd3bj scf=xqc pop=npa geom=c
 heck
 ----------------------------------------------------------------------

 ---------------------------------------
 CID_123629737_JID_1608_Energie_neutraal
 ---------------------------------------
 Structure from the checkpoint file:  "JID_1608.chk"
 Charge =  0 Multiplicity = 1

 SCF Done:  E(RB3LYP) =  -431.327772819     A.U. after   13 cycles
 Normal termination of Gaussian 16 at Tue Dec  8 20:39:03 2020.

 ----------------------------------------------------------------------
 # B3LYP/6-311++G(d,p) empiricaldispersion=gd3bj scf=xqc pop=npa geom=c
 heck
 ----------------------------------------------------------------------

 -------------------------------------
 CID_123629737_JID_1608_Energie_kation
 -------------------------------------
 Structure from the checkpoint file:  "JID_1608.chk"
 Charge =  1 Multiplicity = 2

 SCF Done:  E(UB3LYP) =  -431.010672571     A.U. after   21 cycles
 Normal termination of Gaussian 16 at Tue Dec  8 20:46:12 2020.
 Gaussian 16:  ES64L-G16RevA.03 25-Dec-2016

 ----------------------------------------------------------------------
 # B3LYP/6-311++G(d,p) empiricaldispersion=gd3bj scf=xqc pop=npa geom=c
 heck
 ----------------------------------------------------------------------

 ------------------------------------
 CID_123629737_JID_1608_Energie_anion
 ------------------------------------
 Structure from the checkpoint file:  "JID_1608.chk"
 Charge = -1 Multiplicity = 2

                         Standard orientation:
 ---------------------------------------------------------------------
 Center     Atomic      Atomic             Coordinates (Angstroms)
 Number     Number       Type             X           Y           Z
 ---------------------------------------------------------------------
      1          6           0       -3.179398    0.972619   -0.116240
      2          6           0       -2.086067   -0.073157   -0.265659
      3          6           0       -0.922084    0.202703   -1.190335
      4          6           0       -0.690783    0.192639    0.308777
      5          6           0       -0.429060    1.529612    0.989915
      6          6           0        0.109468   -0.951376    0.942562
      7          6           0        1.488453   -1.231466    0.318537
      8          6           0        2.495666   -0.104061    0.417318
      9          6           0        3.688045   -0.084075   -0.507363
     10          6           0        2.593381    0.942658   -0.665761
     11          6           0       -2.653346   -1.483505   -0.258793
     12          1           0       -2.806271    1.995048   -0.207334
     13          1           0       -3.678517    0.884165    0.857610
     14          1           0       -3.943483    0.832874   -0.891377
     15          1           0       -0.541730   -0.627324   -1.781907
     16          1           0       -0.876426    1.161291   -1.703280
     17          1           0       -0.854280    1.543305    2.001955
     18          1           0        0.646793    1.704518    1.076851
     19          1           0       -0.850243    2.374463    0.438950
     20          1           0        0.242873   -0.723289    2.009566
     21          1           0       -0.459804   -1.885138    0.914797
     22          1           0        1.908032   -2.124142    0.804521
     23          1           0        1.358976   -1.495993   -0.739807
     24          1           0        2.679986    0.244544    1.433415
     25          1           0        4.647108    0.240431   -0.113245
     26          1           0        3.759806   -0.871778   -1.253719
     27          1           0        1.920777    0.848921   -1.513493
     28          1           0        2.804658    1.969667   -0.380328
     29          1           0       -3.074281   -1.742951    0.721540
     30          1           0       -3.461699   -1.563163   -0.996380
     31          1           0       -1.907930   -2.241000   -0.516080
 ---------------------------------------------------------------------

 SCF Done:  E(UB3LYP) =  -431.309294544     A.U. after   30 cycles

 The electronic state is 2-A.
 Alpha  occ. eigenvalues --  -10.07554 -10.07410 -10.07402 -10.06965 -10.06756
 Alpha  occ. eigenvalues --  -10.06343 -10.05791 -10.05570 -10.05256 -10.05229
 Alpha  occ. eigenvalues --  -10.04929  -0.76849  -0.75701  -0.66283  -0.62512
 Alpha  occ. eigenvalues --   -0.59451  -0.57930  -0.53887  -0.50102  -0.47162
 Alpha  occ. eigenvalues --   -0.45268  -0.40999  -0.38653  -0.37334  -0.36530
 Alpha  occ. eigenvalues --   -0.34889  -0.33051  -0.31716  -0.30269  -0.29359
 Alpha  occ. eigenvalues --   -0.28500  -0.27969  -0.27172  -0.26871  -0.26323
 Alpha  occ. eigenvalues --   -0.25918  -0.24318  -0.23185  -0.21415  -0.19216
 Alpha  occ. eigenvalues --   -0.18210  -0.16571  -0.14948   0.04766
 Alpha virt. eigenvalues --    0.06745   0.07412   0.07787   0.08723   0.09105
 Alpha virt. eigenvalues --    0.09505   0.10047   0.10413   0.11213   0.11441
 Alpha virt. eigenvalues --    0.12018   0.12362   0.13243   0.13661   0.13945

  Beta  occ. eigenvalues --  -10.07552 -10.07406 -10.07392 -10.06950 -10.06743
  Beta  occ. eigenvalues --  -10.06328 -10.05774 -10.05552 -10.05221 -10.05195
  Beta  occ. eigenvalues --  -10.04906  -0.76836  -0.75682  -0.66255  -0.62474
  Beta  occ. eigenvalues --   -0.59407  -0.57872  -0.53842  -0.50056  -0.47118
  Beta  occ. eigenvalues --   -0.45219  -0.40952  -0.38600  -0.37300  -0.36498
  Beta  occ. eigenvalues --   -0.34855  -0.33016  -0.31687  -0.30240  -0.29327
  Beta  occ. eigenvalues --   -0.28469  -0.27934  -0.27141  -0.26841  -0.26294
  Beta  occ. eigenvalues --   -0.25881  -0.24289  -0.23152  -0.21387  -0.19194
  Beta  occ. eigenvalues --   -0.18187  -0.16550  -0.14924
  Beta virt. eigenvalues --    0.06882   0.07537   0.08091   0.08372   0.09266
  Beta virt. eigenvalues --    0.09586   0.10079   0.10637   0.10833   0.11646
  Beta virt. eigenvalues --    0.11817   0.12480   0.12808   0.13492   0.14113

 Mulliken charges and spin densities:
               1          2
     1  C    0.172508  -0.739553
     2  C   -2.891031   3.975897
     3  C    1.021552  -2.062097
     4  C    1.212055  -0.799979
     5  C    0.943871  -1.689913
     6  C   -0.392126  -0.033961
     7  C    0.443410  -0.727142
     8  C   -0.864369   1.002659
     9  C    0.237593  -0.730456
    10  C    0.423872  -0.880029
    11  C    1.233853  -1.817875
    12  H   -0.342600   0.466481
    13  H   -0.075244   0.223456
    14  H   -0.220120   0.358694
    15  H   -0.005296   0.152572
    16  H   -0.138666   0.319661
    17  H   -0.301587   0.459310
    18  H   -0.141318   0.289548
    19  H    0.171859  -0.057891
    20  H   -0.191507   0.348381
    21  H    0.063916   0.093319
    22  H   -0.144107   0.301689
    23  H   -0.126267   0.254655
    24  H   -0.222231   0.432953
    25  H   -0.187042   0.335707
    26  H   -0.024290   0.139887
    27  H    0.157782   0.004764
    28  H   -0.067834   0.208709
    29  H   -0.194459   0.349859
    30  H   -0.197957   0.330437
    31  H   -0.354222   0.490261
 Sum of Mulliken charges =  -1.00000   1.00000

 Dipole moment (field-independent basis, Debye):
    X=              2.1688    Y=              0.1263    Z=             -1.1964  Tot=              2.4802
 Quadrupole moment (field-independent basis, Debye-Ang):
   XX=           -142.8688   YY=           -114.4592   ZZ=           -108.4725
   XY=             -2.9540   XZ=             -3.2623   YZ=             -0.8769

 Summary of Natural Population Analysis:

                                       Natural Population
                Natural  -----------------------------------------------
    Atom  No    Charge         Core      Valence    Rydberg      Total
 -----------------------------------------------------------------------
      C    1   -0.28081      0.99962     2.27510    0.00610     3.28081
      C    2   -0.03986      0.99953     2.02857    0.01177     3.03986
      C    3   -0.19529      0.99954     2.18551    0.01024     3.19529
      C    4   -0.03910      0.99952     2.02552    0.01406     3.03910
      C    5   -0.28097      0.99962     2.27461    0.00675     3.28097
      C    6   -0.18401      0.99958     2.17495    0.00949     3.18401
      C    7   -0.18582      0.99960     2.17663    0.00959     3.18582
      C    8   -0.11582      0.99959     2.10536    0.01086     3.11582
      C    9   -0.19707      0.99962     2.19098    0.00646     3.19707
      C   10   -0.20021      0.99961     2.19106    0.00955     3.20021
      C   11   -0.28195      0.99962     2.27602    0.00631     3.28195
      H   12    0.10087      0.00000     0.39790    0.00123     0.39913
      H   13    0.09958      0.00000     0.39920    0.00121     0.40042
      H   14    0.09904      0.00000     0.39986    0.00110     0.40096
      H   15    0.10091      0.00000     0.39774    0.00134     0.39909
      H   16    0.10092      0.00000     0.39783    0.00125     0.39908
      H   17    0.09916      0.00000     0.39965    0.00118     0.40084
      H   18    0.10354      0.00000     0.39510    0.00136     0.39646
      H   19    0.09836      0.00000     0.40045    0.00119     0.40164
      H   20    0.09739      0.00000     0.40111    0.00150     0.40261
      H   21    0.10302      0.00000     0.39541    0.00157     0.39698
      H   22    0.09772      0.00000     0.40117    0.00111     0.40228
      H   23    0.09405      0.00000     0.40404    0.00191     0.40595
      H   24    0.10168      0.00000     0.39686    0.00146     0.39832
      H   25    0.10045      0.00000     0.39838    0.00116     0.39955
      H   26    0.09836      0.00000     0.40060    0.00104     0.40164
      H   27    0.10349      0.00000     0.39535    0.00117     0.39651
      H   28    0.10170      0.00000     0.39725    0.00105     0.39830
      H   29    0.09989      0.00000     0.39883    0.00128     0.40011
      H   30    0.10030      0.00000     0.39859    0.00111     0.39970
      H   31    0.10049      0.00000     0.39809    0.00142     0.39951
 =======================================================================
   * Total *   -0.00000     10.99545    31.87772    0.12683    43.00000

 Normal termination of Gaussian 16 at Tue Dec  8 20:58:14 2020.
