 Gaussian 16, Revision A.03,

 -----------------------------------------------------------
 # opt freq B3LYP/6-31G(d) empiricaldispersion=gd3bj scf=xqc
 -----------------------------------------------------------

 ------------------------------
 CID_81251695_JID_4291_neutraal
 ------------------------------
 Symbolic Z-matrix:
 Charge =  0 Multiplicity = 1

 SCF Done:  E(RB3LYP) =  -610.963669910     A.U. after   14 cycles
 SCF Done:  E(RB3LYP) =  -610.968015530     A.U. after   12 cycles
 SCF Done:  E(RB3LYP) =  -610.968769002     A.U. after   12 cycles
 SCF Done:  E(RB3LYP) =  -610.968892914     A.U. after   10 cycles
 SCF Done:  E(RB3LYP) =  -610.968947439     A.U. after   10 cycles
 SCF Done:  E(RB3LYP) =  -610.968967347     A.U. after    9 cycles
 SCF Done:  E(RB3LYP) =  -610.968970348     A.U. after    8 cycles
 SCF Done:  E(RB3LYP) =  -610.968971066     A.U. after    7 cycles
 Optimization completed.
    -- Stationary point found.
 Normal termination of Gaussian 16 at Thu Dec 10 09:20:22 2020.

 --------------------------------------------------------------------
 #N Geom=AllCheck Guess=TCheck SCRF=Check GenChk RB3LYP/6-31G(d) Freq
 --------------------------------------------------------------------

 Structure from the checkpoint file:  "JID_4291.chk"
 ------------------------------
 CID_81251695_JID_4291_neutraal
 ------------------------------
 Charge =  0 Multiplicity = 1

 SCF Done:  E(RB3LYP) =  -610.968971066     A.U. after    1 cycles

  Exact polarizability: 151.517  -2.472 122.159   2.654   0.839  98.701
 Approx polarizability: 194.966  -3.112 197.108   5.925   4.658 147.494

                      1                      2                      3
                      A                      A                      A
 Frequencies --     60.0273                69.4930                95.3331
 Red. masses --      3.0525                 3.0369                 3.7654
 Frc consts  --      0.0065                 0.0086                 0.0202
 IR Inten    --      1.2203                 0.0597                 4.7951

                      4                      5                      6
                      A                      A                      A
 Frequencies --    154.2919               177.4428               219.7391
 Red. masses --      3.3198                 3.4796                 1.2728
 Frc consts  --      0.0466                 0.0646                 0.0362
 IR Inten    --      2.0162                 2.0195                 0.2550

                      7                      8                      9
                      A                      A                      A
 Frequencies --    229.2754               254.4882               271.6622
 Red. masses --      1.0899                 1.9231                 1.5670
 Frc consts  --      0.0338                 0.0734                 0.0681
 IR Inten    --      2.6689                 0.0568                 0.3856

                     10                     11                     12
                      A                      A                      A
 Frequencies --    286.6424               299.4102               315.2124
 Red. masses --      1.7137                 1.3733                 2.2659
 Frc consts  --      0.0830                 0.0725                 0.1326
 IR Inten    --      7.7682                16.0302                 8.7677

                     13                     14                     15
                      A                      A                      A
 Frequencies --    348.1349               349.8267               364.7444
 Red. masses --      2.0396                 2.3320                 2.5193
 Frc consts  --      0.1456                 0.1681                 0.1975
 IR Inten    --     11.4862                 5.0963                 3.1328

                     16                     17                     18
                      A                      A                      A
 Frequencies --    384.9695               412.9570               467.1924
 Red. masses --      2.0145                 2.9403                 3.4453
 Frc consts  --      0.1759                 0.2954                 0.4431
 IR Inten    --      1.2185                 2.0482                 5.6437

                     19                     20                     21
                      A                      A                      A
 Frequencies --    481.3113               550.8196               569.1204
 Red. masses --      3.7872                 4.2186                 3.3503
 Frc consts  --      0.5169                 0.7541                 0.6393
 IR Inten    --      5.5973                 2.2906                 2.9613

                     22                     23                     24
                      A                      A                      A
 Frequencies --    632.7814               683.1276               710.8241
 Red. masses --      3.0386                 6.2666                 3.5759
 Frc consts  --      0.7168                 1.7230                 1.0645
 IR Inten    --      2.5933                 1.8998                 2.4261

                     25                     26                     27
                      A                      A                      A
 Frequencies --    746.2806               759.5379               813.1098
 Red. masses --      7.7446                 2.8124                 2.4965
 Frc consts  --      2.5413                 0.9559                 0.9725
 IR Inten    --      1.4823                 0.4089                 4.8976

                     28                     29                     30
                      A                      A                      A
 Frequencies --    856.6390               895.8327               936.2053
 Red. masses --      2.7370                 1.8369                 1.8834
 Frc consts  --      1.1834                 0.8685                 0.9726
 IR Inten    --     20.6647                 2.4642                 2.9377

                     31                     32                     33
                      A                      A                      A
 Frequencies --    943.1454               949.3008               960.4201
 Red. masses --      1.7078                 1.4807                 2.0494
 Frc consts  --      0.8950                 0.7862                 1.1138
 IR Inten    --     79.2850                 7.1813                 2.2125

                     34                     35                     36
                      A                      A                      A
 Frequencies --    978.0845              1007.8504              1019.1749
 Red. masses --      1.5405                 1.7392                 2.3346
 Frc consts  --      0.8683                 1.0408                 1.4288
 IR Inten    --      8.1384                 0.4863                 3.5578

                     37                     38                     39
                      A                      A                      A
 Frequencies --   1040.6655              1043.2544              1073.8554
 Red. masses --      1.8864                 1.3356                 2.5803
 Frc consts  --      1.2037                 0.8565                 1.7531
 IR Inten    --      0.7504                 5.8332                 9.1067

                     40                     41                     42
                      A                      A                      A
 Frequencies --   1079.8083              1116.3775              1137.3694
 Red. masses --      4.8264                 1.6295                 1.5783
 Frc consts  --      3.3156                 1.1965                 1.2029
 IR Inten    --      4.5499                 7.4680                 2.4122

                     43                     44                     45
                      A                      A                      A
 Frequencies --   1159.3356              1193.8316              1219.4100
 Red. masses --      1.5258                 1.6108                 2.3511
 Frc consts  --      1.2083                 1.3526                 2.0598
 IR Inten    --      3.5868                 3.5417                41.3865

                     46                     47                     48
                      A                      A                      A
 Frequencies --   1240.6337              1268.7392              1275.2205
 Red. masses --      2.9725                 1.6482                 1.8501
 Frc consts  --      2.6956                 1.5632                 1.7727
 IR Inten    --     13.8018                16.3159                11.1936

                     49                     50                     51
                      A                      A                      A
 Frequencies --   1279.7179              1335.9639              1344.1892
 Red. masses --      1.5423                 1.6548                 1.9207
 Frc consts  --      1.4882                 1.7401                 2.0447
 IR Inten    --      1.8775                17.6257                 9.4073

                     52                     53                     54
                      A                      A                      A
 Frequencies --   1366.7727              1377.1145              1387.5474
 Red. masses --      1.5356                 2.2717                 1.5318
 Frc consts  --      1.6901                 2.5383                 1.7376
 IR Inten    --     10.9284                 3.4007                 5.5774

                     55                     56                     57
                      A                      A                      A
 Frequencies --   1400.8661              1418.8263              1428.1991
 Red. masses --      1.5211                 1.8956                 1.3547
 Frc consts  --      1.7587                 2.2483                 1.6280
 IR Inten    --      4.4554                21.9314                 4.2841

                     58                     59                     60
                      A                      A                      A
 Frequencies --   1445.2751              1446.5603              1482.5732
 Red. masses --      1.2439                 1.2722                 2.8952
 Frc consts  --      1.5309                 1.5685                 3.7494
 IR Inten    --      9.0382                 8.7949                34.9277

                     61                     62                     63
                      A                      A                      A
 Frequencies --   1506.4951              1508.3207              1512.3442
 Red. masses --      1.0531                 1.1297                 1.0742
 Frc consts  --      1.4082                 1.5143                 1.4476
 IR Inten    --      0.5505                 1.0247                 2.3920

                     64                     65                     66
                      A                      A                      A
 Frequencies --   1516.3830              1526.1378              1528.5668
 Red. masses --      1.0845                 1.4182                 1.0715
 Frc consts  --      1.4692                 1.9461                 1.4751
 IR Inten    --      1.2951                 6.9954                 3.1637

                     67                     68                     69
                      A                      A                      A
 Frequencies --   1530.3020              1535.9902              1553.6314
 Red. masses --      1.0960                 1.0685                 1.9939
 Frc consts  --      1.5122                 1.4853                 2.8357
 IR Inten    --      3.2741                 4.4754                 8.3612

                     70                     71                     72
                      A                      A                      A
 Frequencies --   1563.3967              1575.1202              1690.2858
 Red. masses --      1.4294                 4.6731                 1.0956
 Frc consts  --      2.0585                 6.8310                 1.8442
 IR Inten    --      6.1940                23.6697                33.2422

                     73                     74                     75
                      A                      A                      A
 Frequencies --   3035.7987              3044.3958              3048.9621
 Red. masses --      1.0712                 1.0658                 1.0423
 Frc consts  --      5.8166                 5.8201                 5.7089
 IR Inten    --     12.8430                16.2504                14.3830

                     76                     77                     78
                      A                      A                      A
 Frequencies --   3051.1331              3056.5134              3058.1307
 Red. masses --      1.0398                 1.0513                 1.0641
 Frc consts  --      5.7035                 5.7867                 5.8631
 IR Inten    --      9.8542                40.6651                13.3976

                     79                     80                     81
                      A                      A                      A
 Frequencies --   3059.4787              3095.3527              3103.1476
 Red. masses --      1.0688                 1.1008                 1.0938
 Frc consts  --      5.8945                 6.2141                 6.2058
 IR Inten    --     71.7325                35.5154                11.4051

                     82                     83                     84
                      A                      A                      A
 Frequencies --   3115.3814              3119.6577              3123.0288
 Red. masses --      1.1020                 1.1016                 1.0963
 Frc consts  --      6.3019                 6.3166                 6.2997
 IR Inten    --     36.4844                39.9393                11.4189

                     85                     86                     87
                      A                      A                      A
 Frequencies --   3128.4627              3146.9834              3148.3914
 Red. masses --      1.0987                 1.0958                 1.1021
 Frc consts  --      6.3358                 6.3939                 6.4364
 IR Inten    --     38.6322                 7.7582                13.1023

                     88                     89                     90
                      A                      A                      A
 Frequencies --   3152.5396              3447.5367              3533.8821
 Red. masses --      1.1027                 1.0494                 1.0922
 Frc consts  --      6.4568                 7.3489                 8.0367
 IR Inten    --     23.3711                 1.7546                 0.8958

 - Thermochemistry -
 -------------------
 Temperature   298.150 Kelvin.  Pressure   1.00000 Atm.
 Atom     1 has atomic number  6 and mass  12.00000

 Molecular mass:   194.15315 amu.
 Principal axes and moments of inertia in atomic units:
                           1         2         3
     Eigenvalues --  1378.866893662.464254277.15502
           X            1.00000  -0.00031  -0.00113
           Y            0.00029   0.99984  -0.01767
           Z            0.00113   0.01767   0.99984
 This molecule is an asymmetric top.
 Rotational symmetry number  1.
 Warning -- assumption of classical behavior for rotation
           may cause significant error
 Rotational temperatures (Kelvin)      0.06282     0.02365     0.02025
 Rotational constants (GHZ):           1.30886     0.49277     0.42195
 Zero-point vibrational energy     746662.8 (Joules/Mol)
                                  178.45668 (Kcal/Mol)
 Warning -- explicit consideration of  21 degrees of freedom as
           vibrations may cause significant error
 Vibrational temperatures:     86.37    99.98   137.16   221.99   255.30
          (Kelvin)            316.16   329.88   366.15   390.86   412.41
                              430.78   453.52   500.89   503.32   524.79
                              553.89   594.15   672.19   692.50   792.51
                              818.84   910.43   982.87  1022.72  1073.73
                             1092.81  1169.88  1232.51  1288.90  1346.99
                             1356.98  1365.83  1381.83  1407.25  1450.07
                             1466.37  1497.29  1501.01  1545.04  1553.60
                             1606.22  1636.42  1668.03  1717.66  1754.46
                             1785.00  1825.43  1834.76  1841.23  1922.15
                             1933.99  1966.48  1981.36  1996.37  2015.53
                             2041.37  2054.86  2079.43  2081.28  2133.09
                             2167.51  2170.14  2175.93  2181.74  2195.77
                             2199.27  2201.76  2209.95  2235.33  2249.38
                             2266.25  2431.94  4367.84  4380.21  4386.78
                             4389.90  4397.64  4399.97  4401.91  4453.52
                             4464.74  4482.34  4488.49  4493.34  4501.16
                             4527.81  4529.83  4535.80  4960.24  5084.47

 Zero-point correction=                           0.284389 (Hartree/Particle)
 Thermal correction to Energy=                    0.298034
 Thermal correction to Enthalpy=                  0.298978
 Thermal correction to Gibbs Free Energy=         0.245152
 Sum of electronic and zero-point Energies=           -610.684582
 Sum of electronic and thermal Energies=              -610.670937
 Sum of electronic and thermal Enthalpies=            -610.669993
 Sum of electronic and thermal Free Energies=         -610.723819

                     E (Thermal)             CV                S
                      KCal/Mol        Cal/Mol-Kelvin    Cal/Mol-Kelvin
 Total                  187.019             53.922            113.288
 Electronic               0.000              0.000              0.000
 Translational            0.889              2.981             41.696
 Rotational               0.889              2.981             31.447
 Vibrational            185.242             47.960             40.146
 Vibration     1          0.597              1.973              4.456
 Vibration     2          0.598              1.969              4.168
 Vibration     3          0.603              1.953              3.548
 Vibration     4          0.620              1.898              2.619
 Vibration     5          0.628              1.870              2.355
 Vibration     6          0.647              1.811              1.961
 Vibration     7          0.652              1.796              1.885
 Vibration     8          0.665              1.755              1.699
 Vibration     9          0.675              1.725              1.586
 Vibration    10          0.684              1.699              1.494
 Vibration    11          0.692              1.675              1.420
 Vibration    12          0.703              1.645              1.335
 Vibration    13          0.726              1.579              1.175
 Vibration    14          0.727              1.576              1.167
 Vibration    15          0.738              1.545              1.102
 Vibration    16          0.754              1.502              1.020
 Vibration    17          0.777              1.442              0.916
 Vibration    18          0.824              1.323              0.745
 Vibration    19          0.838              1.292              0.707
 Vibration    20          0.906              1.138              0.542
 Vibration    21          0.925              1.098              0.506

                           ! Non-Optimized Parameters !
 Normal termination of Gaussian 16 at Thu Dec 10 09:31:16 2020.

 ----------------------------------------------------------------------
 # B3LYP/6-311++G(d,p) empiricaldispersion=gd3bj scf=xqc pop=npa geom=c
 heck
 ----------------------------------------------------------------------

 --------------------------------------
 CID_81251695_JID_4291_Energie_neutraal
 --------------------------------------
 Structure from the checkpoint file:  "JID_4291.chk"
 Charge =  0 Multiplicity = 1

 SCF Done:  E(RB3LYP) =  -611.137589595     A.U. after   13 cycles
 Normal termination of Gaussian 16 at Thu Dec 10 09:35:51 2020.

 ----------------------------------------------------------------------
 # B3LYP/6-311++G(d,p) empiricaldispersion=gd3bj scf=xqc pop=npa geom=c
 heck
 ----------------------------------------------------------------------

 ------------------------------------
 CID_81251695_JID_4291_Energie_kation
 ------------------------------------
 Structure from the checkpoint file:  "JID_4291.chk"
 Charge =  1 Multiplicity = 2

 SCF Done:  E(UB3LYP) =  -610.825851253     A.U. after   26 cycles
 Normal termination of Gaussian 16 at Thu Dec 10 09:48:36 2020.
 Gaussian 16:  ES64L-G16RevA.03 25-Dec-2016

 ----------------------------------------------------------------------
 # B3LYP/6-311++G(d,p) empiricaldispersion=gd3bj scf=xqc pop=npa geom=c
 heck
 ----------------------------------------------------------------------

 -----------------------------------
 CID_81251695_JID_4291_Energie_anion
 -----------------------------------
 Structure from the checkpoint file:  "JID_4291.chk"
 Charge = -1 Multiplicity = 2

                         Standard orientation:
 ---------------------------------------------------------------------
 Center     Atomic      Atomic             Coordinates (Angstroms)
 Number     Number       Type             X           Y           Z
 ---------------------------------------------------------------------
      1          6           0       -3.163707   -0.588904    1.354696
      2          6           0       -3.033218   -0.309290   -0.148091
      3          6           0       -2.127398   -1.331029   -0.862243
      4          6           0       -0.700664   -1.326087   -0.309786
      5          7           0       -0.209835    0.050721   -0.201161
      6          6           0       -1.006946    1.171056   -0.173946
      7          7           0       -0.279026    2.246807    0.022050
      8          7           0        1.037999    1.835704    0.126326
      9          6           0        1.069499    0.527075   -0.003026
     10          6           0        2.321482   -0.317107    0.063222
     11          6           0        3.552525    0.605713    0.085381
     12          6           0        2.314199   -1.190980    1.331461
     13          7           0        2.314391   -1.224454   -1.109623
     14          6           0       -2.482264    1.105056   -0.418007
     15          1           0       -3.896888    0.085874    1.809399
     16          1           0       -2.213724   -0.436840    1.879328
     17          1           0       -3.491654   -1.618396    1.540073
     18          1           0       -4.032734   -0.373759   -0.595338
     19          1           0       -2.532833   -2.343970   -0.758015
     20          1           0       -2.103088   -1.101869   -1.935403
     21          1           0       -0.683266   -1.782684    0.686715
     22          1           0       -0.005107   -1.880208   -0.941593
     23          1           0        3.537425    1.275964    0.948574
     24          1           0        4.461476   -0.006436    0.125110
     25          1           0        3.583694    1.230704   -0.811875
     26          1           0        1.473085   -1.888961    1.333357
     27          1           0        3.239446   -1.777560    1.387946
     28          1           0        2.254459   -0.563208    2.225034
     29          1           0        2.427648   -0.664451   -1.955106
     30          1           0        3.137349   -1.825450   -1.058251
     31          1           0       -2.681040    1.379393   -1.463224
     32          1           0       -2.980003    1.857394    0.202157
 ---------------------------------------------------------------------

 SCF Done:  E(UB3LYP) =  -611.128580390     A.U. after   30 cycles

 The electronic state is 2-A.
 Alpha  occ. eigenvalues --  -14.27291 -14.21375 -14.21103 -14.20343 -10.13056
 Alpha  occ. eigenvalues --  -10.12927 -10.12745 -10.11351 -10.08783 -10.08669
 Alpha  occ. eigenvalues --  -10.07903 -10.07117 -10.06623 -10.06393  -0.95507
 Alpha  occ. eigenvalues --   -0.82369  -0.80821  -0.73818  -0.70471  -0.66723
 Alpha  occ. eigenvalues --   -0.64928  -0.60691  -0.59623  -0.56141  -0.53949
 Alpha  occ. eigenvalues --   -0.50589  -0.47211  -0.43715  -0.41468  -0.39588
 Alpha  occ. eigenvalues --   -0.38859  -0.37000  -0.36179  -0.35300  -0.35254
 Alpha  occ. eigenvalues --   -0.34115  -0.32790  -0.31184  -0.30002  -0.29902
 Alpha  occ. eigenvalues --   -0.29350  -0.28272  -0.27285  -0.26861  -0.25471
 Alpha  occ. eigenvalues --   -0.24514  -0.24071  -0.23475  -0.20401  -0.18171
 Alpha  occ. eigenvalues --   -0.16093  -0.15423  -0.14634   0.03939
 Alpha virt. eigenvalues --    0.05719   0.07210   0.07910   0.08473   0.08694
 Alpha virt. eigenvalues --    0.09089   0.10341   0.10441   0.10632   0.11380
 Alpha virt. eigenvalues --    0.11680   0.11984   0.12451   0.13000   0.13538

  Beta  occ. eigenvalues --  -14.27289 -14.21375 -14.21098 -14.20302 -10.13053
  Beta  occ. eigenvalues --  -10.12925 -10.12743 -10.11332 -10.08769 -10.08657
  Beta  occ. eigenvalues --  -10.07874 -10.07088 -10.06588 -10.06375  -0.95500
  Beta  occ. eigenvalues --   -0.82357  -0.80775  -0.73790  -0.70440  -0.66680
  Beta  occ. eigenvalues --   -0.64890  -0.60646  -0.59580  -0.56090  -0.53916
  Beta  occ. eigenvalues --   -0.50553  -0.47165  -0.43666  -0.41426  -0.39556
  Beta  occ. eigenvalues --   -0.38819  -0.36960  -0.36139  -0.35263  -0.35225
  Beta  occ. eigenvalues --   -0.34089  -0.32759  -0.31150  -0.29971  -0.29867
  Beta  occ. eigenvalues --   -0.29313  -0.28236  -0.27254  -0.26822  -0.25445
  Beta  occ. eigenvalues --   -0.24477  -0.24027  -0.23432  -0.20389  -0.18159
  Beta  occ. eigenvalues --   -0.16059  -0.15414  -0.14617
  Beta virt. eigenvalues --    0.06247   0.06840   0.07826   0.08571   0.08962
  Beta virt. eigenvalues --    0.09328   0.09469   0.10552   0.10811   0.11025
  Beta virt. eigenvalues --    0.11608   0.12019   0.12288   0.12770   0.13297

 Mulliken charges and spin densities:
               1          2
     1  C    0.938385  -1.612893
     2  C   -0.948306   1.341157
     3  C    1.095796  -1.874608
     4  C   -0.380195   0.262168
     5  N    0.042430   0.055982
     6  C    0.630614  -0.544500
     7  N   -0.000593  -0.111338
     8  N   -0.175702   0.155977
     9  C    0.393514  -0.850029
    10  C   -0.074868   0.235636
    11  C   -0.133288  -0.432782
    12  C    0.319215  -0.916889
    13  N   -0.265324  -0.010988
    14  C   -0.688646   0.245595
    15  H   -0.111234   0.247454
    16  H    0.011767   0.149025
    17  H   -0.289461   0.447363
    18  H   -0.655481   0.890838
    19  H   -0.548213   0.749573
    20  H    0.003204   0.164029
    21  H    0.205017  -0.055025
    22  H    0.144330   0.135353
    23  H    0.127874   0.045770
    24  H   -0.210004   0.349073
    25  H    0.090001   0.087020
    26  H   -0.263866   0.420726
    27  H   -0.310059   0.471301
    28  H    0.097737   0.056343
    29  H   -0.025548   0.264523
    30  H   -0.122960   0.365624
    31  H   -0.023407   0.195909
    32  H    0.127274   0.072615
 Sum of Mulliken charges =  -1.00000   1.00000

 Dipole moment (field-independent basis, Debye):
    X=              1.3537    Y=              2.0036    Z=              0.6141  Tot=              2.4948
 Quadrupole moment (field-independent basis, Debye-Ang):
   XX=           -160.8166   YY=           -140.1799   ZZ=           -117.0682
   XY=             -3.7735   XZ=              0.8674   YZ=             -1.7324

 Summary of Natural Population Analysis:

                                       Natural Population
                Natural  -----------------------------------------------
    Atom  No    Charge         Core      Valence    Rydberg      Total
 -----------------------------------------------------------------------
      C    1   -0.28835      0.99965     2.28189    0.00681     3.28835
      C    2   -0.11064      0.99961     2.09977    0.01126     3.11064
      C    3   -0.19221      0.99961     2.18311    0.00948     3.19221
      C    4   -0.08791      0.99960     2.07789    0.01042     3.08791
      N    5   -0.21227      0.99957     2.70339    0.00931     3.71227
      C    6    0.19150      0.99959     1.79254    0.01637     2.80850
      N    7   -0.17146      0.99968     2.65890    0.01288     3.67146
      N    8   -0.16622      0.99968     2.65506    0.01148     3.66622
      C    9    0.18665      0.99954     1.79441    0.01940     2.81335
      C   10    0.03115      0.99956     1.95650    0.01279     2.96885
      C   11   -0.28691      0.99963     2.27983    0.00744     3.28691
      C   12   -0.28218      0.99962     2.27581    0.00675     3.28218
      N   13   -0.42282      0.99976     2.91199    0.01108     3.92282
      C   14   -0.20899      0.99958     2.19916    0.01026     3.20899
      H   15    0.10075      0.00000     0.39836    0.00089     0.39925
      H   16    0.09731      0.00000     0.40142    0.00127     0.40269
      H   17    0.10320      0.00000     0.39555    0.00126     0.39680
      H   18    0.10183      0.00000     0.39554    0.00263     0.39817
      H   19    0.10846      0.00000     0.38971    0.00183     0.39154
      H   20    0.10019      0.00000     0.39834    0.00147     0.39981
      H   21    0.09546      0.00000     0.40296    0.00158     0.40454
      H   22    0.12177      0.00000     0.37630    0.00193     0.37823
      H   23    0.10753      0.00000     0.39140    0.00107     0.39247
      H   24    0.09651      0.00000     0.40242    0.00107     0.40349
      H   25    0.10429      0.00000     0.39459    0.00111     0.39571
      H   26    0.10387      0.00000     0.39483    0.00129     0.39613
      H   27    0.10042      0.00000     0.39842    0.00116     0.39958
      H   28    0.10345      0.00000     0.39565    0.00090     0.39655
      H   29    0.17666      0.00000     0.32124    0.00210     0.32334
      H   30    0.17779      0.00000     0.31904    0.00317     0.32221
      H   31    0.10945      0.00000     0.38920    0.00135     0.39055
      H   32    0.11173      0.00000     0.38690    0.00137     0.38827
 =======================================================================
   * Total *   -0.00000     13.99467    38.82213    0.18319    53.00000

 Normal termination of Gaussian 16 at Thu Dec 10 10:03:10 2020.
