 Gaussian 16, Revision A.03,

 -----------------------------------------------------------
 # opt freq B3LYP/6-31G(d) empiricaldispersion=gd3bj scf=xqc
 -----------------------------------------------------------

 ------------------------------
 CID_69978180_JID_5045_neutraal
 ------------------------------
 Symbolic Z-matrix:
 Charge =  0 Multiplicity = 1

 SCF Done:  E(RB3LYP) =  -726.087099429     A.U. after   15 cycles
 SCF Done:  E(RB3LYP) =  -726.092734216     A.U. after   14 cycles
 SCF Done:  E(RB3LYP) =  -726.092299980     A.U. after   14 cycles
 SCF Done:  E(RB3LYP) =  -726.094060525     A.U. after   13 cycles
 SCF Done:  E(RB3LYP) =  -726.093660062     A.U. after   15 cycles
 SCF Done:  E(RB3LYP) =  -726.094625551     A.U. after   12 cycles
 SCF Done:  E(RB3LYP) =  -726.094826729     A.U. after   13 cycles
 SCF Done:  E(RB3LYP) =  -726.094955227     A.U. after   15 cycles
 SCF Done:  E(RB3LYP) =  -726.095036340     A.U. after   13 cycles
 SCF Done:  E(RB3LYP) =  -726.095090596     A.U. after   14 cycles
 SCF Done:  E(RB3LYP) =  -726.095212295     A.U. after   11 cycles
 SCF Done:  E(RB3LYP) =  -726.095212798     A.U. after    9 cycles
 SCF Done:  E(RB3LYP) =  -726.095213722     A.U. after   10 cycles
 SCF Done:  E(RB3LYP) =  -726.095213762     A.U. after    8 cycles
 SCF Done:  E(RB3LYP) =  -726.095213765     A.U. after    7 cycles
 Optimization completed.
    -- Stationary point found.
 Normal termination of Gaussian 16 at Thu Dec 10 14:48:17 2020.

 --------------------------------------------------------------------
 #N Geom=AllCheck Guess=TCheck SCRF=Check GenChk RB3LYP/6-31G(d) Freq
 --------------------------------------------------------------------

 Structure from the checkpoint file:  "JID_5045.chk"
 ------------------------------
 CID_69978180_JID_5045_neutraal
 ------------------------------
 Charge =  0 Multiplicity = 1

 SCF Done:  E(RB3LYP) =  -726.095213765     A.U. after    1 cycles

  Exact polarizability: 187.771   1.630 108.721  -3.801 -10.962  85.464
 Approx polarizability: 232.008  12.375 215.070  -6.402 -15.597 141.615

                      1                      2                      3
                      A                      A                      A
 Frequencies --     13.9103                29.4774                53.4616
 Red. masses --      5.3163                 5.8485                 6.5749
 Frc consts  --      0.0006                 0.0030                 0.0111
 IR Inten    --      1.4322                 1.1429                 0.9182

                      4                      5                      6
                      A                      A                      A
 Frequencies --     65.7607                92.3733               147.1833
 Red. masses --      3.4311                 5.4861                 3.3746
 Frc consts  --      0.0087                 0.0276                 0.0431
 IR Inten    --      0.9825                 0.8987                 1.5103

                      7                      8                      9
                      A                      A                      A
 Frequencies --    162.8788               208.7142               223.5677
 Red. masses --      5.3915                 5.7213                 4.6278
 Frc consts  --      0.0843                 0.1468                 0.1363
 IR Inten    --      0.1901                 1.7599                 9.6362

                     10                     11                     12
                      A                      A                      A
 Frequencies --    252.8469               291.6271               337.8384
 Red. masses --      1.2046                 5.8952                 2.4606
 Frc consts  --      0.0454                 0.2954                 0.1655
 IR Inten    --      0.3285                 9.2883                11.3647

                     13                     14                     15
                      A                      A                      A
 Frequencies --    384.2393               401.3745               421.7358
 Red. masses --      6.2247                 7.5306                 3.0860
 Frc consts  --      0.5415                 0.7148                 0.3234
 IR Inten    --      4.0697                 1.6816                 0.0360

                     16                     17                     18
                      A                      A                      A
 Frequencies --    445.5899               513.9666               523.9272
 Red. masses --      6.2187                 3.9913                 6.0411
 Frc consts  --      0.7275                 0.6212                 0.9770
 IR Inten    --      3.4325                11.1680                10.1715

                     19                     20                     21
                      A                      A                      A
 Frequencies --    572.2771               622.8835               636.4919
 Red. masses --      6.2739                 7.1977                 7.1779
 Frc consts  --      1.2106                 1.6453                 1.7133
 IR Inten    --     22.3116                10.7407                12.3020

                     22                     23                     24
                      A                      A                      A
 Frequencies --    698.9518               717.3020               763.2890
 Red. masses --      2.5324                 4.1486                 1.6749
 Frc consts  --      0.7289                 1.2577                 0.5749
 IR Inten    --      9.4403                66.4699                33.0882

                     25                     26                     27
                      A                      A                      A
 Frequencies --    794.1834               839.3757               843.3433
 Red. masses --      5.1469                 1.3942                 3.7882
 Frc consts  --      1.9127                 0.5787                 1.5874
 IR Inten    --     10.5335                 3.7050                17.3958

                     28                     29                     30
                      A                      A                      A
 Frequencies --    877.4725               882.8643               924.9290
 Red. masses --      2.0990                 3.4951                 1.7209
 Frc consts  --      0.9522                 1.6051                 0.8674
 IR Inten    --     22.8469                 2.4940                 6.7485

                     31                     32                     33
                      A                      A                      A
 Frequencies --    962.5825               972.3646               989.5423
 Red. masses --      1.3374                 4.8587                 1.2438
 Frc consts  --      0.7301                 2.7066                 0.7176
 IR Inten    --      0.1562                21.8615                 0.1269

                     34                     35                     36
                      A                      A                      A
 Frequencies --   1011.6039              1024.4775              1055.9911
 Red. masses --      1.2005                 6.2245                 2.0992
 Frc consts  --      0.7238                 3.8491                 1.3792
 IR Inten    --     19.8647                 5.7614                 2.6785

                     37                     38                     39
                      A                      A                      A
 Frequencies --   1111.4281              1170.6708              1184.5838
 Red. masses --      1.4935                 4.0945                 1.2775
 Frc consts  --      1.0870                 3.3062                 1.0562
 IR Inten    --      6.2941               469.7836                 1.7704

                     40                     41                     42
                      A                      A                      A
 Frequencies --   1192.5663              1202.6620              1209.8409
 Red. masses --      1.1149                 1.2219                 1.5460
 Frc consts  --      0.9342                 1.0413                 1.3333
 IR Inten    --     10.5707                90.2049               116.1899

                     43                     44                     45
                      A                      A                      A
 Frequencies --   1240.7208              1291.8132              1315.4284
 Red. masses --      3.9572                 5.7170                 1.4035
 Frc consts  --      3.5891                 5.6211                 1.4308
 IR Inten    --    590.7382                67.1148                10.2302

                     46                     47                     48
                      A                      A                      A
 Frequencies --   1345.1113              1349.6565              1367.8987
 Red. masses --      6.6258                 1.7819                 3.1960
 Frc consts  --      7.0633                 1.9125                 3.5235
 IR Inten    --     61.0108                14.8226                18.2086

                     49                     50                     51
                      A                      A                      A
 Frequencies --   1381.3073              1494.5929              1506.0823
 Red. masses --      1.3116                 1.1829                 2.2843
 Frc consts  --      1.4745                 1.5568                 3.0528
 IR Inten    --     56.6094                 7.6451                 3.1329

                     52                     53                     54
                      A                      A                      A
 Frequencies --   1520.3386              1529.4376              1542.9206
 Red. masses --      1.0463                 1.0487                 2.2469
 Frc consts  --      1.4249                 1.4453                 3.1515
 IR Inten    --      8.1286                22.6065                67.6697

                     55                     56                     57
                      A                      A                      A
 Frequencies --   1654.6384              1662.1768              1679.7413
 Red. masses --      5.8177                 6.1151                 4.6609
 Frc consts  --      9.3845                 9.9542                 7.7482
 IR Inten    --     19.5669                15.2114               341.5224

                     58                     59                     60
                      A                      A                      A
 Frequencies --   1756.3244              1808.8125              3051.0223
 Red. masses --     11.9799                12.6158                 1.0328
 Frc consts  --     21.7727                24.3193                 5.6644
 IR Inten    --    216.9858               231.1415                32.7307

                     61                     62                     63
                      A                      A                      A
 Frequencies --   3119.9460              3180.6623              3191.2445
 Red. masses --      1.1075                 1.1028                 1.0856
 Frc consts  --      6.3517                 6.5732                 6.5137
 IR Inten    --     25.9875                17.5561                 0.0605

                     64                     65                     66
                      A                      A                      A
 Frequencies --   3201.3177              3213.2200              3223.2968
 Red. masses --      1.0900                 1.0945                 1.0895
 Frc consts  --      6.5815                 6.6579                 6.6691
 IR Inten    --     14.5431                27.7733                 6.5433

                     67                     68                     69
                      A                      A                      A
 Frequencies --   3224.1223              3250.6125              3266.0200
 Red. masses --      1.0953                 1.0933                 1.0927
 Frc consts  --      6.7085                 6.8064                 6.8674
 IR Inten    --      5.5405                 1.6773                 2.1741

 - Thermochemistry -
 -------------------
 Temperature   298.150 Kelvin.  Pressure   1.00000 Atm.
 Atom     1 has atomic number  6 and mass  12.00000

 Molecular mass:   206.05791 amu.
 Principal axes and moments of inertia in atomic units:
                           1         2         3
     Eigenvalues --  1051.566547491.844717952.65855
           X            1.00000  -0.00310   0.00055
           Y            0.00313   0.99858  -0.05311
           Z           -0.00039   0.05311   0.99859
 This molecule is an asymmetric top.
 Rotational symmetry number  1.
 Warning -- assumption of classical behavior for rotation
           may cause significant error
 Rotational temperatures (Kelvin)      0.08237     0.01156     0.01089
 Rotational constants (GHZ):           1.71624     0.24089     0.22694
 Zero-point vibrational energy     503631.5 (Joules/Mol)
                                  120.37082 (Kcal/Mol)
 Warning -- explicit consideration of  19 degrees of freedom as
           vibrations may cause significant error
 Vibrational temperatures:     20.01    42.41    76.92    94.62   132.90
          (Kelvin)            211.76   234.35   300.29   321.66   363.79
                              419.59   486.07   552.83   577.49   606.78
                              641.10   739.48   753.81   823.38   896.19
                              915.77  1005.64  1032.04  1098.20  1142.65
                             1207.67  1213.38  1262.49  1270.24  1330.77
                             1384.94  1399.02  1423.73  1455.47  1473.99
                             1519.34  1599.10  1684.33  1704.35  1715.84
                             1730.36  1740.69  1785.12  1858.63  1892.61
                             1935.32  1941.85  1968.10  1987.39  2150.39
                             2166.92  2187.43  2200.52  2219.92  2380.66
                             2391.50  2416.77  2526.96  2602.48  4389.74
                             4488.91  4576.26  4591.49  4605.98  4623.11
                             4637.61  4638.79  4676.91  4699.07

 Zero-point correction=                           0.191823 (Hartree/Particle)
 Thermal correction to Energy=                    0.205655
 Thermal correction to Enthalpy=                  0.206599
 Thermal correction to Gibbs Free Energy=         0.148210
 Sum of electronic and zero-point Energies=           -725.903391
 Sum of electronic and thermal Energies=              -725.889559
 Sum of electronic and thermal Enthalpies=            -725.888615
 Sum of electronic and thermal Free Energies=         -725.947003

                     E (Thermal)             CV                S
                      KCal/Mol        Cal/Mol-Kelvin    Cal/Mol-Kelvin
 Total                  129.050             50.273            122.890
 Electronic               0.000              0.000              0.000
 Translational            0.889              2.981             41.873
 Rotational               0.889              2.981             32.505
 Vibrational            127.273             44.312             48.512
 Vibration     1          0.593              1.986              7.355
 Vibration     2          0.593              1.984              5.864
 Vibration     3          0.596              1.976              4.685
 Vibration     4          0.597              1.971              4.276
 Vibration     5          0.602              1.955              3.609
 Vibration     6          0.617              1.906              2.708
 Vibration     7          0.623              1.888              2.516
 Vibration     8          0.642              1.827              2.055
 Vibration     9          0.649              1.805              1.930
 Vibration    10          0.664              1.758              1.711
 Vibration    11          0.687              1.689              1.465
 Vibration    12          0.718              1.600              1.222
 Vibration    13          0.753              1.504              1.022
 Vibration    14          0.767              1.467              0.958
 Vibration    15          0.784              1.423              0.886
 Vibration    16          0.805              1.371              0.809
 Vibration    17          0.869              1.219              0.624
 Vibration    18          0.879              1.197              0.601
 Vibration    19          0.928              1.091              0.500

 Optimization completed.
    -- Stationary point found.
 Normal termination of Gaussian 16 at Thu Dec 10 14:53:46 2020.

 ----------------------------------------------------------------------
 # B3LYP/6-311++G(d,p) empiricaldispersion=gd3bj scf=xqc pop=npa geom=c
 heck
 ----------------------------------------------------------------------

 --------------------------------------
 CID_69978180_JID_5045_Energie_neutraal
 --------------------------------------
 Structure from the checkpoint file:  "JID_5045.chk"
 Charge =  0 Multiplicity = 1

 SCF Done:  E(RB3LYP) =  -726.302191551     A.U. after   16 cycles
 Normal termination of Gaussian 16 at Thu Dec 10 14:55:58 2020.

 ----------------------------------------------------------------------
 # B3LYP/6-311++G(d,p) empiricaldispersion=gd3bj scf=xqc pop=npa geom=c
 heck
 ----------------------------------------------------------------------

 ------------------------------------
 CID_69978180_JID_5045_Energie_kation
 ------------------------------------
 Structure from the checkpoint file:  "JID_5045.chk"
 Charge =  1 Multiplicity = 2

 SCF Done:  E(UB3LYP) =  -725.987179574     A.U. after   33 cycles
 SCF Done:  E(UB3LYP) =  -725.987179574     a.u. after    1 cycles
 Normal termination of Gaussian 16 at Thu Dec 10 15:02:57 2020.
 Gaussian 16:  ES64L-G16RevA.03 25-Dec-2016

 ----------------------------------------------------------------------
 # B3LYP/6-311++G(d,p) empiricaldispersion=gd3bj scf=xqc pop=npa geom=c
 heck
 ----------------------------------------------------------------------

 -----------------------------------
 CID_69978180_JID_5045_Energie_anion
 -----------------------------------
 Structure from the checkpoint file:  "JID_5045.chk"
 Charge = -1 Multiplicity = 2

                         Standard orientation:
 ---------------------------------------------------------------------
 Center     Atomic      Atomic             Coordinates (Angstroms)
 Number     Number       Type             X           Y           Z
 ---------------------------------------------------------------------
      1          6           0       -5.417913   -0.414062   -0.433567
      2          8           0       -4.279562   -1.272849   -0.521585
      3          6           0       -3.077752   -0.759668   -0.239449
      4          6           0       -2.809191    0.516501    0.127469
      5          6           0       -1.488764    1.063107    0.410320
      6          8           0       -1.321538    2.228107    0.739293
      7          6           0       -0.251820    0.140804    0.305259
      8          8           0       -0.267944   -1.066222    0.399147
      9          8           0        0.851354    0.893447    0.112996
     10          6           0        2.110405    0.296485    0.003050
     11          6           0        2.570234   -0.655079    0.910888
     12          6           0        3.868919   -1.142890    0.765087
     13          6           0        4.690979   -0.684444   -0.265603
     14          6           0        4.212722    0.274852   -1.159575
     15          6           0        2.916502    0.770789   -1.027806
     16          1           0       -6.276335   -1.030164   -0.700990
     17          1           0       -5.325444    0.424295   -1.133003
     18          1           0       -5.534909   -0.029977    0.585863
     19          1           0       -2.303689   -1.511277   -0.330358
     20          1           0       -3.598618    1.253401    0.226124
     21          1           0        1.927944   -1.009113    1.706645
     22          1           0        4.237480   -1.886434    1.465650
     23          1           0        5.700369   -1.070991   -0.369519
     24          1           0        4.847442    0.641153   -1.961022
     25          1           0        2.521360    1.520882   -1.704632
 ---------------------------------------------------------------------

 SCF Done:  E(UB3LYP) =  -726.326305188     A.U. after   24 cycles

 The electronic state is 2-A.
 Alpha  occ. eigenvalues --  -19.03300 -19.02574 -18.94223 -18.90539 -10.12004
 Alpha  occ. eigenvalues --  -10.11835 -10.11701 -10.07345 -10.07285 -10.07179
 Alpha  occ. eigenvalues --  -10.06703 -10.06438 -10.06204 -10.05685 -10.01329
 Alpha  occ. eigenvalues --   -0.96324  -0.95095  -0.86887  -0.84868  -0.74812
 Alpha  occ. eigenvalues --   -0.64485  -0.64118  -0.63883  -0.59587  -0.53720
 Alpha  occ. eigenvalues --   -0.50662  -0.47791  -0.45799  -0.42165  -0.39606
 Alpha  occ. eigenvalues --   -0.37963  -0.36927  -0.36022  -0.35789  -0.34390
 Alpha  occ. eigenvalues --   -0.32270  -0.32149  -0.31122  -0.28665  -0.27931
 Alpha  occ. eigenvalues --   -0.26428  -0.26012  -0.24824  -0.24402  -0.23821
 Alpha  occ. eigenvalues --   -0.22683  -0.21591  -0.20694  -0.18442  -0.15427
 Alpha  occ. eigenvalues --   -0.13921  -0.12817  -0.09990  -0.06812   0.04011
 Alpha virt. eigenvalues --    0.07347   0.07673   0.09025   0.09112   0.09714
 Alpha virt. eigenvalues --    0.10344   0.10786   0.11851   0.12417   0.12659
 Alpha virt. eigenvalues --    0.13792   0.14523   0.14942   0.15044   0.15662

  Beta  occ. eigenvalues --  -19.03199 -19.02554 -18.93893 -18.89814 -10.11838
  Beta  occ. eigenvalues --  -10.11737 -10.11656 -10.07352 -10.07183 -10.06954
  Beta  occ. eigenvalues --  -10.06646 -10.06418 -10.06184 -10.05388 -10.01453
  Beta  occ. eigenvalues --   -0.96087  -0.94853  -0.86369  -0.83609  -0.74747
  Beta  occ. eigenvalues --   -0.64428  -0.63953  -0.63598  -0.59441  -0.53312
  Beta  occ. eigenvalues --   -0.50606  -0.47192  -0.45610  -0.41817  -0.39525
  Beta  occ. eigenvalues --   -0.37679  -0.36783  -0.35772  -0.35610  -0.34241
  Beta  occ. eigenvalues --   -0.32166  -0.31951  -0.30680  -0.28304  -0.27374
  Beta  occ. eigenvalues --   -0.26219  -0.25585  -0.24600  -0.23893  -0.23057
  Beta  occ. eigenvalues --   -0.22381  -0.21207  -0.18798  -0.16931  -0.15262
  Beta  occ. eigenvalues --   -0.13502  -0.12440  -0.08547  -0.06130
  Beta virt. eigenvalues --    0.07326   0.07643   0.08992   0.09154   0.09645
  Beta virt. eigenvalues --    0.10314   0.10764   0.11563   0.12393   0.12486
  Beta virt. eigenvalues --    0.12657   0.13795   0.14525   0.14943   0.15663

 Mulliken charges and spin densities:
               1          2
     1  C   -0.295534  -0.012296
     2  O   -0.126354   0.012686
     3  C   -0.535608   0.240771
     4  C    0.700905  -0.119028
     5  C   -0.608028   0.218577
     6  O   -0.409952   0.253711
     7  C   -0.326690   0.197837
     8  O   -0.308825   0.117917
     9  O    0.067447  -0.013792
    10  C   -0.357095   0.022301
    11  C    0.070711   0.009035
    12  C   -0.151627  -0.000468
    13  C   -0.203786   0.037437
    14  C   -0.208114  -0.003111
    15  C    0.213219   0.034377
    16  H    0.145442  -0.000396
    17  H    0.126404   0.009270
    18  H    0.122763   0.012429
    19  H    0.219431  -0.014678
    20  H    0.141939   0.001561
    21  H    0.172763  -0.002366
    22  H    0.138509   0.001743
    23  H    0.113860  -0.003741
    24  H    0.134493   0.000274
    25  H    0.163726  -0.000047
 Sum of Mulliken charges =  -1.00000   1.00000

 Dipole moment (field-independent basis, Debye):
    X=              2.0364    Y=             -2.3667    Z=             -1.6858  Tot=              3.5483
 Quadrupole moment (field-independent basis, Debye-Ang):
   XX=           -108.0277   YY=           -111.8298   ZZ=            -92.5045
   XY=             -0.1178   XZ=              1.0418   YZ=             -7.2599

 Summary of Natural Population Analysis:

                                       Natural Population
                Natural  -----------------------------------------------
    Atom  No    Charge         Core      Valence    Rydberg      Total
 -----------------------------------------------------------------------
      C    1   -0.10412      0.99962     2.09636    0.00814     3.10412
      O    2   -0.26433      0.99986     3.25447    0.01000     4.26433
      C    3    0.16343      0.99949     1.82430    0.01278     2.83657
      C    4   -0.23546      0.99955     2.22503    0.01088     3.23546
      C    5    0.23962      0.99961     1.73787    0.02290     2.76038
      O    6   -0.21932      0.99988     3.21274    0.00670     4.21932
      C    7    0.40983      0.99967     1.56458    0.02592     2.59017
      O    8   -0.28951      0.99987     3.28359    0.00605     4.28951
      O    9   -0.26789      0.99984     3.25792    0.01013     4.26789
      C   10    0.16800      0.99935     1.82069    0.01196     2.83200
      C   11   -0.11204      0.99951     2.10369    0.00884     3.11204
      C   12   -0.10381      0.99958     2.09522    0.00901     3.10381
      C   13   -0.11164      0.99958     2.10264    0.00943     3.11164
      C   14   -0.10693      0.99958     2.09838    0.00898     3.10693
      C   15   -0.11449      0.99952     2.10617    0.00880     3.11449
      H   16    0.08420      0.00000     0.41499    0.00082     0.41580
      H   17    0.08335      0.00000     0.41499    0.00166     0.41665
      H   18    0.08359      0.00000     0.41475    0.00165     0.41641
      H   19    0.10022      0.00000     0.39869    0.00110     0.39978
      H   20    0.09394      0.00000     0.40333    0.00272     0.40606
      H   21    0.11417      0.00000     0.38485    0.00098     0.38583
      H   22    0.09495      0.00000     0.40407    0.00099     0.40505
      H   23    0.09335      0.00000     0.40566    0.00099     0.40665
      H   24    0.09450      0.00000     0.40450    0.00100     0.40550
      H   25    0.10642      0.00000     0.39259    0.00099     0.39358
 =======================================================================
   * Total *   -0.00000     14.99451    38.82206    0.18342    54.00000

 Normal termination of Gaussian 16 at Thu Dec 10 15:10:19 2020.
