 Gaussian 16, Revision A.03,

 -----------------------------------------------------------
 # opt freq B3LYP/6-31G(d) empiricaldispersion=gd3bj scf=xqc
 -----------------------------------------------------------

 -------------------------------
 CID_150181357_JID_3492_neutraal
 -------------------------------
 Symbolic Z-matrix:
 Charge =  0 Multiplicity = 1

 SCF Done:  E(RB3LYP) =  -659.461258236     A.U. after   18 cycles
 SCF Done:  E(RB3LYP) =  -659.469130251     A.U. after   15 cycles
 SCF Done:  E(RB3LYP) =  -659.470388065     A.U. after   14 cycles
 SCF Done:  E(RB3LYP) =  -659.471290731     A.U. after   14 cycles
 SCF Done:  E(RB3LYP) =  -659.471514611     A.U. after   13 cycles
 SCF Done:  E(RB3LYP) =  -659.471758364     A.U. after   12 cycles
 SCF Done:  E(RB3LYP) =  -659.471926392     A.U. after   12 cycles
 SCF Done:  E(RB3LYP) =  -659.472110478     A.U. after   13 cycles
 SCF Done:  E(RB3LYP) =  -659.472218758     A.U. after   12 cycles
 SCF Done:  E(RB3LYP) =  -659.472458210     A.U. after   13 cycles
 SCF Done:  E(RB3LYP) =  -659.472761970     A.U. after    8 cycles
 SCF Done:  E(RB3LYP) =  -659.472762001     A.U. after    8 cycles
 SCF Done:  E(RB3LYP) =  -659.472762018     A.U. after    8 cycles
 SCF Done:  E(RB3LYP) =  -659.472762023     A.U. after    8 cycles
 SCF Done:  E(RB3LYP) =  -659.472762022     A.U. after    7 cycles
 Optimization completed.
    -- Stationary point found.
 Normal termination of Gaussian 16 at Wed Dec  9 23:35:40 2020.

 --------------------------------------------------------------------
 #N Geom=AllCheck Guess=TCheck SCRF=Check GenChk RB3LYP/6-31G(d) Freq
 --------------------------------------------------------------------

 Structure from the checkpoint file:  "JID_3492.chk"
 -------------------------------
 CID_150181357_JID_3492_neutraal
 -------------------------------
 Charge =  0 Multiplicity = 1

 SCF Done:  E(RB3LYP) =  -659.472762022     A.U. after    1 cycles

  Exact polarizability: 117.095 -20.399 105.094  12.694   1.928  78.441
 Approx polarizability: 175.836 -59.608 174.803  24.428  -0.720 122.068

                      1                      2                      3
                      A                      A                      A
 Frequencies --     17.1806                37.8348                60.3353
 Red. masses --      5.5700                 4.2981                 5.3170
 Frc consts  --      0.0010                 0.0036                 0.0114
 IR Inten    --      2.0041                 3.3475                 3.6782

                      4                      5                      6
                      A                      A                      A
 Frequencies --     72.6506                85.5271               117.5519
 Red. masses --      3.7505                 3.3218                 1.7153
 Frc consts  --      0.0117                 0.0143                 0.0140
 IR Inten    --      2.1330                 0.1478                 0.1964

                      7                      8                      9
                      A                      A                      A
 Frequencies --    119.0929               146.4030               161.1893
 Red. masses --      2.9469                 1.9363                 2.5281
 Frc consts  --      0.0246                 0.0245                 0.0387
 IR Inten    --      0.3437                 2.4663                 0.7867

                     10                     11                     12
                      A                      A                      A
 Frequencies --    192.5212               248.3213               291.0201
 Red. masses --      5.1670                 2.7820                 2.9713
 Frc consts  --      0.1128                 0.1011                 0.1483
 IR Inten    --      2.7299                 8.0965                 1.9412

                     13                     14                     15
                      A                      A                      A
 Frequencies --    354.7995               414.4337               447.0807
 Red. masses --      2.9347                 2.7858                 2.5363
 Frc consts  --      0.2177                 0.2819                 0.2987
 IR Inten    --     10.7205                 1.1642                 6.2031

                     16                     17                     18
                      A                      A                      A
 Frequencies --    463.9219               494.7305               537.6212
 Red. masses --      3.2800                 8.6495                 2.3874
 Frc consts  --      0.4159                 1.2473                 0.4066
 IR Inten    --      3.6378                 1.5204                55.4378

                     19                     20                     21
                      A                      A                      A
 Frequencies --    577.8783               583.7934               627.5457
 Red. masses --      8.1066                 4.1223                 2.3732
 Frc consts  --      1.5950                 0.8278                 0.5506
 IR Inten    --      3.7713                16.3401                47.0767

                     22                     23                     24
                      A                      A                      A
 Frequencies --    657.0957               691.7071               740.2041
 Red. masses --      2.8012                 3.6835                 9.9963
 Frc consts  --      0.7126                 1.0384                 3.2269
 IR Inten    --     56.0807                 5.0496                57.7964

                     25                     26                     27
                      A                      A                      A
 Frequencies --    768.0550               861.6192               904.1900
 Red. masses --      2.9098                 6.7872                 2.8758
 Frc consts  --      1.0113                 2.9687                 1.3852
 IR Inten    --      6.6435                 3.2609                37.2741

                     28                     29                     30
                      A                      A                      A
 Frequencies --    946.1491              1007.1861              1049.2859
 Red. masses --      3.0555                 2.3318                 1.8819
 Frc consts  --      1.6116                 1.3937                 1.2208
 IR Inten    --      5.5621                 8.6312                33.1866

                     31                     32                     33
                      A                      A                      A
 Frequencies --   1087.8880              1126.7047              1140.3191
 Red. masses --      1.3904                 2.4023                 1.2341
 Frc consts  --      0.9695                 1.7968                 0.9455
 IR Inten    --      2.9783                42.2303                 3.7945

                     34                     35                     36
                      A                      A                      A
 Frequencies --   1175.4132              1189.7685              1237.9044
 Red. masses --      2.0374                 1.4136                 1.4324
 Frc consts  --      1.6585                 1.1790                 1.2933
 IR Inten    --     86.9113                 5.3201                 8.8964

                     37                     38                     39
                      A                      A                      A
 Frequencies --   1281.0490              1285.9934              1319.4035
 Red. masses --      1.5398                 4.3240                 6.8087
 Frc consts  --      1.4888                 4.2132                 6.9834
 IR Inten    --     21.0860                39.1725               110.7719

                     40                     41                     42
                      A                      A                      A
 Frequencies --   1348.4501              1368.7190              1416.9027
 Red. masses --      2.4258                 1.4223                 1.4877
 Frc consts  --      2.5988                 1.5699                 1.7598
 IR Inten    --    523.3407                 5.8381                78.9169

                     43                     44                     45
                      A                      A                      A
 Frequencies --   1446.4343              1455.1282              1486.4306
 Red. masses --      1.7347                 1.3318                 1.4578
 Frc consts  --      2.1384                 1.6615                 1.8978
 IR Inten    --     60.2708                31.5304                22.8999

                     46                     47                     48
                      A                      A                      A
 Frequencies --   1498.1855              1509.8048              1518.9932
 Red. masses --      1.2495                 1.0827                 1.1406
 Frc consts  --      1.6525                 1.4541                 1.5505
 IR Inten    --     24.7983                 2.1213                52.4705

                     49                     50                     51
                      A                      A                      A
 Frequencies --   1527.0863              1530.7806              1538.3457
 Red. masses --      1.0756                 1.0757                 1.0625
 Frc consts  --      1.4779                 1.4852                 1.4814
 IR Inten    --      8.0707                14.9601                16.4133

                     52                     53                     54
                      A                      A                      A
 Frequencies --   1569.5233              1744.1572              1812.2870
 Red. masses --      1.2342                 9.1743                 9.4483
 Frc consts  --      1.7913                16.4435                18.2834
 IR Inten    --     48.2444               250.2105               364.5293

                     55                     56                     57
                      A                      A                      A
 Frequencies --   2307.2568              3035.2085              3042.5788
 Red. masses --     13.9818                 1.0431                 1.0459
 Frc consts  --     43.8536                 5.6616                 5.7048
 IR Inten    --    527.2318                30.0380                47.5396

                     58                     59                     60
                      A                      A                      A
 Frequencies --   3092.3198              3093.8131              3099.6537
 Red. masses --      1.0673                 1.0985                 1.0993
 Frc consts  --      6.0132                 6.1947                 6.2229
 IR Inten    --      3.7779                42.9435                23.3371

                     61                     62                     63
                      A                      A                      A
 Frequencies --   3109.2199              3153.0207              3166.6388
 Red. masses --      1.0596                 1.1033                 1.1042
 Frc consts  --      6.0352                 6.4627                 6.5236
 IR Inten    --     18.8521                 5.8292                16.2507

                     64                     65                     66
                      A                      A                      A
 Frequencies --   3196.5786              3200.3063              3618.1149
 Red. masses --      1.0924                 1.0966                 1.0765
 Frc consts  --      6.5764                 6.6171                 8.3032
 IR Inten    --     21.4205                 1.7648                47.7212

 - Thermochemistry -
 -------------------
 Temperature   298.150 Kelvin.  Pressure   1.00000 Atm.
 Atom     1 has atomic number  6 and mass  12.00000

 Molecular mass:   185.09127 amu.
 Principal axes and moments of inertia in atomic units:
                           1         2         3
     Eigenvalues --  1374.953913562.103584037.12879
           X            0.99961   0.02768   0.00393
           Y           -0.02774   0.99946   0.01752
           Z           -0.00344  -0.01762   0.99984
 This molecule is an asymmetric top.
 Rotational symmetry number  1.
 Warning -- assumption of classical behavior for rotation
           may cause significant error
 Rotational temperatures (Kelvin)      0.06299     0.02432     0.02145
 Rotational constants (GHZ):           1.31258     0.50665     0.44704
 Zero-point vibrational energy     504867.8 (Joules/Mol)
                                  120.66630 (Kcal/Mol)
 Warning -- explicit consideration of  20 degrees of freedom as
           vibrations may cause significant error
 Vibrational temperatures:     24.72    54.44    86.81   104.53   123.05
          (Kelvin)            169.13   171.35   210.64   231.92   277.00
                              357.28   418.71   510.48   596.28   643.25
                              667.48   711.81   773.52   831.44   839.95
                              902.90   945.41   995.21  1064.99  1105.06
                             1239.68  1300.93  1361.30  1449.12  1509.69
                             1565.23  1621.08  1640.66  1691.16  1711.81
                             1781.07  1843.14  1850.26  1898.33  1940.12
                             1969.28  2038.61  2081.10  2093.60  2138.64
                             2155.55  2172.27  2185.49  2197.14  2202.45
                             2213.34  2258.19  2509.45  2607.48  3319.63
                             4366.99  4377.59  4449.16  4451.31  4459.71
                             4473.47  4536.49  4556.09  4599.16  4604.53
                             5205.66

 Zero-point correction=                           0.192294 (Hartree/Particle)
 Thermal correction to Energy=                    0.206397
 Thermal correction to Enthalpy=                  0.207341
 Thermal correction to Gibbs Free Energy=         0.148910
 Sum of electronic and zero-point Energies=           -659.280468
 Sum of electronic and thermal Energies=              -659.266365
 Sum of electronic and thermal Enthalpies=            -659.265421
 Sum of electronic and thermal Free Energies=         -659.323852

                     E (Thermal)             CV                S
                      KCal/Mol        Cal/Mol-Kelvin    Cal/Mol-Kelvin
 Total                  129.516             48.451            122.979
 Electronic               0.000              0.000              0.000
 Translational            0.889              2.981             41.553
 Rotational               0.889              2.981             31.359
 Vibrational            127.739             42.489             50.067
 Vibration     1          0.593              1.986              6.936
 Vibration     2          0.594              1.982              5.369
 Vibration     3          0.597              1.973              4.446
 Vibration     4          0.599              1.967              4.080
 Vibration     5          0.601              1.959              3.760
 Vibration     6          0.608              1.935              3.140
 Vibration     7          0.609              1.933              3.115
 Vibration     8          0.617              1.907              2.718
 Vibration     9          0.622              1.890              2.536
 Vibration    10          0.634              1.850              2.203
 Vibration    11          0.662              1.766              1.742
 Vibration    12          0.687              1.690              1.468
 Vibration    13          0.731              1.565              1.145
 Vibration    14          0.778              1.439              0.911
 Vibration    15          0.806              1.367              0.805
 Vibration    16          0.821              1.330              0.755
 Vibration    17          0.850              1.262              0.671
 Vibration    18          0.893              1.167              0.570
 Vibration    19          0.934              1.079              0.489
 Vibration    20          0.941              1.066              0.478

 Optimization completed.
    -- Stationary point found.
 Normal termination of Gaussian 16 at Wed Dec  9 23:42:05 2020.

 ----------------------------------------------------------------------
 # B3LYP/6-311++G(d,p) empiricaldispersion=gd3bj scf=xqc pop=npa geom=c
 heck
 ----------------------------------------------------------------------

 ---------------------------------------
 CID_150181357_JID_3492_Energie_neutraal
 ---------------------------------------
 Structure from the checkpoint file:  "JID_3492.chk"
 Charge =  0 Multiplicity = 1

 SCF Done:  E(RB3LYP) =  -659.669329529     A.U. after   17 cycles
 Normal termination of Gaussian 16 at Wed Dec  9 23:45:07 2020.

 ----------------------------------------------------------------------
 # B3LYP/6-311++G(d,p) empiricaldispersion=gd3bj scf=xqc pop=npa geom=c
 heck
 ----------------------------------------------------------------------

 -------------------------------------
 CID_150181357_JID_3492_Energie_kation
 -------------------------------------
 Structure from the checkpoint file:  "JID_3492.chk"
 Charge =  1 Multiplicity = 2

 SCF Done:  E(UB3LYP) =  -659.339572390     A.U. after   32 cycles
 Normal termination of Gaussian 16 at Wed Dec  9 23:53:18 2020.
 Gaussian 16:  ES64L-G16RevA.03 25-Dec-2016

 ----------------------------------------------------------------------
 # B3LYP/6-311++G(d,p) empiricaldispersion=gd3bj scf=xqc pop=npa geom=c
 heck
 ----------------------------------------------------------------------

 ------------------------------------
 CID_150181357_JID_3492_Energie_anion
 ------------------------------------
 Structure from the checkpoint file:  "JID_3492.chk"
 Charge = -1 Multiplicity = 2

                         Standard orientation:
 ---------------------------------------------------------------------
 Center     Atomic      Atomic             Coordinates (Angstroms)
 Number     Number       Type             X           Y           Z
 ---------------------------------------------------------------------
      1          6           0        2.891318    1.639277    0.533336
      2          7           0        1.908371    0.958072   -0.300987
      3          6           0        0.781723    1.789034   -0.703428
      4          6           0        1.982581   -0.407428   -0.395585
      5          8           0        2.874297   -1.053468    0.155256
      6          6           0        0.906653   -1.174314   -1.158762
      7          6           0        0.113000   -2.026110   -0.152369
      8          7           0       -0.422918   -1.233514    0.953596
      9          6           0       -1.416142   -0.311950    0.865255
     10          8           0       -1.673493    0.533367    1.704450
     11          7           0       -2.150478   -0.468987   -0.367595
     12          7           0       -3.085524    0.340523   -0.492908
     13          7           0       -3.956381    1.033378   -0.707247
     14          1           0        2.434930    1.977445    1.473735
     15          1           0        3.282448    2.515069    0.003461
     16          1           0        3.699072    0.944767    0.755377
     17          1           0        0.200155    1.322790   -1.495916
     18          1           0        0.115971    1.995812    0.145542
     19          1           0        1.161738    2.743373   -1.083576
     20          1           0        0.219016   -0.555449   -1.733837
     21          1           0        1.423560   -1.841889   -1.855636
     22          1           0       -0.708785   -2.542968   -0.651790
     23          1           0        0.776697   -2.771269    0.289802
     24          1           0        0.182476   -1.084228    1.750494
 ---------------------------------------------------------------------

 SCF Done:  E(UB3LYP) =  -659.666079108     A.U. after   33 cycles
 SCF Done:  E(UB3LYP) =  -659.666079108     a.u. after    1 cycles

 The electronic state is 2-A.
 Alpha  occ. eigenvalues --  -18.98432 -18.98356 -14.32550 -14.24706 -14.24219
 Alpha  occ. eigenvalues --  -14.23509 -14.23193 -10.18901 -10.17072 -10.11276
 Alpha  occ. eigenvalues --  -10.09889 -10.09519 -10.07646  -1.00970  -0.94271
 Alpha  occ. eigenvalues --   -0.93744  -0.84418  -0.83533  -0.82690  -0.67680
 Alpha  occ. eigenvalues --   -0.62237  -0.60266  -0.57551  -0.54178  -0.44883
 Alpha  occ. eigenvalues --   -0.43450  -0.40014  -0.39627  -0.38738  -0.37646
 Alpha  occ. eigenvalues --   -0.37334  -0.37061  -0.34611  -0.32707  -0.32513
 Alpha  occ. eigenvalues --   -0.31912  -0.30796  -0.30412  -0.29616  -0.28776
 Alpha  occ. eigenvalues --   -0.28080  -0.26311  -0.25508  -0.22039  -0.16300
 Alpha  occ. eigenvalues --   -0.15959  -0.15520  -0.14638  -0.14541   0.04750
 Alpha virt. eigenvalues --    0.06483   0.07645   0.08673   0.09508   0.09887
 Alpha virt. eigenvalues --    0.10221   0.10397   0.11112   0.12153   0.12389
 Alpha virt. eigenvalues --    0.13331   0.14289   0.14720   0.15192   0.15959

  Beta  occ. eigenvalues --  -18.98426 -18.98354 -14.32087 -14.24705 -14.23735
  Beta  occ. eigenvalues --  -14.23511 -14.23248 -10.18806 -10.17068 -10.11260
  Beta  occ. eigenvalues --  -10.09857 -10.09485 -10.07625  -1.00217  -0.94155
  Beta  occ. eigenvalues --   -0.93727  -0.84169  -0.83518  -0.82582  -0.67639
  Beta  occ. eigenvalues --   -0.62184  -0.60211  -0.57274  -0.54064  -0.44765
  Beta  occ. eigenvalues --   -0.43199  -0.39854  -0.39545  -0.38609  -0.37463
  Beta  occ. eigenvalues --   -0.37111  -0.35803  -0.34426  -0.32547  -0.32240
  Beta  occ. eigenvalues --   -0.30903  -0.30697  -0.30371  -0.29537  -0.28738
  Beta  occ. eigenvalues --   -0.28020  -0.26277  -0.25477  -0.21247  -0.16245
  Beta  occ. eigenvalues --   -0.15913  -0.15303  -0.14524  -0.14485
  Beta virt. eigenvalues --    0.07237   0.08003   0.08962   0.09789   0.10169
  Beta virt. eigenvalues --    0.10353   0.10796   0.10935   0.11917   0.12289
  Beta virt. eigenvalues --    0.12478   0.13714   0.14384   0.14835   0.15307

 Mulliken charges and spin densities:
               1          2
     1  C    0.786002  -1.070667
     2  N   -0.033154   0.107222
     3  C    0.203884  -0.609606
     4  C   -0.432321   0.087892
     5  O   -0.352980   0.009007
     6  C    0.274684  -0.246980
     7  C   -0.189530  -0.257693
     8  N   -0.182775   0.062494
     9  C    0.234253  -0.318608
    10  O   -0.344119   0.003630
    11  N   -0.711181   0.479891
    12  N    0.790250  -0.051045
    13  N   -0.284745   0.034011
    14  H   -0.029206   0.176967
    15  H   -0.433763   0.587288
    16  H    0.032141   0.135630
    17  H   -0.154943   0.292119
    18  H    0.224708  -0.016431
    19  H   -0.462730   0.623941
    20  H   -0.076850   0.201281
    21  H   -0.198435   0.393562
    22  H   -0.121640   0.328977
    23  H    0.168678   0.032359
    24  H    0.293771   0.014760
 Sum of Mulliken charges =  -1.00000   1.00000

 Dipole moment (field-independent basis, Debye):
    X=              1.0820    Y=             -3.6491    Z=              1.5906  Tot=              4.1251
 Quadrupole moment (field-independent basis, Debye-Ang):
   XX=           -141.6988   YY=           -111.2397   ZZ=           -101.5759
   XY=              0.7419   XZ=              0.9078   YZ=             -0.4449

 Summary of Natural Population Analysis:

                                       Natural Population
                Natural  -----------------------------------------------
    Atom  No    Charge         Core      Valence    Rydberg      Total
 -----------------------------------------------------------------------
      C    1   -0.18017      0.99963     2.17248    0.00805     3.18017
      N    2   -0.25027      0.99965     2.73924    0.01138     3.75027
      C    3   -0.17773      0.99962     2.17015    0.00795     3.17773
      C    4    0.34379      0.99963     1.63232    0.02426     2.65621
      O    5   -0.34028      0.99988     3.33506    0.00535     4.34028
      C    6   -0.23530      0.99958     2.22733    0.00839     3.23530
      C    7   -0.08494      0.99962     2.07331    0.01201     3.08494
      N    8   -0.32629      0.99966     2.81755    0.00908     3.82629
      C    9    0.39814      0.99969     1.57591    0.02626     2.60186
      O   10   -0.33254      0.99987     3.32740    0.00527     4.33254
      N   11   -0.25101      0.99968     2.73846    0.01287     3.75101
      N   12    0.17010      0.99971     2.31420    0.01598     3.32990
      N   13    0.03527      0.99981     2.45297    0.01195     3.46473
      H   14    0.09244      0.00000     0.40652    0.00104     0.40756
      H   15    0.09628      0.00000     0.40217    0.00155     0.40372
      H   16    0.11422      0.00000     0.38475    0.00103     0.38578
      H   17    0.10405      0.00000     0.39438    0.00157     0.39595
      H   18    0.10141      0.00000     0.39741    0.00118     0.39859
      H   19    0.09766      0.00000     0.40095    0.00138     0.40234
      H   20    0.10960      0.00000     0.38855    0.00185     0.39040
      H   21    0.11116      0.00000     0.38765    0.00119     0.38884
      H   22    0.10775      0.00000     0.39096    0.00129     0.39225
      H   23    0.10081      0.00000     0.39814    0.00105     0.39919
      H   24    0.19583      0.00000     0.30247    0.00171     0.30417
 =======================================================================
   * Total *    0.00000     12.99604    35.83033    0.17363    49.00000

 Normal termination of Gaussian 16 at Thu Dec 10 00:01:56 2020.
