 Gaussian 16, Revision A.03,

 -----------------------------------------------------------
 # opt freq B3LYP/6-31G(d) empiricaldispersion=gd3bj scf=xqc
 -----------------------------------------------------------

 ------------------------------
 CID_44265322_JID_6715_neutraal
 ------------------------------
 Symbolic Z-matrix:
 Charge =  0 Multiplicity = 1

 SCF Done:  E(RB3LYP) =  -695.993947823     A.U. after   15 cycles
 SCF Done:  E(RB3LYP) =  -696.001189996     A.U. after   12 cycles
 SCF Done:  E(RB3LYP) =  -696.004400444     A.U. after   12 cycles
 SCF Done:  E(RB3LYP) =  -696.005181914     A.U. after   12 cycles
 SCF Done:  E(RB3LYP) =  -696.005798493     A.U. after   12 cycles
 SCF Done:  E(RB3LYP) =  -696.006345870     A.U. after   12 cycles
 SCF Done:  E(RB3LYP) =  -696.006430808     A.U. after   11 cycles
 SCF Done:  E(RB3LYP) =  -696.006439395     A.U. after   10 cycles
 SCF Done:  E(RB3LYP) =  -696.006440649     A.U. after    8 cycles
 SCF Done:  E(RB3LYP) =  -696.006440987     A.U. after    8 cycles
 SCF Done:  E(RB3LYP) =  -696.006441086     A.U. after    7 cycles
 SCF Done:  E(RB3LYP) =  -696.006441113     A.U. after    7 cycles
 Optimization completed.
    -- Stationary point found.
 Normal termination of Gaussian 16 at Fri Dec 11 00:22:07 2020.

 --------------------------------------------------------------------
 #N Geom=AllCheck Guess=TCheck SCRF=Check GenChk RB3LYP/6-31G(d) Freq
 --------------------------------------------------------------------

 Structure from the checkpoint file:  "JID_6715.chk"
 ------------------------------
 CID_44265322_JID_6715_neutraal
 ------------------------------
 Charge =  0 Multiplicity = 1

 SCF Done:  E(RB3LYP) =  -696.006441113     A.U. after    1 cycles

  Exact polarizability: 218.956  11.233 143.342  -0.623   4.037 112.965
 Approx polarizability: 309.385  24.971 218.106  -0.673  14.615 166.342

                      1                      2                      3
                      A                      A                      A
 Frequencies --     19.7471                40.3612                77.9387
 Red. masses --      2.8137                 3.6252                 4.2395
 Frc consts  --      0.0006                 0.0035                 0.0152
 IR Inten    --      0.0664                 0.0365                 0.1388

                      4                      5                      6
                      A                      A                      A
 Frequencies --    105.8491               116.7976               150.4572
 Red. masses --      4.4032                 3.5930                 3.0916
 Frc consts  --      0.0291                 0.0289                 0.0412
 IR Inten    --      0.0556                 0.1012                 0.3846

                      7                      8                      9
                      A                      A                      A
 Frequencies --    194.0691               221.6563               231.6775
 Red. masses --      2.9422                 1.4771                 1.0315
 Frc consts  --      0.0653                 0.0428                 0.0326
 IR Inten    --      0.3610                 0.6606                 0.0024

                     10                     11                     12
                      A                      A                      A
 Frequencies --    233.4562               241.0815               249.6576
 Red. masses --      1.1546                 2.0609                 1.5869
 Frc consts  --      0.0371                 0.0706                 0.0583
 IR Inten    --      0.2719                 0.4138                 0.6965

                     13                     14                     15
                      A                      A                      A
 Frequencies --    255.8184               276.9090               294.4826
 Red. masses --      1.3844                 2.1887                 3.2608
 Frc consts  --      0.0534                 0.0989                 0.1666
 IR Inten    --      0.2227                 0.2963                 1.6813

                     16                     17                     18
                      A                      A                      A
 Frequencies --    318.1069               363.0591               378.5913
 Red. masses --      2.9030                 3.7656                 3.1305
 Frc consts  --      0.1731                 0.2924                 0.2644
 IR Inten    --      2.1494                 3.9533                 3.8200

                     19                     20                     21
                      A                      A                      A
 Frequencies --    394.2427               399.1241               409.4895
 Red. masses --      3.2302                 2.8245                 4.6586
 Frc consts  --      0.2958                 0.2651                 0.4602
 IR Inten    --      5.5167                 0.3401                20.6843

                     22                     23                     24
                      A                      A                      A
 Frequencies --    450.6050               474.9926               494.8183
 Red. masses --      3.4243                 6.2365                 1.1855
 Frc consts  --      0.4096                 0.8290                 0.1710
 IR Inten    --     13.6462                 0.7728                44.1811

                     25                     26                     27
                      A                      A                      A
 Frequencies --    500.1612               553.0545               584.2143
 Red. masses --      3.2242                 2.7720                 3.5416
 Frc consts  --      0.4752                 0.4996                 0.7122
 IR Inten    --     13.0107                 2.7412                 1.5771

                     28                     29                     30
                      A                      A                      A
 Frequencies --    613.6975               678.1741               688.5644
 Red. masses --      3.3230                 3.8340                 4.4990
 Frc consts  --      0.7374                 1.0389                 1.2568
 IR Inten    --      1.1244                 3.1085                 4.4358

                     31                     32                     33
                      A                      A                      A
 Frequencies --    769.1149               797.5427               823.4862
 Red. masses --      4.3806                 1.2449                 1.8930
 Frc consts  --      1.5268                 0.4665                 0.7563
 IR Inten    --      6.7644                 2.4553                 4.4340

                     34                     35                     36
                      A                      A                      A
 Frequencies --    859.6369               868.4521               885.4254
 Red. masses --      2.2326                 1.7886                 2.0803
 Frc consts  --      0.9721                 0.7948                 0.9609
 IR Inten    --      3.5890                 8.6181                10.3260

                     37                     38                     39
                      A                      A                      A
 Frequencies --    914.1578               933.4192               943.4141
 Red. masses --      3.5862                 1.4416                 1.6858
 Frc consts  --      1.7658                 0.7400                 0.8840
 IR Inten    --      8.8606                 6.1375                49.9441

                     40                     41                     42
                      A                      A                      A
 Frequencies --    944.4663               964.0946               976.4415
 Red. masses --      1.4550                 1.2728                 1.5418
 Frc consts  --      0.7647                 0.6970                 0.8661
 IR Inten    --     31.6971                 2.8923                 0.4960

                     43                     44                     45
                      A                      A                      A
 Frequencies --    985.8500              1001.4900              1028.3626
 Red. masses --      2.0990                 2.2534                 1.6501
 Frc consts  --      1.2020                 1.3316                 1.0282
 IR Inten    --      7.8901                 5.5649                 5.3459

                     46                     47                     48
                      A                      A                      A
 Frequencies --   1065.0795              1077.1980              1080.5286
 Red. masses --      1.5163                 1.5455                 1.8004
 Frc consts  --      1.0134                 1.0566                 1.2385
 IR Inten    --      3.3552                 1.0114                 2.9152

                     49                     50                     51
                      A                      A                      A
 Frequencies --   1095.4213              1119.2202              1122.2696
 Red. masses --      1.3804                 2.4855                 2.9049
 Frc consts  --      0.9759                 1.8344                 2.1556
 IR Inten    --      6.6763                10.1888                 5.5082

                     52                     53                     54
                      A                      A                      A
 Frequencies --   1132.3714              1143.8335              1184.2656
 Red. masses --      2.7329                 1.9214                 2.1373
 Frc consts  --      2.0646                 1.4811                 1.7661
 IR Inten    --    105.8200                13.5731                40.2498

                     55                     56                     57
                      A                      A                      A
 Frequencies --   1209.7297              1213.0651              1247.0079
 Red. masses --      1.7856                 1.3842                 2.9654
 Frc consts  --      1.5396                 1.2001                 2.7169
 IR Inten    --     29.8564                10.7504                 6.6017

                     58                     59                     60
                      A                      A                      A
 Frequencies --   1259.2489              1310.7629              1335.5683
 Red. masses --      2.2579                 2.7015                 2.2566
 Frc consts  --      2.1094                 2.7346                 2.3716
 IR Inten    --     43.2808                21.4388                 6.2819

                     61                     62                     63
                      A                      A                      A
 Frequencies --   1352.0677              1359.6587              1401.5913
 Red. masses --      1.3255                 1.7778                 1.6581
 Frc consts  --      1.4277                 1.9364                 1.9191
 IR Inten    --      2.5286                67.2189                 6.9401

                     64                     65                     66
                      A                      A                      A
 Frequencies --   1421.8251              1422.8469              1433.0605
 Red. masses --      1.2441                 1.2163                 1.5896
 Frc consts  --      1.4818                 1.4508                 1.9234
 IR Inten    --      9.8156                 2.9038                 7.0841

                     67                     68                     69
                      A                      A                      A
 Frequencies --   1440.6285              1443.6738              1448.5049
 Red. masses --      1.4710                 1.3324                 1.4873
 Frc consts  --      1.7987                 1.6361                 1.8387
 IR Inten    --     75.3753                16.4164                10.0627

                     70                     71                     72
                      A                      A                      A
 Frequencies --   1477.4269              1507.6024              1517.5393
 Red. masses --      1.0918                 1.0876                 1.1732
 Frc consts  --      1.4041                 1.4565                 1.5918
 IR Inten    --      3.8968                 6.5245                 4.8963

                     73                     74                     75
                      A                      A                      A
 Frequencies --   1517.9486              1518.6399              1518.9608
 Red. masses --      1.0483                 1.0535                 1.0499
 Frc consts  --      1.4232                 1.4314                 1.4272
 IR Inten    --      1.3917                 4.0434                 2.3574

                     76                     77                     78
                      A                      A                      A
 Frequencies --   1523.1315              1528.2299              1530.8505
 Red. masses --      1.0729                 1.1515                 1.0513
 Frc consts  --      1.4665                 1.5845                 1.4516
 IR Inten    --      2.0207                 7.5677                 4.7624

                     79                     80                     81
                      A                      A                      A
 Frequencies --   1539.6056              1665.7333              1704.7699
 Red. masses --      1.0576                 6.9542                 7.0599
 Frc consts  --      1.4770                11.3686                12.0887
 IR Inten    --      5.9611                99.1741                29.4456

                     82                     83                     84
                      A                      A                      A
 Frequencies --   1771.3879              3035.8458              3044.1885
 Red. masses --     11.4019                 1.0386                 1.0347
 Frc consts  --     21.0793                 5.6395                 5.6493
 IR Inten    --     98.0884                32.9427                23.6571

                     85                     86                     87
                      A                      A                      A
 Frequencies --   3047.6581              3063.9394              3065.7302
 Red. masses --      1.0354                 1.0836                 1.0337
 Frc consts  --      5.6661                 5.9933                 5.7240
 IR Inten    --     44.8858                 7.4345                15.9717

                     88                     89                     90
                      A                      A                      A
 Frequencies --   3083.0700              3109.9790              3116.8557
 Red. masses --      1.0994                 1.1028                 1.1017
 Frc consts  --      6.1568                 6.2847                 6.3060
 IR Inten    --     15.8655                 0.2833                60.5515

                     91                     92                     93
                      A                      A                      A
 Frequencies --   3123.6529              3126.4588              3130.4215
 Red. masses --      1.1028                 1.1024                 1.0998
 Frc consts  --      6.3397                 6.3490                 6.3499
 IR Inten    --     26.5094                32.5208                19.3038

                     94                     95                     96
                      A                      A                      A
 Frequencies --   3139.6564              3151.5539              3158.1628
 Red. masses --      1.1036                 1.1029                 1.0540
 Frc consts  --      6.4093                 6.4540                 6.1938
 IR Inten    --     14.6623                16.5183                14.0252

                     97                     98                     99
                      A                      A                      A
 Frequencies --   3161.3324              3162.1108              3187.7493
 Red. masses --      1.0550                 1.0870                 1.0887
 Frc consts  --      6.2122                 6.4039                 6.5182
 IR Inten    --     14.4357                 2.6546                18.2456

                    100                    101                    102
                      A                      A                      A
 Frequencies --   3240.8823              3253.8385              3584.8308
 Red. masses --      1.1185                 1.1158                 1.0644
 Frc consts  --      6.9214                 6.9605                 8.0594
 IR Inten    --      1.6893                 6.4668                76.1977

 - Thermochemistry -
 -------------------
 Temperature   298.150 Kelvin.  Pressure   1.00000 Atm.
 Atom     1 has atomic number  6 and mass  12.00000

 Molecular mass:   220.14633 amu.
 Principal axes and moments of inertia in atomic units:
                           1         2         3
     Eigenvalues --  2057.005405217.433066140.19765
           X            0.99997   0.00730   0.00232
           Y           -0.00726   0.99984  -0.01657
           Z           -0.00244   0.01656   0.99986
 This molecule is an asymmetric top.
 Rotational symmetry number  1.
 Warning -- assumption of classical behavior for rotation
           may cause significant error
 Rotational temperatures (Kelvin)      0.04211     0.01660     0.01411
 Rotational constants (GHZ):           0.87736     0.34591     0.29392
 Zero-point vibrational energy     821448.0 (Joules/Mol)
                                  196.33078 (Kcal/Mol)
 Warning -- explicit consideration of  28 degrees of freedom as
           vibrations may cause significant error
 Vibrational temperatures:     28.41    58.07   112.14   152.29   168.05
          (Kelvin)            216.47   279.22   318.91   333.33   335.89
                              346.86   359.20   368.07   398.41   423.69
                              457.68   522.36   544.71   567.23   574.25
                              589.16   648.32   683.41   711.93   719.62
                              795.72   840.55   882.97   975.74   990.69
                             1106.58  1147.49  1184.81  1236.83  1249.51
                             1273.93  1315.27  1342.98  1357.36  1358.88
                             1387.12  1404.88  1418.42  1440.92  1479.58
                             1532.41  1549.85  1554.64  1576.07  1610.31
                             1614.70  1629.23  1645.72  1703.89  1740.53
                             1745.33  1794.17  1811.78  1885.90  1921.58
                             1945.32  1956.25  2016.58  2045.69  2047.16
                             2061.85  2072.74  2077.12  2084.08  2125.69
                             2169.10  2183.40  2183.99  2184.98  2185.45
                             2191.45  2198.78  2202.55  2215.15  2396.62
                             2452.78  2548.63  4367.90  4379.91  4384.90
                             4408.33  4410.90  4435.85  4474.57  4484.46
                             4494.24  4498.28  4503.98  4517.27  4534.38
                             4543.89  4548.45  4549.57  4586.46  4662.91
                             4681.55  5157.77

 Zero-point correction=                           0.312873 (Hartree/Particle)
 Thermal correction to Energy=                    0.329688
 Thermal correction to Enthalpy=                  0.330632
 Thermal correction to Gibbs Free Energy=         0.268826
 Sum of electronic and zero-point Energies=           -695.693568
 Sum of electronic and thermal Energies=              -695.676753
 Sum of electronic and thermal Enthalpies=            -695.675809
 Sum of electronic and thermal Free Energies=         -695.737615

                     E (Thermal)             CV                S
                      KCal/Mol        Cal/Mol-Kelvin    Cal/Mol-Kelvin
 Total                  206.883             65.340            130.082
 Electronic               0.000              0.000              0.000
 Translational            0.889              2.981             42.070
 Rotational               0.889              2.981             32.555
 Vibrational            205.105             59.378             55.457
 Vibration     1          0.593              1.986              6.659
 Vibration     2          0.594              1.981              5.241
 Vibration     3          0.599              1.964              3.942
 Vibration     4          0.605              1.945              3.344
 Vibration     5          0.608              1.935              3.153
 Vibration     6          0.618              1.902              2.666
 Vibration     7          0.635              1.848              2.189
 Vibration     8          0.648              1.808              1.946
 Vibration     9          0.653              1.793              1.866
 Vibration    10          0.654              1.790              1.852
 Vibration    11          0.658              1.777              1.795
 Vibration    12          0.662              1.763              1.733
 Vibration    13          0.666              1.753              1.690
 Vibration    14          0.678              1.716              1.553
 Vibration    15          0.689              1.684              1.448
 Vibration    16          0.705              1.639              1.320
 Vibration    17          0.737              1.548              1.109
 Vibration    18          0.749              1.516              1.045
 Vibration    19          0.761              1.482              0.984
 Vibration    20          0.765              1.472              0.966
 Vibration    21          0.774              1.450              0.928
 Vibration    22          0.809              1.360              0.794
 Vibration    23          0.832              1.306              0.724
 Vibration    24          0.850              1.262              0.671
 Vibration    25          0.856              1.250              0.658
 Vibration    26          0.908              1.133              0.538
 Vibration    27          0.941              1.065              0.478
 Vibration    28          0.973              1.003              0.427

                           ! Non-Optimized Parameters !
 Normal termination of Gaussian 16 at Fri Dec 11 00:34:47 2020.

 ----------------------------------------------------------------------
 # B3LYP/6-311++G(d,p) empiricaldispersion=gd3bj scf=xqc pop=npa geom=c
 heck
 ----------------------------------------------------------------------

 --------------------------------------
 CID_44265322_JID_6715_Energie_neutraal
 --------------------------------------
 Structure from the checkpoint file:  "JID_6715.chk"
 Charge =  0 Multiplicity = 1

 SCF Done:  E(RB3LYP) =  -696.204134972     A.U. after   15 cycles
 Normal termination of Gaussian 16 at Fri Dec 11 00:40:21 2020.

 ----------------------------------------------------------------------
 # B3LYP/6-311++G(d,p) empiricaldispersion=gd3bj scf=xqc pop=npa geom=c
 heck
 ----------------------------------------------------------------------

 ------------------------------------
 CID_44265322_JID_6715_Energie_kation
 ------------------------------------
 Structure from the checkpoint file:  "JID_6715.chk"
 Charge =  1 Multiplicity = 2

 SCF Done:  E(UB3LYP) =  -695.919126214     A.U. after   22 cycles
 Normal termination of Gaussian 16 at Fri Dec 11 00:51:07 2020.
 Gaussian 16:  ES64L-G16RevA.03 25-Dec-2016

 ----------------------------------------------------------------------
 # B3LYP/6-311++G(d,p) empiricaldispersion=gd3bj scf=xqc pop=npa geom=c
 heck
 ----------------------------------------------------------------------

 -----------------------------------
 CID_44265322_JID_6715_Energie_anion
 -----------------------------------
 Structure from the checkpoint file:  "JID_6715.chk"
 Charge = -1 Multiplicity = 2

                         Standard orientation:
 ---------------------------------------------------------------------
 Center     Atomic      Atomic             Coordinates (Angstroms)
 Number     Number       Type             X           Y           Z
 ---------------------------------------------------------------------
      1          6           0        1.452793    2.901309    0.361364
      2          6           0        0.969808    1.493639    0.151858
      3          6           0       -0.345509    1.193908    0.210985
      4          6           0       -0.883586   -0.141328   -0.037786
      5          6           0       -2.192715   -0.467442   -0.135152
      6          6           0       -3.383210    0.432560    0.001030
      7          6           0       -4.178024    0.448112   -1.318777
      8          6           0       -4.270391   -0.038220    1.168460
      9          6           0        0.107465   -1.236018   -0.210643
     10          8           0       -0.145659   -2.324437   -0.714742
     11          6           0        1.521320   -0.974640    0.313974
     12          6           0        1.967010    0.421434   -0.144895
     13          6           0        2.751794    0.520344   -1.445703
     14          6           0        3.454306    0.694718   -0.131104
     15          6           0        1.497937   -1.059713    1.853656
     16          8           0        2.383961   -1.975589   -0.184423
     17          1           0        2.043313    3.257457   -0.493227
     18          1           0        2.102727    2.970464    1.242990
     19          1           0        0.614293    3.589885    0.498685
     20          1           0       -1.054327    1.991045    0.415533
     21          1           0       -2.414464   -1.514318   -0.342156
     22          1           0       -3.055988    1.456875    0.212243
     23          1           0       -4.523711   -0.560241   -1.576132
     24          1           0       -5.058694    1.094464   -1.228981
     25          1           0       -3.562653    0.815026   -2.146486
     26          1           0       -3.721142   -0.020219    2.115510
     27          1           0       -5.150694    0.607153    1.267730
     28          1           0       -4.621122   -1.063738    1.001024
     29          1           0        2.579701    1.396091   -2.064856
     30          1           0        2.910841   -0.408988   -1.980816
     31          1           0        3.800916    1.683990    0.150039
     32          1           0        4.086726   -0.122390    0.200953
     33          1           0        1.141194   -2.046994    2.162886
     34          1           0        2.519828   -0.928913    2.221418
     35          1           0        0.859998   -0.291314    2.297896
     36          1           0        1.782854   -2.637104   -0.584536
 ---------------------------------------------------------------------

 SCF Done:  E(UB3LYP) =  -696.214960201     A.U. after   30 cycles

 The electronic state is 2-A.
 Alpha  occ. eigenvalues --  -18.97861 -18.93151 -10.08669 -10.06222 -10.05840
 Alpha  occ. eigenvalues --  -10.05196 -10.05090 -10.04756 -10.04728 -10.04204
 Alpha  occ. eigenvalues --  -10.04072 -10.03484 -10.02743 -10.02567 -10.00388
 Alpha  occ. eigenvalues --   -9.98921  -0.90058  -0.85610  -0.74770  -0.68654
 Alpha  occ. eigenvalues --   -0.66766  -0.62900  -0.60695  -0.56648  -0.55460
 Alpha  occ. eigenvalues --   -0.51796  -0.49280  -0.48172  -0.45790  -0.43324
 Alpha  occ. eigenvalues --   -0.40447  -0.37341  -0.37107  -0.35743  -0.33914
 Alpha  occ. eigenvalues --   -0.31487  -0.30673  -0.30390  -0.30003  -0.29187
 Alpha  occ. eigenvalues --   -0.29017  -0.27752  -0.27314  -0.27058  -0.26469
 Alpha  occ. eigenvalues --   -0.26007  -0.24560  -0.23330  -0.22873  -0.22581
 Alpha  occ. eigenvalues --   -0.21809  -0.21277  -0.19904  -0.18748  -0.18030
 Alpha  occ. eigenvalues --   -0.17407  -0.14702  -0.14028  -0.09251  -0.07343
 Alpha  occ. eigenvalues --    0.04662
 Alpha virt. eigenvalues --    0.07734   0.08199   0.09585   0.09854   0.10351
 Alpha virt. eigenvalues --    0.10773   0.10941   0.11599   0.12291   0.12474
 Alpha virt. eigenvalues --    0.13171   0.13377   0.13565   0.14043   0.14121

  Beta  occ. eigenvalues --  -18.97860 -18.92787 -10.08693 -10.05844 -10.05828
  Beta  occ. eigenvalues --  -10.05209 -10.05092 -10.04774 -10.04749 -10.04150
  Beta  occ. eigenvalues --  -10.04011 -10.03341 -10.02705 -10.02578 -10.00408
  Beta  occ. eigenvalues --   -9.98247  -0.89891  -0.85048  -0.74709  -0.68276
  Beta  occ. eigenvalues --   -0.66588  -0.62683  -0.60437  -0.56528  -0.55100
  Beta  occ. eigenvalues --   -0.51583  -0.48743  -0.48150  -0.45692  -0.43024
  Beta  occ. eigenvalues --   -0.40097  -0.37175  -0.37022  -0.35538  -0.33774
  Beta  occ. eigenvalues --   -0.31349  -0.30601  -0.30204  -0.29682  -0.28956
  Beta  occ. eigenvalues --   -0.28776  -0.27592  -0.27158  -0.26969  -0.26336
  Beta  occ. eigenvalues --   -0.25755  -0.24501  -0.23178  -0.22495  -0.22380
  Beta  occ. eigenvalues --   -0.21399  -0.20230  -0.19684  -0.18519  -0.17795
  Beta  occ. eigenvalues --   -0.17013  -0.14497  -0.13431  -0.08882  -0.05428
  Beta virt. eigenvalues --    0.07660   0.08129   0.09506   0.09636   0.10075
  Beta virt. eigenvalues --    0.10705   0.10821   0.11721   0.12062   0.12374
  Beta virt. eigenvalues --    0.12833   0.13167   0.13349   0.13626   0.14056

 Mulliken charges and spin densities:
               1          2
     1  C   -0.505571  -0.004998
     2  C    0.063333   0.085785
     3  C   -0.425901  -0.018500
     4  C    0.369186  -0.000926
     5  C   -0.419860   0.617538
     6  C    0.591982  -0.010547
     7  C   -0.615347  -0.081809
     8  C   -0.613628  -0.077115
     9  C   -0.512778   0.175935
    10  O   -0.408057   0.134890
    11  C    0.292927  -0.008943
    12  C    0.333224   0.027579
    13  C   -0.543500  -0.000090
    14  C   -0.412440  -0.017523
    15  C   -0.563458  -0.012666
    16  O   -0.256572  -0.001443
    17  H    0.140286   0.005092
    18  H    0.135398   0.017801
    19  H    0.125440   0.000413
    20  H    0.057711  -0.000989
    21  H    0.213009  -0.034491
    22  H    0.129710   0.002500
    23  H    0.105331   0.022062
    24  H    0.061126   0.054031
    25  H    0.124345   0.010251
    26  H    0.122504   0.008593
    27  H    0.074652   0.045387
    28  H    0.102375   0.024081
    29  H    0.125426  -0.000548
    30  H    0.174339  -0.000438
    31  H    0.105014   0.014841
    32  H    0.169100  -0.003169
    33  H    0.163749  -0.004381
    34  H    0.105044   0.031871
    35  H    0.131491   0.002875
    36  H    0.260411  -0.002950
 Sum of Mulliken charges =  -1.00000   1.00000

 Dipole moment (field-independent basis, Debye):
    X=              1.0613    Y=              4.1769    Z=              1.1125  Tot=              4.4509
 Quadrupole moment (field-independent basis, Debye-Ang):
   XX=           -138.1792   YY=           -120.4857   ZZ=           -112.4820
   XY=              1.0011   XZ=             -1.3812   YZ=             -2.0873

 Summary of Natural Population Analysis:

                                       Natural Population
                Natural  -----------------------------------------------
    Atom  No    Charge         Core      Valence    Rydberg      Total
 -----------------------------------------------------------------------
      C    1   -0.29184      0.99964     2.28744    0.00476     3.29184
      C    2    0.00482      0.99947     1.98669    0.00902     2.99518
      C    3   -0.09986      0.99946     2.09325    0.00715     3.09986
      C    4   -0.11400      0.99944     2.10249    0.01206     3.11400
      C    5    0.09415      0.99950     1.89429    0.01206     2.90585
      C    6   -0.13633      0.99961     2.12819    0.00853     3.13633
      C    7   -0.27082      0.99965     2.26684    0.00433     3.27082
      C    8   -0.27172      0.99965     2.26773    0.00434     3.27172
      C    9    0.33149      0.99954     1.64736    0.02160     2.66851
      O   10   -0.29184      0.99987     3.28512    0.00684     4.29184
      C   11    0.10330      0.99944     1.87785    0.01940     2.89670
      C   12   -0.04798      0.99948     2.03473    0.01377     3.04798
      C   13   -0.19031      0.99960     2.18281    0.00790     3.19031
      C   14   -0.20136      0.99961     2.19542    0.00633     3.20136
      C   15   -0.28356      0.99963     2.27856    0.00538     3.28356
      O   16   -0.39300      0.99989     3.38631    0.00681     4.39300
      H   17    0.09341      0.00000     0.40518    0.00142     0.40659
      H   18    0.09580      0.00000     0.40278    0.00142     0.40420
      H   19    0.09753      0.00000     0.40151    0.00096     0.40247
      H   20    0.08663      0.00000     0.41158    0.00180     0.41337
      H   21    0.09004      0.00000     0.40884    0.00112     0.40996
      H   22    0.08742      0.00000     0.41056    0.00202     0.41258
      H   23    0.09346      0.00000     0.40560    0.00094     0.40654
      H   24    0.08788      0.00000     0.41117    0.00096     0.41212
      H   25    0.09945      0.00000     0.39967    0.00088     0.40055
      H   26    0.09865      0.00000     0.40038    0.00098     0.40135
      H   27    0.08796      0.00000     0.41110    0.00094     0.41204
      H   28    0.09340      0.00000     0.40565    0.00095     0.40660
      H   29    0.09550      0.00000     0.40355    0.00095     0.40450
      H   30    0.11048      0.00000     0.38843    0.00109     0.38952
      H   31    0.09629      0.00000     0.40257    0.00114     0.40371
      H   32    0.10683      0.00000     0.39204    0.00113     0.39317
      H   33    0.09893      0.00000     0.40012    0.00095     0.40107
      H   34    0.09401      0.00000     0.40494    0.00105     0.40599
      H   35    0.10364      0.00000     0.39570    0.00066     0.39636
      H   36    0.24156      0.00000     0.25522    0.00322     0.25844
 =======================================================================
   * Total *   -0.00000     15.99348    43.83164    0.17488    60.00000

 Normal termination of Gaussian 16 at Fri Dec 11 01:05:33 2020.
