 Gaussian 16, Revision A.03,

 -----------------------------------------------------------
 # opt freq B3LYP/6-31G(d) empiricaldispersion=gd3bj scf=xqc
 -----------------------------------------------------------

 -------------------------------
 CID_149848652_JID_9345_neutraal
 -------------------------------
 Symbolic Z-matrix:
 Charge =  0 Multiplicity = 1

 SCF Done:  E(RB3LYP) =  -824.883866240     A.U. after   16 cycles
 SCF Done:  E(RB3LYP) =  -824.889433163     A.U. after   14 cycles
 SCF Done:  E(RB3LYP) =  -824.891498683     A.U. after   14 cycles
 SCF Done:  E(RB3LYP) =  -824.892077392     A.U. after   13 cycles
 SCF Done:  E(RB3LYP) =  -824.890236696     A.U. after   12 cycles
 SCF Done:  E(RB3LYP) =  -824.892264956     A.U. after   13 cycles
 SCF Done:  E(RB3LYP) =  -824.892865574     A.U. after   15 cycles
 SCF Done:  E(RB3LYP) =  -824.892396870     A.U. after   12 cycles
 SCF Done:  E(RB3LYP) =  -824.892798727     A.U. after   13 cycles
 SCF Done:  E(RB3LYP) =  -824.893197889     A.U. after    9 cycles
 SCF Done:  E(RB3LYP) =  -824.893533253     A.U. after   10 cycles
 SCF Done:  E(RB3LYP) =  -824.893534492     A.U. after    9 cycles
 SCF Done:  E(RB3LYP) =  -824.893535303     A.U. after    8 cycles
 SCF Done:  E(RB3LYP) =  -824.893535534     A.U. after    8 cycles
 SCF Done:  E(RB3LYP) =  -824.893535564     A.U. after    8 cycles
 SCF Done:  E(RB3LYP) =  -824.893535587     A.U. after    7 cycles
 Optimization completed.
    -- Stationary point found.
 Normal termination of Gaussian 16 at Sat Dec 12 09:52:27 2020.

 --------------------------------------------------------------------
 #N Geom=AllCheck Guess=TCheck SCRF=Check GenChk RB3LYP/6-31G(d) Freq
 --------------------------------------------------------------------

 Structure from the checkpoint file:  "JID_9345.chk"
 -------------------------------
 CID_149848652_JID_9345_neutraal
 -------------------------------
 Charge =  0 Multiplicity = 1

 SCF Done:  E(RB3LYP) =  -824.893535587     A.U. after    1 cycles

  Exact polarizability: 198.871   0.933 165.239 -14.998 -16.068 168.218
 Approx polarizability: 274.240  12.015 271.585 -42.285 -55.395 305.564

                      1                      2                      3
                      A                      A                      A
 Frequencies --     33.6463                44.4677                66.5879
 Red. masses --      3.2514                 6.9908                 3.3014
 Frc consts  --      0.0022                 0.0081                 0.0086
 IR Inten    --      0.0700                 0.4142                 0.4652

                      4                      5                      6
                      A                      A                      A
 Frequencies --     70.3418                75.8571               108.2927
 Red. masses --      3.6745                 4.4155                 5.2173
 Frc consts  --      0.0107                 0.0150                 0.0360
 IR Inten    --      0.3625                 0.7592                 0.2180

                      7                      8                      9
                      A                      A                      A
 Frequencies --    159.7693               174.5393               182.8980
 Red. masses --      3.8447                 2.3128                 1.4196
 Frc consts  --      0.0578                 0.0415                 0.0280
 IR Inten    --      0.8337                 0.4247                 0.7056

                     10                     11                     12
                      A                      A                      A
 Frequencies --    192.3158               213.2782               219.9828
 Red. masses --      1.9090                 1.9773                 1.2492
 Frc consts  --      0.0416                 0.0530                 0.0356
 IR Inten    --      0.9760                 2.9512                 1.0612

                     13                     14                     15
                      A                      A                      A
 Frequencies --    238.8728               246.5222               265.7071
 Red. masses --      1.6257                 1.3885                 2.1624
 Frc consts  --      0.0547                 0.0497                 0.0899
 IR Inten    --      3.3261                 1.3185                 1.8777

                     16                     17                     18
                      A                      A                      A
 Frequencies --    273.8784               287.4165               295.7130
 Red. masses --      2.0977                 3.3278                 2.9560
 Frc consts  --      0.0927                 0.1620                 0.1523
 IR Inten    --      1.9041                 0.1089                 1.6539

                     19                     20                     21
                      A                      A                      A
 Frequencies --    305.8281               321.1858               343.4894
 Red. masses --      1.6699                 1.9498                 1.3396
 Frc consts  --      0.0920                 0.1185                 0.0931
 IR Inten    --      1.8145                 8.0171                 6.2455

                     22                     23                     24
                      A                      A                      A
 Frequencies --    357.3329               358.7368               379.5519
 Red. masses --      2.3768                 2.0565                 2.4549
 Frc consts  --      0.1788                 0.1559                 0.2084
 IR Inten    --     12.0903                13.8794                 0.2882

                     25                     26                     27
                      A                      A                      A
 Frequencies --    396.3350               402.1418               419.7905
 Red. masses --      2.0356                 2.3492                 2.5551
 Frc consts  --      0.1884                 0.2238                 0.2653
 IR Inten    --     17.7573                 0.7233                 3.4213

                     28                     29                     30
                      A                      A                      A
 Frequencies --    433.3280               456.0458               476.6186
 Red. masses --      2.3339                 2.4681                 2.5159
 Frc consts  --      0.2582                 0.3024                 0.3367
 IR Inten    --      7.1745                11.1327                10.5477

                     31                     32                     33
                      A                      A                      A
 Frequencies --    515.1627               521.3520               556.5640
 Red. masses --      4.3936                 3.4656                 4.6262
 Frc consts  --      0.6870                 0.5550                 0.8443
 IR Inten    --      0.1040                 3.5932                 0.2563

                     34                     35                     36
                      A                      A                      A
 Frequencies --    577.6816               581.4230               596.8146
 Red. masses --     10.5174                 3.5780                 3.2389
 Frc consts  --      2.0679                 0.7127                 0.6797
 IR Inten    --      9.7764                 4.9305                 3.7000

                     37                     38                     39
                      A                      A                      A
 Frequencies --    649.6448               703.5887               727.8190
 Red. masses --      3.9374                 2.4110                 3.6300
 Frc consts  --      0.9791                 0.7032                 1.1329
 IR Inten    --      3.0161                14.6556                 3.9026

                     40                     41                     42
                      A                      A                      A
 Frequencies --    753.4476               763.7725               793.0610
 Red. masses --      2.7526                 5.2988                 3.2874
 Frc consts  --      0.9207                 1.8212                 1.2182
 IR Inten    --      3.5948                 4.7488                 4.8699

                     43                     44                     45
                      A                      A                      A
 Frequencies --    824.5248               847.2037               883.3395
 Red. masses --      2.6043                 2.7781                 2.5882
 Frc consts  --      1.0432                 1.1748                 1.1899
 IR Inten    --     12.8783                10.3346                16.3633

                     46                     47                     48
                      A                      A                      A
 Frequencies --    898.0796               922.5867               932.9136
 Red. masses --      2.4965                 1.3653                 1.8488
 Frc consts  --      1.1863                 0.6847                 0.9480
 IR Inten    --     50.9341                36.3247                 1.5382

                     49                     50                     51
                      A                      A                      A
 Frequencies --    942.0187               946.8846               950.9441
 Red. masses --      2.3568                 1.7771                 1.7219
 Frc consts  --      1.2322                 0.9388                 0.9174
 IR Inten    --      3.8571                 3.5167                 2.3329

                     52                     53                     54
                      A                      A                      A
 Frequencies --    952.8630               979.6272               982.1060
 Red. masses --      1.7310                 1.1946                 1.2010
 Frc consts  --      0.9260                 0.6755                 0.6825
 IR Inten    --      3.9054                 0.1083                 0.6515

                     55                     56                     57
                      A                      A                      A
 Frequencies --   1047.0748              1056.4887              1064.6870
 Red. masses --      1.5599                 1.4911                 1.3900
 Frc consts  --      1.0076                 0.9806                 0.9284
 IR Inten    --      0.3799                 5.9181                 1.7511

                     58                     59                     60
                      A                      A                      A
 Frequencies --   1067.9597              1087.9849              1096.9451
 Red. masses --      1.3844                 2.0919                 2.0998
 Frc consts  --      0.9303                 1.4589                 1.4887
 IR Inten    --      0.1595                 6.3688                 1.5408

                     61                     62                     63
                      A                      A                      A
 Frequencies --   1127.0428              1196.8523              1231.0973
 Red. masses --      2.3860                 2.3704                 2.6206
 Frc consts  --      1.7856                 2.0006                 2.3401
 IR Inten    --     14.5366               134.3713                 7.0814

                     64                     65                     66
                      A                      A                      A
 Frequencies --   1240.5335              1242.1361              1250.9295
 Red. masses --      2.7274                 2.6821                 2.4141
 Frc consts  --      2.4730                 2.4382                 2.2257
 IR Inten    --      7.3521                 1.8745                 0.7510

                     67                     68                     69
                      A                      A                      A
 Frequencies --   1263.3248              1275.3254              1292.8818
 Red. masses --      2.4952                 2.7971                 2.6429
 Frc consts  --      2.3463                 2.6804                 2.6029
 IR Inten    --     54.5891                65.1587                22.7035

                     70                     71                     72
                      A                      A                      A
 Frequencies --   1314.2879              1341.7896              1366.7222
 Red. masses --      1.9814                 1.6419                 2.1457
 Frc consts  --      2.0165                 1.7417                 2.3614
 IR Inten    --     26.0208                 1.6599                 0.7448

                     73                     74                     75
                      A                      A                      A
 Frequencies --   1380.7566              1411.1733              1421.5986
 Red. masses --      1.7526                 2.4575                 1.2115
 Frc consts  --      1.9687                 2.8834                 1.4425
 IR Inten    --     24.9345                36.5206                 7.2181

                     76                     77                     78
                      A                      A                      A
 Frequencies --   1426.0135              1436.1309              1440.4656
 Red. masses --      1.2305                 1.2105                 1.1896
 Frc consts  --      1.4742                 1.4710                 1.4544
 IR Inten    --      5.1433                 3.3181                 5.1567

                     79                     80                     81
                      A                      A                      A
 Frequencies --   1456.2550              1470.5588              1482.2668
 Red. masses --      1.2191                 1.2126                 1.2289
 Frc consts  --      1.5232                 1.5450                 1.5909
 IR Inten    --     12.6177                 4.8740                 5.5381

                     82                     83                     84
                      A                      A                      A
 Frequencies --   1506.6828              1509.4662              1516.2085
 Red. masses --      1.0470                 1.0485                 1.0456
 Frc consts  --      1.4004                 1.4076                 1.4162
 IR Inten    --      0.3948                 0.1643                 0.4245

                     85                     86                     87
                      A                      A                      A
 Frequencies --   1520.8134              1524.6645              1529.2411
 Red. masses --      1.0561                 1.0486                 1.0494
 Frc consts  --      1.4392                 1.4362                 1.4459
 IR Inten    --      1.3145                 0.5789                 0.2211

                     88                     89                     90
                      A                      A                      A
 Frequencies --   1531.8714              1536.1378              1543.2442
 Red. masses --      1.0499                 1.0747                 1.0506
 Frc consts  --      1.4516                 1.4942                 1.4743
 IR Inten    --      0.5608                13.8988                 2.9531

                     91                     92                     93
                      A                      A                      A
 Frequencies --   1544.9495              1550.2794              1560.5122
 Red. masses --      1.0672                 1.0574                 1.0573
 Frc consts  --      1.5008                 1.4974                 1.5170
 IR Inten    --      7.7124                12.7945                13.9054

                     94                     95                     96
                      A                      A                      A
 Frequencies --   1611.3774              1694.8491              1709.2419
 Red. masses --      7.8017                 6.0256                 5.8928
 Frc consts  --     11.9353                10.1980                10.1433
 IR Inten    --     50.1787                 1.1758                22.4677

                     97                     98                     99
                      A                      A                      A
 Frequencies --   2240.7284              3036.5956              3047.4131
 Red. masses --     13.9095                 1.0388                 1.0361
 Frc consts  --     41.1472                 5.6437                 5.6690
 IR Inten    --    364.4949                27.2209                15.1226

                    100                    101                    102
                      A                      A                      A
 Frequencies --   3049.6463              3056.2018              3059.9986
 Red. masses --      1.0402                 1.0401                 1.0404
 Frc consts  --      5.7001                 5.7238                 5.7396
 IR Inten    --     31.1107                42.9812                13.6811

                    103                    104                    105
                      A                      A                      A
 Frequencies --   3067.5847              3092.3244              3107.9966
 Red. masses --      1.0403                 1.0966                 1.1025
 Frc consts  --      5.7674                 6.1786                 6.2744
 IR Inten    --     32.5918                46.6760                12.3978

                    106                    107                    108
                      A                      A                      A
 Frequencies --   3110.4232              3119.4488              3121.6109
 Red. masses --      1.1019                 1.1024                 1.1017
 Frc consts  --      6.2809                 6.3202                 6.3251
 IR Inten    --     12.1173                39.9237                59.8862

                    109                    110                    111
                      A                      A                      A
 Frequencies --   3121.9918              3126.8523              3127.2906
 Red. masses --      1.1019                 1.0990                 1.0868
 Frc consts  --      6.3276                 6.3310                 6.2625
 IR Inten    --     18.1114                 6.3005                15.2794

                    112                    113                    114
                      A                      A                      A
 Frequencies --   3134.1685              3146.1926              3158.3187
 Red. masses --      1.0991                 1.0997                 1.0972
 Frc consts  --      6.3610                 6.4138                 6.4481
 IR Inten    --     55.1718                20.8068                13.0816

                    115                    116                    117
                      A                      A                      A
 Frequencies --   3172.0228              3175.1724              3181.6760
 Red. masses --      1.0965                 1.0643                 1.0958
 Frc consts  --      6.5004                 6.3221                 6.5358
 IR Inten    --      9.1529                13.5896                 9.9016

                    118                    119                    120
                      A                      A                      A
 Frequencies --   3241.7553              3258.5362              3799.4755
 Red. masses --      1.0897                 1.1133                 1.0647
 Frc consts  --      6.7471                 6.9650                 9.0559
 IR Inten    --      3.2599                12.7187                57.2928

 - Thermochemistry -
 -------------------
 Temperature   298.150 Kelvin.  Pressure   1.00000 Atm.
 Atom     1 has atomic number  6 and mass  12.00000

 Molecular mass:   261.18411 amu.
 Principal axes and moments of inertia in atomic units:
                           1         2         3
     Eigenvalues --  3388.653865557.151726400.88361
           X            0.99988  -0.01545   0.00034
           Y            0.01544   0.99811  -0.05950
           Z            0.00058   0.05950   0.99823
 This molecule is an asymmetric top.
 Rotational symmetry number  1.
 Warning -- assumption of classical behavior for rotation
           may cause significant error
 Rotational temperatures (Kelvin)      0.02556     0.01559     0.01353
 Rotational constants (GHZ):           0.53258     0.32476     0.28195
 Zero-point vibrational energy     952443.6 (Joules/Mol)
                                  227.63949 (Kcal/Mol)
 Warning -- explicit consideration of  36 degrees of freedom as
           vibrations may cause significant error
 Vibrational temperatures:     48.41    63.98    95.81   101.21   109.14
          (Kelvin)            155.81   229.87   251.12   263.15   276.70
                              306.86   316.51   343.68   354.69   382.29
                              394.05   413.53   425.47   440.02   462.11
                              494.20   514.12   516.14   546.09   570.24
                              578.59   603.98   623.46   656.15   685.75
                              741.20   750.11   800.77   831.15   836.54
                              858.68   934.69  1012.31  1047.17  1084.04
                             1098.90  1141.04  1186.31  1218.94  1270.93
                             1292.14  1327.40  1342.25  1355.35  1362.36
                             1368.20  1370.96  1409.47  1413.03  1506.51
                             1520.05  1531.85  1536.56  1565.37  1578.26
                             1621.56  1722.00  1771.27  1784.85  1787.16
                             1799.81  1817.64  1834.91  1860.17  1890.97
                             1930.54  1966.41  1986.60  2030.36  2045.36
                             2051.72  2066.27  2072.51  2095.23  2115.81
                             2132.65  2167.78  2171.79  2181.49  2188.11
                             2193.65  2200.24  2204.02  2210.16  2220.38
                             2222.84  2230.51  2245.23  2318.41  2438.51
                             2459.22  3223.91  4368.98  4384.55  4387.76
                             4397.19  4402.66  4413.57  4449.17  4471.71
                             4475.21  4488.19  4491.30  4491.85  4498.84
                             4499.47  4509.37  4526.67  4544.12  4563.83
                             4568.36  4577.72  4664.16  4688.31  5466.60

 Zero-point correction=                           0.362767 (Hartree/Particle)
 Thermal correction to Energy=                    0.383320
 Thermal correction to Enthalpy=                  0.384264
 Thermal correction to Gibbs Free Energy=         0.315350
 Sum of electronic and zero-point Energies=           -824.530769
 Sum of electronic and thermal Energies=              -824.510216
 Sum of electronic and thermal Enthalpies=            -824.509272
 Sum of electronic and thermal Free Energies=         -824.578186

                     E (Thermal)             CV                S
                      KCal/Mol        Cal/Mol-Kelvin    Cal/Mol-Kelvin
 Total                  240.537             79.928            145.042
 Electronic               0.000              0.000              0.000
 Translational            0.889              2.981             42.580
 Rotational               0.889              2.981             33.155
 Vibrational            238.759             73.966             69.307
 Vibration     1          0.594              1.983              5.602
 Vibration     2          0.595              1.980              5.049
 Vibration     3          0.598              1.970              4.252
 Vibration     4          0.598              1.968              4.144
 Vibration     5          0.599              1.965              3.995
 Vibration     6          0.606              1.943              3.299
 Vibration     7          0.622              1.892              2.553
 Vibration     8          0.627              1.874              2.386
 Vibration     9          0.630              1.863              2.299
 Vibration    10          0.634              1.851              2.205
 Vibration    11          0.644              1.821              2.015
 Vibration    12          0.647              1.811              1.959
 Vibration    13          0.657              1.781              1.811
 Vibration    14          0.661              1.769              1.755
 Vibration    15          0.672              1.736              1.624
 Vibration    16          0.676              1.722              1.572
 Vibration    17          0.685              1.697              1.489
 Vibration    18          0.690              1.682              1.441
 Vibration    19          0.696              1.663              1.385
 Vibration    20          0.707              1.633              1.304
 Vibration    21          0.722              1.589              1.196
 Vibration    22          0.732              1.560              1.134
 Vibration    23          0.734              1.557              1.128
 Vibration    24          0.750              1.514              1.041
 Vibration    25          0.763              1.478              0.976
 Vibration    26          0.768              1.466              0.955
 Vibration    27          0.782              1.427              0.893
 Vibration    28          0.794              1.398              0.848
 Vibration    29          0.814              1.348              0.778
 Vibration    30          0.833              1.302              0.719
 Vibration    31          0.870              1.216              0.621
 Vibration    32          0.876              1.203              0.607
 Vibration    33          0.912              1.125              0.531
 Vibration    34          0.934              1.080              0.490
 Vibration    35          0.938              1.071              0.483
 Vibration    36          0.955              1.039              0.455

 Optimization completed.
    -- Stationary point found.
 Normal termination of Gaussian 16 at Sat Dec 12 10:18:07 2020.

 ----------------------------------------------------------------------
 # B3LYP/6-311++G(d,p) empiricaldispersion=gd3bj scf=xqc pop=npa geom=c
 heck
 ----------------------------------------------------------------------

 ---------------------------------------
 CID_149848652_JID_9345_Energie_neutraal
 ---------------------------------------
 Structure from the checkpoint file:  "JID_9345.chk"
 Charge =  0 Multiplicity = 1

 SCF Done:  E(RB3LYP) =  -825.122228304     A.U. after   16 cycles
 Normal termination of Gaussian 16 at Sat Dec 12 10:30:18 2020.

 ----------------------------------------------------------------------
 # B3LYP/6-311++G(d,p) empiricaldispersion=gd3bj scf=xqc pop=npa geom=c
 heck
 ----------------------------------------------------------------------

 -------------------------------------
 CID_149848652_JID_9345_Energie_kation
 -------------------------------------
 Structure from the checkpoint file:  "JID_9345.chk"
 Charge =  1 Multiplicity = 2

 SCF Done:  E(UB3LYP) =  -824.847498693     A.U. after   27 cycles
 Normal termination of Gaussian 16 at Sat Dec 12 10:58:56 2020.
 Gaussian 16:  ES64L-G16RevA.03 25-Dec-2016

 ----------------------------------------------------------------------
 # B3LYP/6-311++G(d,p) empiricaldispersion=gd3bj scf=xqc pop=npa geom=c
 heck
 ----------------------------------------------------------------------

 ------------------------------------
 CID_149848652_JID_9345_Energie_anion
 ------------------------------------
 Structure from the checkpoint file:  "JID_9345.chk"
 Charge = -1 Multiplicity = 2

                         Standard orientation:
 ---------------------------------------------------------------------
 Center     Atomic      Atomic             Coordinates (Angstroms)
 Number     Number       Type             X           Y           Z
 ---------------------------------------------------------------------
      1          6           0       -2.908443   -1.812439   -1.029971
      2          6           0       -2.797387   -0.542177   -0.156424
      3          6           0       -3.908501    0.423379   -0.609716
      4          6           0       -3.061056   -0.879535    1.330357
      5          6           0       -1.406701    0.090815   -0.321548
      6          6           0       -1.252906    1.382061   -0.673189
      7          6           0        0.104407    2.005911   -0.811445
      8          6           0        1.121671    0.961902   -1.197155
      9          6           0        1.876628    1.160867   -2.286611
     10          6           0        1.083055   -0.267653   -0.375309
     11          6           0       -0.172336   -0.696539   -0.054081
     12          8           0       -0.420036   -1.885489    0.581575
     13          6           0        2.367741   -0.985462    0.104580
     14          6           0        2.316417   -1.194363    1.643355
     15          6           0        2.565577   -2.333398   -0.628320
     16          6           0        3.637322   -0.139654   -0.130778
     17          7           0        0.502195    2.749126    0.448666
     18          7           0        0.335120    2.135655    1.505582
     19          7           0        0.213176    1.677178    2.546067
     20          1           0       -3.912468   -2.241115   -0.930444
     21          1           0       -2.181494   -2.570335   -0.737091
     22          1           0       -2.750305   -1.567300   -2.086733
     23          1           0       -4.876920   -0.080081   -0.522276
     24          1           0       -3.951118    1.323283    0.013203
     25          1           0       -3.782717    0.728919   -1.654210
     26          1           0       -2.358049   -1.619433    1.711825
     27          1           0       -2.976715    0.023675    1.945075
     28          1           0       -4.077930   -1.274414    1.442565
     29          1           0       -2.103851    2.036178   -0.811067
     30          1           0        0.089122    2.797005   -1.562024
     31          1           0        2.568470    0.418142   -2.666305
     32          1           0        1.804364    2.086955   -2.850296
     33          1           0        0.395742   -2.403217    0.608965
     34          1           0        1.452759   -1.759561    2.000494
     35          1           0        3.217678   -1.723049    1.973471
     36          1           0        2.280681   -0.225660    2.150228
     37          1           0        2.640604   -2.173773   -1.708868
     38          1           0        3.485613   -2.823001   -0.288047
     39          1           0        1.745715   -3.046990   -0.473365
     40          1           0        3.910820   -0.062745   -1.184139
     41          1           0        3.516934    0.874838    0.259605
     42          1           0        4.476979   -0.610422    0.392151
 ---------------------------------------------------------------------

 SCF Done:  E(UB3LYP) =  -825.127451055     A.U. after   32 cycles

 The electronic state is 2-A.
 Alpha  occ. eigenvalues --  -19.01423 -14.32911 -14.22565 -14.20794 -10.07534
 Alpha  occ. eigenvalues --  -10.07314 -10.07205 -10.06461 -10.05625 -10.04407
 Alpha  occ. eigenvalues --  -10.04349 -10.03997 -10.03652 -10.03268 -10.02977
 Alpha  occ. eigenvalues --  -10.02249 -10.01307 -10.00441 -10.00408  -0.98896
 Alpha  occ. eigenvalues --   -0.92802  -0.82967  -0.71663  -0.70412  -0.67736
 Alpha  occ. eigenvalues --   -0.61397  -0.59941  -0.58091  -0.56951  -0.56817
 Alpha  occ. eigenvalues --   -0.56432  -0.54244  -0.49451  -0.45447  -0.44681
 Alpha  occ. eigenvalues --   -0.41660  -0.39393  -0.38068  -0.37068  -0.36194
 Alpha  occ. eigenvalues --   -0.34609  -0.34259  -0.33280  -0.32804  -0.32102
 Alpha  occ. eigenvalues --   -0.31731  -0.30934  -0.30226  -0.30088  -0.28836
 Alpha  occ. eigenvalues --   -0.27950  -0.27128  -0.26806  -0.26409  -0.25892
 Alpha  occ. eigenvalues --   -0.25151  -0.25036  -0.24497  -0.23844  -0.23324
 Alpha  occ. eigenvalues --   -0.22185  -0.22034  -0.21477  -0.20118  -0.19084
 Alpha  occ. eigenvalues --   -0.18680  -0.16741  -0.14229  -0.12090  -0.10637
 Alpha  occ. eigenvalues --   -0.06262   0.04931
 Alpha virt. eigenvalues --    0.07540   0.08209   0.09325   0.09810   0.10178
 Alpha virt. eigenvalues --    0.10314   0.10638   0.10804   0.11666   0.11872
 Alpha virt. eigenvalues --    0.12135   0.12740   0.13003   0.13354   0.13634

  Beta  occ. eigenvalues --  -19.01365 -14.32838 -14.22394 -14.20719 -10.07547
  Beta  occ. eigenvalues --  -10.07181 -10.07093 -10.06473 -10.05603 -10.04400
  Beta  occ. eigenvalues --  -10.04349 -10.03989 -10.03640 -10.03254 -10.02962
  Beta  occ. eigenvalues --  -10.02085 -10.01155 -10.00128 -10.00121  -0.98679
  Beta  occ. eigenvalues --   -0.92635  -0.82752  -0.71405  -0.70300  -0.67532
  Beta  occ. eigenvalues --   -0.60947  -0.59516  -0.58059  -0.56912  -0.56792
  Beta  occ. eigenvalues --   -0.56399  -0.53850  -0.49033  -0.45322  -0.44369
  Beta  occ. eigenvalues --   -0.41417  -0.39070  -0.37796  -0.36755  -0.36075
  Beta  occ. eigenvalues --   -0.34431  -0.34139  -0.33170  -0.32731  -0.32059
  Beta  occ. eigenvalues --   -0.31683  -0.30619  -0.30089  -0.29789  -0.28660
  Beta  occ. eigenvalues --   -0.27813  -0.27006  -0.26733  -0.26347  -0.25789
  Beta  occ. eigenvalues --   -0.25029  -0.24887  -0.24341  -0.23548  -0.23119
  Beta  occ. eigenvalues --   -0.22062  -0.21959  -0.21392  -0.19972  -0.18940
  Beta  occ. eigenvalues --   -0.18439  -0.16265  -0.13359  -0.11262  -0.09833
  Beta  occ. eigenvalues --   -0.04797
  Beta virt. eigenvalues --    0.07472   0.08158   0.09368   0.09723   0.10220
  Beta virt. eigenvalues --    0.10281   0.10296   0.10722   0.11187   0.11612
  Beta virt. eigenvalues --    0.11887   0.12209   0.12836   0.13071   0.13389

 Mulliken charges and spin densities:
               1          2
     1  C   -0.671956  -0.004634
     2  C    0.520931  -0.013458
     3  C   -0.479001   0.004399
     4  C   -0.639329   0.011938
     5  C    0.186969   0.163393
     6  C   -0.563255   0.295875
     7  C   -0.526450  -0.021230
     8  C   -0.021435   0.042602
     9  C   -0.240127   0.268990
    10  C    0.656813   0.018561
    11  C   -0.627135   0.107055
    12  O   -0.145392   0.013885
    13  C    0.255433   0.053792
    14  C   -0.471791   0.001133
    15  C   -0.515111  -0.092241
    16  C   -0.472661  -0.052189
    17  N   -0.279118   0.017200
    18  N    0.675392   0.010405
    19  N   -0.546616   0.059246
    20  H    0.115789   0.009700
    21  H    0.138977  -0.000953
    22  H    0.130959   0.003737
    23  H    0.136171  -0.000137
    24  H    0.120367   0.001098
    25  H    0.129280  -0.001256
    26  H    0.136808  -0.000328
    27  H    0.129795   0.001164
    28  H    0.108989   0.004945
    29  H    0.160895  -0.016185
    30  H    0.190463  -0.001816
    31  H    0.099887  -0.020383
    32  H    0.066950   0.001942
    33  H    0.236546   0.007547
    34  H    0.095833   0.000575
    35  H    0.122086  -0.001051
    36  H    0.160796  -0.002380
    37  H    0.146257  -0.001056
    38  H    0.086487   0.055124
    39  H    0.071026   0.032181
    40  H    0.083399   0.035992
    41  H    0.136980   0.002544
    42  H    0.099099   0.004276
 Sum of Mulliken charges =  -1.00000   1.00000

 Dipole moment (field-independent basis, Debye):
    X=             -0.3833    Y=             -3.2695    Z=             -0.1827  Tot=              3.2970
 Quadrupole moment (field-independent basis, Debye-Ang):
   XX=           -146.4781   YY=           -141.0666   ZZ=           -143.2951
   XY=             -6.1069   XZ=              3.3393   YZ=             -2.6516

 Summary of Natural Population Analysis:

                                       Natural Population
                Natural  -----------------------------------------------
    Atom  No    Charge         Core      Valence    Rydberg      Total
 -----------------------------------------------------------------------
      C    1   -0.28040      0.99963     2.27541    0.00536     3.28040
      C    2   -0.05177      0.99957     2.04268    0.00952     3.05177
      C    3   -0.28300      0.99965     2.27779    0.00557     3.28300
      C    4   -0.28032      0.99963     2.27524    0.00545     3.28032
      C    5   -0.00391      0.99942     1.99149    0.01300     3.00391
      C    6   -0.04251      0.99948     2.03349    0.00954     3.04251
      C    7   -0.02782      0.99948     2.01342    0.01492     3.02782
      C    8   -0.01235      0.99948     1.99889    0.01398     3.01235
      C    9   -0.14136      0.99951     2.13531    0.00654     3.14136
      C   10   -0.05992      0.99938     2.04726    0.01328     3.05992
      C   11    0.20378      0.99930     1.78352    0.01340     2.79622
      O   12   -0.35424      0.99988     3.34718    0.00718     4.35424
      C   13   -0.05314      0.99958     2.04420    0.00936     3.05314
      C   14   -0.28254      0.99964     2.27736    0.00555     3.28254
      C   15   -0.27748      0.99963     2.27213    0.00572     3.27748
      C   16   -0.27822      0.99964     2.27233    0.00625     3.27822
      N   17   -0.18063      0.99972     2.66721    0.01370     3.68063
      N   18    0.12172      0.99970     2.36181    0.01677     3.37828
      N   19   -0.05409      0.99982     2.54161    0.01265     3.55409
      H   20    0.08724      0.00000     0.41191    0.00085     0.41276
      H   21    0.10888      0.00000     0.39036    0.00076     0.39112
      H   22    0.09752      0.00000     0.40179    0.00069     0.40248
      H   23    0.09188      0.00000     0.40729    0.00083     0.40812
      H   24    0.09904      0.00000     0.40011    0.00085     0.40096
      H   25    0.10033      0.00000     0.39885    0.00082     0.39967
      H   26    0.11087      0.00000     0.38834    0.00079     0.38913
      H   27    0.10020      0.00000     0.39903    0.00077     0.39980
      H   28    0.08562      0.00000     0.41351    0.00087     0.41438
      H   29    0.08959      0.00000     0.40937    0.00104     0.41041
      H   30    0.09815      0.00000     0.40043    0.00142     0.40185
      H   31    0.08118      0.00000     0.41779    0.00103     0.41882
      H   32    0.08344      0.00000     0.41547    0.00108     0.41656
      H   33    0.23394      0.00000     0.26369    0.00237     0.26606
      H   34    0.09600      0.00000     0.40298    0.00102     0.40400
      H   35    0.08807      0.00000     0.41102    0.00091     0.41193
      H   36    0.10935      0.00000     0.38968    0.00097     0.39065
      H   37    0.10260      0.00000     0.39655    0.00085     0.39740
      H   38    0.09076      0.00000     0.40774    0.00150     0.40924
      H   39    0.08699      0.00000     0.41171    0.00130     0.41301
      H   40    0.10040      0.00000     0.39823    0.00137     0.39960
      H   41    0.10749      0.00000     0.39175    0.00076     0.39251
      H   42    0.08865      0.00000     0.41043    0.00091     0.41135
 =======================================================================
   * Total *    0.00000     18.99214    51.79635    0.21151    71.00000

 Normal termination of Gaussian 16 at Sat Dec 12 11:32:25 2020.
