 Gaussian 16, Revision A.03,

 -----------------------------------------------------------
 # opt freq B3LYP/6-31G(d) empiricaldispersion=gd3bj scf=xqc
 -----------------------------------------------------------

 -------------------------------
 CID_101070759_JID_4044_neutraal
 -------------------------------
 Symbolic Z-matrix:
 Charge =  0 Multiplicity = 1

 SCF Done:  E(RB3LYP) =  -617.355364878     A.U. after   15 cycles
 SCF Done:  E(RB3LYP) =  -617.360094600     A.U. after   13 cycles
 SCF Done:  E(RB3LYP) =  -617.358443565     A.U. after   13 cycles
 SCF Done:  E(RB3LYP) =  -617.360560465     A.U. after   12 cycles
 SCF Done:  E(RB3LYP) =  -617.361235981     A.U. after   12 cycles
 SCF Done:  E(RB3LYP) =  -617.361479887     A.U. after   12 cycles
 SCF Done:  E(RB3LYP) =  -617.361664098     A.U. after   13 cycles
 SCF Done:  E(RB3LYP) =  -617.361742255     A.U. after   13 cycles
 SCF Done:  E(RB3LYP) =  -617.361835527     A.U. after   10 cycles
 SCF Done:  E(RB3LYP) =  -617.361941531     A.U. after   11 cycles
 SCF Done:  E(RB3LYP) =  -617.362151453     A.U. after   12 cycles
 SCF Done:  E(RB3LYP) =  -617.362168368     A.U. after   10 cycles
 SCF Done:  E(RB3LYP) =  -617.362177540     A.U. after   10 cycles
 SCF Done:  E(RB3LYP) =  -617.362180656     A.U. after    9 cycles
 SCF Done:  E(RB3LYP) =  -617.362181059     A.U. after    9 cycles
 Optimization completed.
    -- Stationary point found.
 Normal termination of Gaussian 16 at Thu Dec 10 09:54:36 2020.

 --------------------------------------------------------------------
 #N Geom=AllCheck Guess=TCheck SCRF=Check GenChk RB3LYP/6-31G(d) Freq
 --------------------------------------------------------------------

 Structure from the checkpoint file:  "JID_4044.chk"
 -------------------------------
 CID_101070759_JID_4044_neutraal
 -------------------------------
 Charge =  0 Multiplicity = 1

 SCF Done:  E(RB3LYP) =  -617.362181059     A.U. after    1 cycles

  Exact polarizability: 152.691   8.241 121.186  -3.747   7.201  96.043
 Approx polarizability: 227.315  10.648 167.452  -9.052  12.591 146.715

                      1                      2                      3
                      A                      A                      A
 Frequencies --     42.1901                62.2747                71.2961
 Red. masses --      3.6313                 2.8262                 2.7378
 Frc consts  --      0.0038                 0.0065                 0.0082
 IR Inten    --      0.9736                 1.0970                 0.6715

                      4                      5                      6
                      A                      A                      A
 Frequencies --    113.3610               147.6267               171.1149
 Red. masses --      1.6008                 4.1719                 1.9923
 Frc consts  --      0.0121                 0.0536                 0.0344
 IR Inten    --      2.3579                 3.7495                 3.5156

                      7                      8                      9
                      A                      A                      A
 Frequencies --    200.6384               211.1164               225.4860
 Red. masses --      2.9655                 2.0651                 2.9846
 Frc consts  --      0.0703                 0.0542                 0.0894
 IR Inten    --      1.7628                 0.0029                 1.4147

                     10                     11                     12
                      A                      A                      A
 Frequencies --    265.6944               273.9104               381.5194
 Red. masses --      2.4403                 3.6531                 3.3937
 Frc consts  --      0.1015                 0.1615                 0.2910
 IR Inten    --      0.7648                 3.7685                 4.6326

                     13                     14                     15
                      A                      A                      A
 Frequencies --    404.8249               423.6185               439.8815
 Red. masses --      4.6228                 3.3406                 2.5503
 Frc consts  --      0.4464                 0.3532                 0.2907
 IR Inten    --      0.6034                 4.0505                 8.5670

                     16                     17                     18
                      A                      A                      A
 Frequencies --    497.9548               503.0192               517.7223
 Red. masses --      2.8335                 3.2321                 4.0442
 Frc consts  --      0.4139                 0.4818                 0.6387
 IR Inten    --      1.3662                 2.3190                 2.5831

                     19                     20                     21
                      A                      A                      A
 Frequencies --    555.9863               616.2089               654.5068
 Red. masses --      5.1035                 2.8139                 3.7020
 Frc consts  --      0.9295                 0.6295                 0.9344
 IR Inten    --      4.1612                 3.8348                 3.4365

                     22                     23                     24
                      A                      A                      A
 Frequencies --    687.8047               755.6386               776.7776
 Red. masses --      2.2738                 1.7940                 3.3556
 Frc consts  --      0.6338                 0.6035                 1.1929
 IR Inten    --      7.2113                42.7298                 8.1949

                     25                     26                     27
                      A                      A                      A
 Frequencies --    823.8594               854.6419               881.3540
 Red. masses --      1.4136                 2.1217                 2.0278
 Frc consts  --      0.5653                 0.9131                 0.9281
 IR Inten    --      0.6872                 0.8166                 4.6218

                     28                     29                     30
                      A                      A                      A
 Frequencies --    899.2319               926.6893               938.7059
 Red. masses --      2.1759                 2.4731                 2.2173
 Frc consts  --      1.0367                 1.2513                 1.1511
 IR Inten    --      6.0452                 4.3429                20.7024

                     31                     32                     33
                      A                      A                      A
 Frequencies --    971.7377               997.4311              1007.0370
 Red. masses --      3.4775                 1.8194                 2.1905
 Frc consts  --      1.9347                 1.0664                 1.3089
 IR Inten    --      7.9589                16.2479                 2.8157

                     34                     35                     36
                      A                      A                      A
 Frequencies --   1016.1189              1031.4773              1046.7661
 Red. masses --      1.5122                 2.2287                 2.3581
 Frc consts  --      0.9199                 1.3971                 1.5224
 IR Inten    --      2.7574                 2.2362                16.7516

                     37                     38                     39
                      A                      A                      A
 Frequencies --   1086.9698              1103.9482              1131.5869
 Red. masses --      2.5143                 2.4853                 2.6836
 Frc consts  --      1.7503                 1.7846                 2.0246
 IR Inten    --     24.7067                 3.5233                59.2159

                     40                     41                     42
                      A                      A                      A
 Frequencies --   1143.5912              1171.1722              1177.5767
 Red. masses --      2.8677                 2.4720                 1.3616
 Frc consts  --      2.2097                 1.9978                 1.1125
 IR Inten    --     31.9722                88.5761                 0.4591

                     43                     44                     45
                      A                      A                      A
 Frequencies --   1190.9548              1211.7754              1225.7691
 Red. masses --      1.2754                 1.5523                 1.1076
 Frc consts  --      1.0659                 1.3430                 0.9805
 IR Inten    --      1.0035                30.2318                 0.3399

                     46                     47                     48
                      A                      A                      A
 Frequencies --   1234.4300              1255.7282              1274.1050
 Red. masses --      1.6008                 1.5367                 1.3970
 Frc consts  --      1.4372                 1.4277                 1.3362
 IR Inten    --     48.1185                14.3513                 7.8617

                     49                     50                     51
                      A                      A                      A
 Frequencies --   1288.1141              1344.7404              1357.1069
 Red. masses --      1.4269                 1.2590                 1.3603
 Frc consts  --      1.3949                 1.3414                 1.4761
 IR Inten    --     17.5940                 8.5706                 1.8437

                     52                     53                     54
                      A                      A                      A
 Frequencies --   1365.4656              1383.1318              1391.7359
 Red. masses --      1.6793                 1.5126                 1.3700
 Frc consts  --      1.8448                 1.7049                 1.5634
 IR Inten    --      3.6769                 9.0632                 2.9146

                     55                     56                     57
                      A                      A                      A
 Frequencies --   1401.5784              1415.3716              1434.8191
 Red. masses --      2.0052                 1.3243                 1.5239
 Frc consts  --      2.3208                 1.5631                 1.8485
 IR Inten    --      1.7188                11.8815                 3.1386

                     58                     59                     60
                      A                      A                      A
 Frequencies --   1487.3381              1499.2407              1501.3816
 Red. masses --      1.0869                 1.1139                 1.0897
 Frc consts  --      1.4166                 1.4752                 1.4473
 IR Inten    --      9.3938                 0.3962                 1.2476

                     61                     62                     63
                      A                      A                      A
 Frequencies --   1509.6305              1518.2690              1529.0978
 Red. masses --      1.0835                 1.0587                 1.0954
 Frc consts  --      1.4548                 1.4379                 1.5090
 IR Inten    --      2.9320                 4.8444                 1.2630

                     64                     65                     66
                      A                      A                      A
 Frequencies --   1537.2569              1541.0418              1729.3245
 Red. masses --      1.0665                 1.0798                 7.6420
 Frc consts  --      1.4849                 1.5108                13.4652
 IR Inten    --      3.5004                 4.7859                 3.7363

                     67                     68                     69
                      A                      A                      A
 Frequencies --   1772.2165              1806.4951              2989.9032
 Red. masses --      7.2682                11.6694                 1.0644
 Frc consts  --     13.4496                22.4374                 5.6063
 IR Inten    --      7.3158               159.6135                55.8608

                     70                     71                     72
                      A                      A                      A
 Frequencies --   3000.8214              3003.2091              3026.9988
 Red. masses --      1.0944                 1.0488                 1.0604
 Frc consts  --      5.8064                 5.5731                 5.7244
 IR Inten    --     34.0990                61.5594                22.1684

                     73                     74                     75
                      A                      A                      A
 Frequencies --   3029.8512              3033.0096              3057.1374
 Red. masses --      1.0686                 1.0662                 1.0643
 Frc consts  --      5.7797                 5.7789                 5.8605
 IR Inten    --     24.3610                23.1152                47.3202

                     76                     77                     78
                      A                      A                      A
 Frequencies --   3078.1417              3085.6346              3094.0475
 Red. masses --      1.0958                 1.1053                 1.0871
 Frc consts  --      6.1173                 6.2003                 6.1315
 IR Inten    --      7.9836                36.8053                31.1115

                     79                     80                     81
                      A                      A                      A
 Frequencies --   3102.2862              3120.2842              3145.9350
 Red. masses --      1.1012                 1.0945                 1.1020
 Frc consts  --      6.2440                 6.2783                 6.4261
 IR Inten    --     43.4870                21.1103                29.7528

                     82                     83                     84
                      A                      A                      A
 Frequencies --   3147.7946              3169.2809              3230.6075
 Red. masses --      1.0891                 1.0885                 1.0927
 Frc consts  --      6.3583                 6.4420                 6.7194
 IR Inten    --     31.5891                24.2989                 5.7957

 - Thermochemistry -
 -------------------
 Temperature   298.150 Kelvin.  Pressure   1.00000 Atm.
 Atom     1 has atomic number  6 and mass  12.00000

 Molecular mass:   192.11503 amu.
 Principal axes and moments of inertia in atomic units:
                           1         2         3
     Eigenvalues --  2006.518912666.570733422.20689
           X            0.99971   0.02008   0.01321
           Y           -0.02027   0.99969   0.01443
           Z           -0.01292  -0.01469   0.99981
 This molecule is an asymmetric top.
 Rotational symmetry number  1.
 Warning -- assumption of classical behavior for rotation
           may cause significant error
 Rotational temperatures (Kelvin)      0.04317     0.03248     0.02531
 Rotational constants (GHZ):           0.89944     0.67680     0.52736
 Zero-point vibrational energy     680263.2 (Joules/Mol)
                                  162.58681 (Kcal/Mol)
 Warning -- explicit consideration of  20 degrees of freedom as
           vibrations may cause significant error
 Vibrational temperatures:     60.70    89.60   102.58   163.10   212.40
          (Kelvin)            246.20   288.67   303.75   324.42   382.27
                              394.10   548.92   582.45   609.49   632.89
                              716.45   723.73   744.89   799.94   886.59
                              941.69   989.60  1087.20  1117.61  1185.35
                             1229.64  1268.07  1293.79  1333.30  1350.59
                             1398.11  1435.08  1448.90  1461.97  1484.07
                             1506.06  1563.91  1588.34  1628.10  1645.37
                             1685.06  1694.27  1713.52  1743.47  1763.61
                             1776.07  1806.71  1833.15  1853.31  1934.78
                             1952.57  1964.60  1990.02  2002.40  2016.56
                             2036.40  2064.38  2139.95  2157.07  2160.15
                             2172.02  2184.45  2200.03  2211.77  2217.22
                             2488.11  2549.82  2599.14  4301.80  4317.51
                             4320.95  4355.18  4359.28  4363.82  4398.54
                             4428.76  4439.54  4451.64  4463.50  4489.39
                             4526.30  4528.97  4559.89  4648.12

 Zero-point correction=                           0.259099 (Hartree/Particle)
 Thermal correction to Energy=                    0.272398
 Thermal correction to Enthalpy=                  0.273343
 Thermal correction to Gibbs Free Energy=         0.219086
 Sum of electronic and zero-point Energies=           -617.103082
 Sum of electronic and thermal Energies=              -617.089783
 Sum of electronic and thermal Enthalpies=            -617.088838
 Sum of electronic and thermal Free Energies=         -617.143095

                     E (Thermal)             CV                S
                      KCal/Mol        Cal/Mol-Kelvin    Cal/Mol-Kelvin
 Total                  170.933             50.952            114.192
 Electronic               0.000              0.000              0.000
 Translational            0.889              2.981             41.664
 Rotational               0.889              2.981             31.282
 Vibrational            169.155             44.990             41.245
 Vibration     1          0.595              1.980              5.154
 Vibration     2          0.597              1.972              4.384
 Vibration     3          0.598              1.968              4.117
 Vibration     4          0.607              1.938              3.211
 Vibration     5          0.617              1.905              2.703
 Vibration     6          0.626              1.878              2.423
 Vibration     7          0.638              1.839              2.127
 Vibration     8          0.643              1.824              2.034
 Vibration     9          0.650              1.802              1.915
 Vibration    10          0.672              1.736              1.624
 Vibration    11          0.676              1.721              1.571
 Vibration    12          0.751              1.510              1.033
 Vibration    13          0.770              1.460              0.945
 Vibration    14          0.786              1.419              0.880
 Vibration    15          0.800              1.383              0.827
 Vibration    16          0.853              1.255              0.663
 Vibration    17          0.858              1.243              0.651
 Vibration    18          0.873              1.211              0.615
 Vibration    19          0.911              1.127              0.532
 Vibration    20          0.976              0.998              0.423

 Optimization completed.
    -- Stationary point found.
 Normal termination of Gaussian 16 at Thu Dec 10 10:04:18 2020.

 ----------------------------------------------------------------------
 # B3LYP/6-311++G(d,p) empiricaldispersion=gd3bj scf=xqc pop=npa geom=c
 heck
 ----------------------------------------------------------------------

 ---------------------------------------
 CID_101070759_JID_4044_Energie_neutraal
 ---------------------------------------
 Structure from the checkpoint file:  "JID_4044.chk"
 Charge =  0 Multiplicity = 1

 SCF Done:  E(RB3LYP) =  -617.533712991     A.U. after   14 cycles
 Normal termination of Gaussian 16 at Thu Dec 10 10:07:55 2020.

 ----------------------------------------------------------------------
 # B3LYP/6-311++G(d,p) empiricaldispersion=gd3bj scf=xqc pop=npa geom=c
 heck
 ----------------------------------------------------------------------

 -------------------------------------
 CID_101070759_JID_4044_Energie_kation
 -------------------------------------
 Structure from the checkpoint file:  "JID_4044.chk"
 Charge =  1 Multiplicity = 2

 SCF Done:  E(UB3LYP) =  -617.243260792     A.U. after   20 cycles
 Normal termination of Gaussian 16 at Thu Dec 10 10:15:11 2020.
 Gaussian 16:  ES64L-G16RevA.03 25-Dec-2016

 ----------------------------------------------------------------------
 # B3LYP/6-311++G(d,p) empiricaldispersion=gd3bj scf=xqc pop=npa geom=c
 heck
 ----------------------------------------------------------------------

 ------------------------------------
 CID_101070759_JID_4044_Energie_anion
 ------------------------------------
 Structure from the checkpoint file:  "JID_4044.chk"
 Charge = -1 Multiplicity = 2

                         Standard orientation:
 ---------------------------------------------------------------------
 Center     Atomic      Atomic             Coordinates (Angstroms)
 Number     Number       Type             X           Y           Z
 ---------------------------------------------------------------------
      1          6           0       -3.135402    1.040011   -0.660062
      2          8           0       -1.842713    1.590907   -0.841525
      3          6           0       -0.842415    0.659984   -1.181377
      4          6           0        0.105943    0.284701    0.014919
      5          6           0        0.669561    1.566010    0.580660
      6          6           0        1.964182    1.877824    0.557974
      7          6           0        3.024283    0.978969   -0.011046
      8          6           0        2.473872   -0.331541   -0.494698
      9          6           0        1.177702   -0.658798   -0.504115
     10          6           0        0.704219   -2.008599   -1.012328
     11          6           0       -0.509314   -2.555403   -0.220656
     12          6           0       -0.582912   -1.940448    1.182548
     13          6           0       -0.706712   -0.426216    1.123872
     14          8           0       -1.396466    0.195237    1.908916
     15          1           0       -3.169199    0.316586    0.161847
     16          1           0       -3.494980    0.558146   -1.582942
     17          1           0       -3.797297    1.874715   -0.416898
     18          1           0       -1.285287   -0.242712   -1.624298
     19          1           0       -0.200387    1.126636   -1.937357
     20          1           0       -0.066336    2.237155    1.008593
     21          1           0        2.294456    2.828047    0.973523
     22          1           0        3.806321    0.796051    0.744116
     23          1           0        3.553047    1.489867   -0.833244
     24          1           0        3.200631   -1.057429   -0.859710
     25          1           0        1.540168   -2.714130   -0.953198
     26          1           0        0.438910   -1.942316   -2.076393
     27          1           0       -1.443157   -2.335021   -0.751522
     28          1           0       -0.451287   -3.646351   -0.149263
     29          1           0       -1.415232   -2.331873    1.774044
     30          1           0        0.345016   -2.165484    1.729423
 ---------------------------------------------------------------------

 SCF Done:  E(UB3LYP) =  -617.523709206     A.U. after   33 cycles
 SCF Done:  E(UB3LYP) =  -617.523709206     a.u. after    1 cycles

 The electronic state is 2-A.
 Alpha  occ. eigenvalues --  -19.02496 -18.98648 -10.13081 -10.11742 -10.11151
 Alpha  occ. eigenvalues --  -10.08430 -10.07353 -10.07070 -10.06448 -10.06339
 Alpha  occ. eigenvalues --  -10.06305 -10.06163 -10.06031 -10.05991  -0.93909
 Alpha  occ. eigenvalues --   -0.92240  -0.75250  -0.69897  -0.66622  -0.64437
 Alpha  occ. eigenvalues --   -0.60892  -0.59713  -0.55043  -0.51135  -0.50535
 Alpha  occ. eigenvalues --   -0.46043  -0.43096  -0.39085  -0.38886  -0.37567
 Alpha  occ. eigenvalues --   -0.37174  -0.36634  -0.35212  -0.32940  -0.32587
 Alpha  occ. eigenvalues --   -0.31711  -0.31444  -0.30546  -0.29772  -0.29518
 Alpha  occ. eigenvalues --   -0.28271  -0.26328  -0.25494  -0.24334  -0.23767
 Alpha  occ. eigenvalues --   -0.22347  -0.21788  -0.20022  -0.16530  -0.15439
 Alpha  occ. eigenvalues --   -0.14728  -0.11279   0.04517
 Alpha virt. eigenvalues --    0.06933   0.07469   0.07969   0.08438   0.08901
 Alpha virt. eigenvalues --    0.09839   0.10001   0.10400   0.10529   0.11324
 Alpha virt. eigenvalues --    0.11774   0.12183   0.12863   0.13093   0.13217

  Beta  occ. eigenvalues --  -19.02495 -18.98471 -10.12916 -10.11696 -10.11140
  Beta  occ. eigenvalues --  -10.08440 -10.07336 -10.07070 -10.06433 -10.06311
  Beta  occ. eigenvalues --  -10.06260 -10.06167 -10.06019 -10.05987  -0.93887
  Beta  occ. eigenvalues --   -0.91922  -0.75197  -0.69832  -0.66566  -0.64377
  Beta  occ. eigenvalues --   -0.60861  -0.59588  -0.54981  -0.51012  -0.50445
  Beta  occ. eigenvalues --   -0.45976  -0.42914  -0.39038  -0.38802  -0.37483
  Beta  occ. eigenvalues --   -0.37103  -0.36541  -0.35152  -0.32870  -0.32554
  Beta  occ. eigenvalues --   -0.31547  -0.31366  -0.30438  -0.29647  -0.29438
  Beta  occ. eigenvalues --   -0.28172  -0.26253  -0.25359  -0.23960  -0.23682
  Beta  occ. eigenvalues --   -0.22293  -0.21548  -0.19986  -0.16484  -0.15394
  Beta  occ. eigenvalues --   -0.14644  -0.11187
  Beta virt. eigenvalues --    0.06927   0.07437   0.08247   0.08884   0.09262
  Beta virt. eigenvalues --    0.09367   0.10169   0.10298   0.10587   0.10880
  Beta virt. eigenvalues --    0.11730   0.12115   0.12390   0.13095   0.13243

 Mulliken charges and spin densities:
               1          2
     1  C    0.047802  -0.324990
     2  O   -0.031482   0.004009
     3  C    0.309457  -1.147907
     4  C   -0.184090   0.886055
     5  C    0.116841   0.090093
     6  C   -0.428591   0.016212
     7  C    1.089292  -2.059293
     8  C    0.224811  -0.332695
     9  C   -1.438277   2.462827
    10  C    1.150454  -1.946803
    11  C    0.198328  -0.365347
    12  C   -0.039486  -0.225647
    13  C   -0.186956  -0.371577
    14  O   -0.247479   0.054866
    15  H    0.122642   0.041526
    16  H   -0.132177   0.247988
    17  H    0.082882   0.053658
    18  H    0.244262  -0.125898
    19  H    0.052262   0.170256
    20  H    0.217282   0.031166
    21  H   -0.089758   0.238430
    22  H    0.002498   0.152611
    23  H   -0.099675   0.263387
    24  H   -0.647640   0.816197
    25  H   -0.185560   0.335000
    26  H   -0.289231   0.473924
    27  H   -0.016738   0.138506
    28  H   -0.910946   1.129604
    29  H    0.114330   0.063554
    30  H   -0.045058   0.230287
 Sum of Mulliken charges =  -1.00000   1.00000

 Dipole moment (field-independent basis, Debye):
    X=             -2.2121    Y=              4.3982    Z=              0.4080  Tot=              4.9401
 Quadrupole moment (field-independent basis, Debye-Ang):
   XX=           -126.8465   YY=           -138.3176   ZZ=           -119.7388
   XY=              4.5757   XZ=              3.8957   YZ=             -3.0071

 Summary of Natural Population Analysis:

                                       Natural Population
                Natural  -----------------------------------------------
    Atom  No    Charge         Core      Valence    Rydberg      Total
 -----------------------------------------------------------------------
      C    1   -0.09757      0.99960     2.08901    0.00895     3.09757
      O    2   -0.29922      0.99988     3.28958    0.00977     4.29922
      C    3    0.00554      0.99953     1.98079    0.01414     2.99446
      C    4   -0.11702      0.99944     2.10357    0.01401     3.11702
      C    5   -0.08212      0.99951     2.06979    0.01282     3.08212
      C    6   -0.08802      0.99952     2.07888    0.00963     3.08802
      C    7   -0.21857      0.99961     2.21001    0.00896     3.21857
      C    8   -0.08692      0.99944     2.07734    0.01014     3.08692
      C    9   -0.00301      0.99947     1.99030    0.01325     3.00301
      C   10   -0.20261      0.99959     2.19250    0.01053     3.20261
      C   11   -0.18865      0.99963     2.18049    0.00853     3.18865
      C   12   -0.23878      0.99958     2.22952    0.00968     3.23878
      C   13    0.32893      0.99961     1.64782    0.02364     2.67107
      O   14   -0.28078      0.99987     3.27412    0.00679     4.28078
      H   15    0.08927      0.00000     0.40962    0.00110     0.41073
      H   16    0.07527      0.00000     0.42363    0.00110     0.42473
      H   17    0.08682      0.00000     0.41244    0.00074     0.41318
      H   18    0.08528      0.00000     0.41293    0.00179     0.41472
      H   19    0.09232      0.00000     0.40608    0.00160     0.40768
      H   20    0.11049      0.00000     0.38788    0.00163     0.38951
      H   21    0.09383      0.00000     0.40530    0.00087     0.40617
      H   22    0.10304      0.00000     0.39575    0.00121     0.39696
      H   23    0.10430      0.00000     0.39428    0.00142     0.39570
      H   24    0.09689      0.00000     0.40156    0.00155     0.40311
      H   25    0.10673      0.00000     0.39096    0.00232     0.39327
      H   26    0.10373      0.00000     0.39473    0.00154     0.39627
      H   27    0.09311      0.00000     0.40523    0.00165     0.40689
      H   28    0.10659      0.00000     0.39029    0.00312     0.39341
      H   29    0.10762      0.00000     0.39123    0.00115     0.39238
      H   30    0.11353      0.00000     0.38472    0.00175     0.38647
 =======================================================================
   * Total *   -0.00000     13.99429    37.82034    0.18536    52.00000

 Normal termination of Gaussian 16 at Thu Dec 10 10:28:57 2020.
