 Gaussian 16, Revision A.03,

 -----------------------------------------------------------
 # opt freq B3LYP/6-31G(d) empiricaldispersion=gd3bj scf=xqc
 -----------------------------------------------------------

 ------------------------------
 CID_72228958_JID_7293_neutraal
 ------------------------------
 Symbolic Z-matrix:
 Charge =  0 Multiplicity = 1

 SCF Done:  E(RB3LYP) =  -771.198758500     A.U. after   14 cycles
 SCF Done:  E(RB3LYP) =  -771.204774446     A.U. after   12 cycles
 SCF Done:  E(RB3LYP) =  -771.205289038     A.U. after   11 cycles
 SCF Done:  E(RB3LYP) =  -771.205666428     A.U. after   11 cycles
 SCF Done:  E(RB3LYP) =  -771.205889379     A.U. after   11 cycles
 SCF Done:  E(RB3LYP) =  -771.206087832     A.U. after   12 cycles
 SCF Done:  E(RB3LYP) =  -771.206197850     A.U. after   11 cycles
 SCF Done:  E(RB3LYP) =  -771.206304860     A.U. after   11 cycles
 SCF Done:  E(RB3LYP) =  -771.206306570     A.U. after   10 cycles
 SCF Done:  E(RB3LYP) =  -771.206309924     A.U. after   10 cycles
 SCF Done:  E(RB3LYP) =  -771.206313390     A.U. after    9 cycles
 SCF Done:  E(RB3LYP) =  -771.206313688     A.U. after    8 cycles
 SCF Done:  E(RB3LYP) =  -771.206313830     A.U. after    7 cycles
 SCF Done:  E(RB3LYP) =  -771.206313844     A.U. after    6 cycles
 Optimization completed.
    -- Stationary point found.
 Normal termination of Gaussian 16 at Fri Dec 11 12:00:36 2020.

 --------------------------------------------------------------------
 #N Geom=AllCheck Guess=TCheck SCRF=Check GenChk RB3LYP/6-31G(d) Freq
 --------------------------------------------------------------------

 Structure from the checkpoint file:  "JID_7293.chk"
 ------------------------------
 CID_72228958_JID_7293_neutraal
 ------------------------------
 Charge =  0 Multiplicity = 1

 SCF Done:  E(RB3LYP) =  -771.206313844     A.U. after    1 cycles

  Exact polarizability: 205.472   2.846 142.414   2.145  14.266 116.636
 Approx polarizability: 265.529   3.497 214.736   3.606  34.186 182.399

                      1                      2                      3
                      A                      A                      A
 Frequencies --     22.6929                35.5581                51.3409
 Red. masses --      2.8826                 3.6133                 2.8912
 Frc consts  --      0.0009                 0.0027                 0.0045
 IR Inten    --      0.0246                 0.0911                 0.5802

                      4                      5                      6
                      A                      A                      A
 Frequencies --     69.1635                72.0393                94.2050
 Red. masses --      4.1037                 3.5840                 2.8641
 Frc consts  --      0.0116                 0.0110                 0.0150
 IR Inten    --      1.5464                 0.8889                 2.6146

                      7                      8                      9
                      A                      A                      A
 Frequencies --    123.4979               154.7723               178.5026
 Red. masses --      3.6361                 1.5591                 1.7849
 Frc consts  --      0.0327                 0.0220                 0.0335
 IR Inten    --      1.7561                 0.6591                 1.7462

                     10                     11                     12
                      A                      A                      A
 Frequencies --    206.7545               220.2432               264.5172
 Red. masses --      4.5543                 1.0214                 1.8206
 Frc consts  --      0.1147                 0.0292                 0.0751
 IR Inten    --      0.6564                 0.0729                 1.3866

                     13                     14                     15
                      A                      A                      A
 Frequencies --    271.9244               282.2337               289.3273
 Red. masses --      2.3089                 2.6083                 1.2805
 Frc consts  --      0.1006                 0.1224                 0.0632
 IR Inten    --      1.1172                 2.5065                 0.3768

                     16                     17                     18
                      A                      A                      A
 Frequencies --    295.3570               319.8341               365.4907
 Red. masses --      1.6494                 3.1584                 2.9956
 Frc consts  --      0.0848                 0.1904                 0.2358
 IR Inten    --      1.2170                 3.3147                 2.0748

                     19                     20                     21
                      A                      A                      A
 Frequencies --    368.9451               390.2125               405.7591
 Red. masses --      3.2095                 3.6474                 2.8537
 Frc consts  --      0.2574                 0.3272                 0.2768
 IR Inten    --      1.7900                 1.6105                 0.0060

                     22                     23                     24
                      A                      A                      A
 Frequencies --    433.1161               454.1931               485.4665
 Red. masses --      3.0662                 3.1131                 4.1003
 Frc consts  --      0.3389                 0.3784                 0.5694
 IR Inten    --      0.9255                 6.5951                 8.4710

                     25                     26                     27
                      A                      A                      A
 Frequencies --    490.9887               532.2524               565.8692
 Red. masses --      3.0714                 3.8204                 5.0308
 Frc consts  --      0.4362                 0.6377                 0.9491
 IR Inten    --      4.3705                 1.1217                 1.1700

                     28                     29                     30
                      A                      A                      A
 Frequencies --    616.3007               670.9358               733.5579
 Red. masses --      5.1833                 3.9968                 3.1859
 Frc consts  --      1.1600                 1.0600                 1.0101
 IR Inten    --      3.5584                 5.6846                 1.8802

                     31                     32                     33
                      A                      A                      A
 Frequencies --    743.2481               764.9161               773.4801
 Red. masses --      2.9575                 1.8062                 3.3707
 Frc consts  --      0.9626                 0.6226                 1.1882
 IR Inten    --      0.6180                 2.9352                 4.9441

                     34                     35                     36
                      A                      A                      A
 Frequencies --    794.4439               833.0372               849.2810
 Red. masses --      2.0690                 1.5628                 1.9104
 Frc consts  --      0.7694                 0.6390                 0.8118
 IR Inten    --     14.7584                 5.9100                 2.7562

                     37                     38                     39
                      A                      A                      A
 Frequencies --    859.8094               880.3090               912.9175
 Red. masses --      2.2116                 2.2345                 1.9752
 Frc consts  --      0.9633                 1.0203                 0.9699
 IR Inten    --     33.1490                25.2026                43.1723

                     40                     41                     42
                      A                      A                      A
 Frequencies --    926.0109               938.6936               945.9273
 Red. masses --      1.6553                 1.6319                 1.3254
 Frc consts  --      0.8363                 0.8472                 0.6987
 IR Inten    --      0.0338                 0.9694                 0.2221

                     43                     44                     45
                      A                      A                      A
 Frequencies --    976.1463               978.7518               988.0297
 Red. masses --      1.2157                 3.2676                 2.6499
 Frc consts  --      0.6825                 1.8443                 1.5241
 IR Inten    --      0.9405                50.0099                 9.0667

                     46                     47                     48
                      A                      A                      A
 Frequencies --   1003.9446              1053.1307              1058.2783
 Red. masses --      2.9015                 3.5906                 1.4200
 Frc consts  --      1.7230                 2.3463                 0.9370
 IR Inten    --     20.6504                92.8334                 1.2956

                     49                     50                     51
                      A                      A                      A
 Frequencies --   1061.1566              1066.4803              1078.0860
 Red. masses --      1.4476                 1.4114                 1.4636
 Frc consts  --      0.9604                 0.9458                 1.0023
 IR Inten    --     19.4629                 1.6779                 1.6311

                     52                     53                     54
                      A                      A                      A
 Frequencies --   1133.2895              1143.1775              1184.4599
 Red. masses --      1.5615                 1.1968                 2.0982
 Frc consts  --      1.1816                 0.9215                 1.7344
 IR Inten    --     44.0661                 3.0175               264.2126

                     55                     56                     57
                      A                      A                      A
 Frequencies --   1187.2488              1190.1898              1203.6703
 Red. masses --      1.6286                 1.4871                 1.3666
 Frc consts  --      1.3525                 1.2412                 1.1666
 IR Inten    --     26.0507                21.1501                 9.4627

                     58                     59                     60
                      A                      A                      A
 Frequencies --   1212.9740              1231.7523              1235.8805
 Red. masses --      1.8838                 1.8123                 2.0211
 Frc consts  --      1.6330                 1.6200                 1.8188
 IR Inten    --    191.0387                24.4501                19.4488

                     61                     62                     63
                      A                      A                      A
 Frequencies --   1256.0113              1276.2647              1283.2999
 Red. masses --      2.0908                 2.6418                 1.7321
 Frc consts  --      1.9434                 2.5353                 1.6806
 IR Inten    --     46.8221                13.3070               101.8195

                     64                     65                     66
                      A                      A                      A
 Frequencies --   1299.6236              1327.0937              1334.6758
 Red. masses --      2.8438                 8.3235                 7.4901
 Frc consts  --      2.8300                 8.6369                 7.8612
 IR Inten    --     28.4885                13.3106                38.1027

                     67                     68                     69
                      A                      A                      A
 Frequencies --   1400.2719              1425.6949              1427.2701
 Red. masses --      1.3903                 1.2866                 1.3016
 Frc consts  --      1.6061                 1.5408                 1.5622
 IR Inten    --     38.5643                12.4180                11.6527

                     70                     71                     72
                      A                      A                      A
 Frequencies --   1451.4657              1452.8730              1481.4113
 Red. masses --      2.0166                 1.5186                 1.0927
 Frc consts  --      2.5031                 1.8886                 1.4128
 IR Inten    --     19.7875                10.0061                 1.1615

                     73                     74                     75
                      A                      A                      A
 Frequencies --   1500.6068              1502.3191              1515.4100
 Red. masses --      1.3686                 1.0488                 1.0558
 Frc consts  --      1.8158                 1.3947                 1.4285
 IR Inten    --     19.5749                 0.3255                 8.7177

                     76                     77                     78
                      A                      A                      A
 Frequencies --   1516.7877              1517.7325              1524.7304
 Red. masses --      1.0484                 1.0459                 1.4249
 Frc consts  --      1.4211                 1.4194                 1.9518
 IR Inten    --      2.3295                 1.6579                37.8188

                     79                     80                     81
                      A                      A                      A
 Frequencies --   1527.8176              1530.0843              1541.6062
 Red. masses --      1.0627                 1.0679                 1.4054
 Frc consts  --      1.4616                 1.4730                 1.9679
 IR Inten    --      0.7811                 4.8525                53.2578

                     82                     83                     84
                      A                      A                      A
 Frequencies --   1544.4012              1550.3143              1629.7047
 Red. masses --      1.5667                 1.1240                 7.6845
 Frc consts  --      2.2016                 1.5917                12.0250
 IR Inten    --    145.7483                44.5262                16.4227

                     85                     86                     87
                      A                      A                      A
 Frequencies --   1662.1820              3041.2259              3054.9123
 Red. masses --      6.5539                 1.0354                 1.0349
 Frc consts  --     10.6685                 5.6422                 5.6902
 IR Inten    --     35.5319                65.3572                17.5142

                     88                     89                     90
                      A                      A                      A
 Frequencies --   3056.8935              3064.3629              3116.6717
 Red. masses --      1.0347                 1.0356                 1.1006
 Frc consts  --      5.6966                 5.7296                 6.2988
 IR Inten    --     14.3677                13.3176                26.8688

                     91                     92                     93
                      A                      A                      A
 Frequencies --   3123.2641              3126.3033              3134.1822
 Red. masses --      1.1025                 1.1026                 1.1035
 Frc consts  --      6.3364                 6.3493                 6.3867
 IR Inten    --      2.5161                14.9163                 1.0727

                     94                     95                     96
                      A                      A                      A
 Frequencies --   3136.6749              3137.7311              3138.2241
 Red. masses --      1.1024                 1.1027                 1.1023
 Frc consts  --      6.3904                 6.3963                 6.3961
 IR Inten    --     59.6622                35.2661                38.3588

                     97                     98                     99
                      A                      A                      A
 Frequencies --   3153.1018              3156.1030              3156.4128
 Red. masses --      1.0512                 1.0578                 1.1054
 Frc consts  --      6.1577                 6.2083                 6.4885
 IR Inten    --     14.9368                 7.4295                24.9675

                    100                    101                    102
                      A                      A                      A
 Frequencies --   3184.5732              3207.0550              3226.1381
 Red. masses --      1.0908                 1.0886                 1.0942
 Frc consts  --      6.5177                 6.5970                 6.7096
 IR Inten    --     12.0786                 8.8324                 7.3395

                    103                    104                    105
                      A                      A                      A
 Frequencies --   3231.8107              3232.1032              3245.1330
 Red. masses --      1.0916                 1.1198                 1.1158
 Frc consts  --      6.7173                 6.8924                 6.9233
 IR Inten    --      2.2395                 0.5484                17.6980

 - Thermochemistry -
 -------------------
 Temperature   298.150 Kelvin.  Pressure   1.00000 Atm.
 Atom     1 has atomic number  6 and mass  12.00000

 Molecular mass:   236.14124 amu.
 Principal axes and moments of inertia in atomic units:
                           1         2         3
     Eigenvalues --  1987.770257420.984568195.45118
           X            0.99998   0.00418  -0.00389
           Y           -0.00421   0.99997  -0.00676
           Z            0.00386   0.00677   0.99997
 This molecule is an asymmetric top.
 Rotational symmetry number  1.
 Warning -- assumption of classical behavior for rotation
           may cause significant error
 Rotational temperatures (Kelvin)      0.04357     0.01167     0.01057
 Rotational constants (GHZ):           0.90792     0.24319     0.22021
 Zero-point vibrational energy     831861.0 (Joules/Mol)
                                  198.81956 (Kcal/Mol)
 Warning -- explicit consideration of  28 degrees of freedom as
           vibrations may cause significant error
 Vibrational temperatures:     32.65    51.16    73.87    99.51   103.65
          (Kelvin)            135.54   177.69   222.68   256.83   297.47
                              316.88   380.58   391.24   406.07   416.28
                              424.95   460.17   525.86   530.83   561.43
                              583.80   623.16   653.48   698.48   706.42
                              765.79   814.16   886.72   965.33  1055.43
                             1069.37  1100.54  1112.87  1143.03  1198.55
                             1221.93  1237.07  1266.57  1313.48  1332.32
                             1350.57  1360.98  1404.46  1408.21  1421.55
                             1444.45  1515.22  1522.63  1526.77  1534.43
                             1551.13  1630.55  1644.78  1704.17  1708.19
                             1712.42  1731.81  1745.20  1772.22  1778.16
                             1807.12  1836.26  1846.38  1869.87  1909.39
                             1920.30  2014.68  2051.26  2053.52  2088.34
                             2090.36  2131.42  2159.04  2161.50  2180.34
                             2182.32  2183.68  2193.75  2198.19  2201.45
                             2218.03  2222.05  2230.56  2344.78  2391.51
                             4375.65  4395.34  4398.19  4408.93  4484.20
                             4493.68  4498.05  4509.39  4512.98  4514.50
                             4515.20  4536.61  4540.93  4541.37  4581.89
                             4614.24  4641.69  4649.85  4650.28  4669.02

 Zero-point correction=                           0.316839 (Hartree/Particle)
 Thermal correction to Energy=                    0.334703
 Thermal correction to Enthalpy=                  0.335647
 Thermal correction to Gibbs Free Energy=         0.270166
 Sum of electronic and zero-point Energies=           -770.889475
 Sum of electronic and thermal Energies=              -770.871611
 Sum of electronic and thermal Enthalpies=            -770.870667
 Sum of electronic and thermal Free Energies=         -770.936148

                     E (Thermal)             CV                S
                      KCal/Mol        Cal/Mol-Kelvin    Cal/Mol-Kelvin
 Total                  210.029             67.828            137.817
 Electronic               0.000              0.000              0.000
 Translational            0.889              2.981             42.279
 Rotational               0.889              2.981             33.158
 Vibrational            208.252             61.867             62.380
 Vibration     1          0.593              1.985              6.383
 Vibration     2          0.594              1.982              5.492
 Vibration     3          0.596              1.977              4.765
 Vibration     4          0.598              1.969              4.177
 Vibration     5          0.598              1.967              4.097
 Vibration     6          0.603              1.953              3.571
 Vibration     7          0.610              1.929              3.045
 Vibration     8          0.620              1.897              2.613
 Vibration     9          0.629              1.869              2.344
 Vibration    10          0.641              1.830              2.072
 Vibration    11          0.647              1.810              1.957
 Vibration    12          0.671              1.738              1.632
 Vibration    13          0.675              1.725              1.584
 Vibration    14          0.681              1.707              1.520
 Vibration    15          0.686              1.694              1.478
 Vibration    16          0.690              1.682              1.443
 Vibration    17          0.706              1.636              1.311
 Vibration    18          0.739              1.543              1.099
 Vibration    19          0.741              1.536              1.084
 Vibration    20          0.758              1.491              0.999
 Vibration    21          0.771              1.458              0.942
 Vibration    22          0.794              1.398              0.849
 Vibration    23          0.813              1.352              0.783
 Vibration    24          0.842              1.282              0.695
 Vibration    25          0.847              1.270              0.681
 Vibration    26          0.887              1.179              0.582
 Vibration    27          0.922              1.105              0.512
 Vibration    28          0.976              0.997              0.422

 Optimization completed.
    -- Stationary point found.
 Normal termination of Gaussian 16 at Fri Dec 11 12:14:22 2020.

 ----------------------------------------------------------------------
 # B3LYP/6-311++G(d,p) empiricaldispersion=gd3bj scf=xqc pop=npa geom=c
 heck
 ----------------------------------------------------------------------

 --------------------------------------
 CID_72228958_JID_7293_Energie_neutraal
 --------------------------------------
 Structure from the checkpoint file:  "JID_7293.chk"
 Charge =  0 Multiplicity = 1

 SCF Done:  E(RB3LYP) =  -771.419016182     A.U. after   15 cycles
 Normal termination of Gaussian 16 at Fri Dec 11 12:21:20 2020.

 ----------------------------------------------------------------------
 # B3LYP/6-311++G(d,p) empiricaldispersion=gd3bj scf=xqc pop=npa geom=c
 heck
 ----------------------------------------------------------------------

 ------------------------------------
 CID_72228958_JID_7293_Energie_kation
 ------------------------------------
 Structure from the checkpoint file:  "JID_7293.chk"
 Charge =  1 Multiplicity = 2

 SCF Done:  E(UB3LYP) =  -771.125837206     A.U. after   23 cycles
 Normal termination of Gaussian 16 at Fri Dec 11 12:40:10 2020.
 Gaussian 16:  ES64L-G16RevA.03 25-Dec-2016

 ----------------------------------------------------------------------
 # B3LYP/6-311++G(d,p) empiricaldispersion=gd3bj scf=xqc pop=npa geom=c
 heck
 ----------------------------------------------------------------------

 -----------------------------------
 CID_72228958_JID_7293_Energie_anion
 -----------------------------------
 Structure from the checkpoint file:  "JID_7293.chk"
 Charge = -1 Multiplicity = 2

                         Standard orientation:
 ---------------------------------------------------------------------
 Center     Atomic      Atomic             Coordinates (Angstroms)
 Number     Number       Type             X           Y           Z
 ---------------------------------------------------------------------
      1          6           0       -4.936565    0.166820   -0.072201
      2          6           0       -3.519185   -0.237332    0.327920
      3          6           0       -3.151589    0.345656    1.695256
      4          6           0       -3.365324   -1.760735    0.327614
      5          8           0       -2.698130    0.359082   -0.722832
      6          6           0       -1.333589    0.188827   -0.678063
      7          6           0       -0.532913    1.135418   -0.030203
      8          6           0        0.854315    1.009410   -0.036665
      9          6           0        1.455365   -0.079488   -0.690899
     10          6           0        0.654897   -1.003144   -1.358893
     11          6           0       -0.733464   -0.871498   -1.362762
     12          8           0        2.828125   -0.230844   -0.723378
     13          6           0        3.416994   -0.506033    0.535889
     14          6           0        3.310802   -1.904547    1.069756
     15          6           0        4.617639   -1.392242    0.493204
     16          8           0        1.608551    1.948709    0.631644
     17          6           0        2.401326    2.779785   -0.224005
     18          1           0       -5.665366   -0.225212    0.644720
     19          1           0       -5.175563   -0.224820   -1.065743
     20          1           0       -5.024931    1.257195   -0.101948
     21          1           0       -3.825261   -0.048228    2.463929
     22          1           0       -2.127087    0.085765    1.977487
     23          1           0       -3.242368    1.436654    1.684233
     24          1           0       -3.615804   -2.171229   -0.656010
     25          1           0       -2.341979   -2.056687    0.576967
     26          1           0       -4.037705   -2.206485    1.068545
     27          1           0       -0.983716    1.984762    0.469747
     28          1           0        1.141316   -1.823901   -1.876452
     29          1           0       -1.358637   -1.581785   -1.892175
     30          1           0        3.382223    0.329748    1.228998
     31          1           0        3.224885   -2.042970    2.143779
     32          1           0        2.748153   -2.615468    0.472274
     33          1           0        4.906981   -1.765913   -0.484230
     34          1           0        5.444401   -1.177308    1.164117
     35          1           0        3.120656    2.187063   -0.797544
     36          1           0        1.759129    3.343696   -0.912336
     37          1           0        2.930057    3.474159    0.432477
 ---------------------------------------------------------------------

 SCF Done:  E(UB3LYP) =  -771.402956438     A.U. after   33 cycles
 SCF Done:  E(UB3LYP) =  -771.402956438     a.u. after    1 cycles

 The electronic state is 2-A.
 Alpha  occ. eigenvalues --  -19.05820 -19.05440 -19.03734 -10.14329 -10.14067
 Alpha  occ. eigenvalues --  -10.13993 -10.13813 -10.13662 -10.12779 -10.08849
 Alpha  occ. eigenvalues --  -10.08817 -10.08620 -10.08215 -10.08213 -10.06544
 Alpha  occ. eigenvalues --  -10.06499 -10.06494  -0.98284  -0.96117  -0.95406
 Alpha  occ. eigenvalues --   -0.77639  -0.75706  -0.71126  -0.66813  -0.64299
 Alpha  occ. eigenvalues --   -0.60505  -0.59998  -0.59773  -0.54047  -0.53084
 Alpha  occ. eigenvalues --   -0.52140  -0.49993  -0.47153  -0.44838  -0.42016
 Alpha  occ. eigenvalues --   -0.41658  -0.39889  -0.39215  -0.38473  -0.36937
 Alpha  occ. eigenvalues --   -0.36444  -0.36195  -0.35015  -0.34667  -0.33356
 Alpha  occ. eigenvalues --   -0.32423  -0.31256  -0.30260  -0.29880  -0.29230
 Alpha  occ. eigenvalues --   -0.28457  -0.28135  -0.27620  -0.27286  -0.25635
 Alpha  occ. eigenvalues --   -0.25600  -0.24377  -0.22961  -0.21579  -0.19840
 Alpha  occ. eigenvalues --   -0.18479  -0.17860  -0.15975  -0.13902   0.04301
 Alpha virt. eigenvalues --    0.05685   0.06445   0.06959   0.07285   0.07973
 Alpha virt. eigenvalues --    0.08225   0.08251   0.08702   0.09102   0.09508
 Alpha virt. eigenvalues --    0.09986   0.10400   0.10728   0.10906   0.11651

  Beta  occ. eigenvalues --  -19.05816 -19.05440 -19.03730 -10.14328 -10.14055
  Beta  occ. eigenvalues --  -10.13987 -10.13815 -10.13668 -10.12750 -10.08832
  Beta  occ. eigenvalues --  -10.08807 -10.08602 -10.08195 -10.08190 -10.06515
  Beta  occ. eigenvalues --  -10.06469 -10.06462  -0.98277  -0.96109  -0.95402
  Beta  occ. eigenvalues --   -0.77622  -0.75686  -0.71106  -0.66775  -0.64274
  Beta  occ. eigenvalues --   -0.60457  -0.59947  -0.59721  -0.54024  -0.53050
  Beta  occ. eigenvalues --   -0.52089  -0.49958  -0.47121  -0.44817  -0.41984
  Beta  occ. eigenvalues --   -0.41627  -0.39849  -0.39191  -0.38444  -0.36903
  Beta  occ. eigenvalues --   -0.36416  -0.36165  -0.34988  -0.34645  -0.33328
  Beta  occ. eigenvalues --   -0.32403  -0.31230  -0.30228  -0.29843  -0.29197
  Beta  occ. eigenvalues --   -0.28432  -0.28099  -0.27590  -0.27257  -0.25607
  Beta  occ. eigenvalues --   -0.25566  -0.24352  -0.22935  -0.21559  -0.19820
  Beta  occ. eigenvalues --   -0.18462  -0.17842  -0.15903  -0.13865
  Beta virt. eigenvalues --    0.06214   0.06651   0.06914   0.07261   0.07570
  Beta virt. eigenvalues --    0.08249   0.08585   0.08681   0.09033   0.09376
  Beta virt. eigenvalues --    0.09919   0.10198   0.10663   0.10988   0.11114

 Mulliken charges and spin densities:
               1          2
     1  C    0.356286  -0.745025
     2  C   -1.766617   1.908883
     3  C    0.732249  -1.326627
     4  C    0.892180  -1.494543
     5  O   -0.020433  -0.004283
     6  C   -0.528218  -0.073153
     7  C   -0.234647   0.499781
     8  C    0.239548  -0.678282
     9  C    0.062578  -0.273600
    10  C   -0.686132   0.745145
    11  C    0.925290  -0.627424
    12  O   -0.069747  -0.007444
    13  C   -0.833839   0.675465
    14  C   -0.001267  -0.364949
    15  C    0.901317  -1.084988
    16  O   -0.124639   0.023859
    17  C    0.453482  -0.710010
    18  H   -0.120280   0.266008
    19  H   -0.107065   0.261272
    20  H   -0.090458   0.242715
    21  H   -0.277735   0.436354
    22  H    0.027991   0.134948
    23  H   -0.065416   0.212988
    24  H   -0.088158   0.244859
    25  H   -0.150014   0.302239
    26  H   -0.210210   0.359792
    27  H    0.185153   0.024018
    28  H   -0.076284   0.270708
    29  H    0.039011   0.137035
    30  H    0.159190   0.050607
    31  H   -0.174537   0.330349
    32  H    0.120555   0.040756
    33  H    0.098392   0.041299
    34  H   -0.239458   0.384503
    35  H    0.066153   0.112918
    36  H   -0.066385   0.185688
    37  H   -0.327833   0.498136
 Sum of Mulliken charges =  -1.00000   1.00000

 Dipole moment (field-independent basis, Debye):
    X=              2.4287    Y=              0.4215    Z=             -3.1566  Tot=              4.0051
 Quadrupole moment (field-independent basis, Debye-Ang):
   XX=           -206.3059   YY=           -147.5467   ZZ=           -142.1525
   XY=             -8.3391   XZ=             -1.1857   YZ=              2.1703

 Summary of Natural Population Analysis:

                                       Natural Population
                Natural  -----------------------------------------------
    Atom  No    Charge         Core      Valence    Rydberg      Total
 -----------------------------------------------------------------------
      C    1   -0.28809      0.99960     2.28099    0.00750     3.28809
      C    2    0.13493      0.99953     1.85074    0.01481     2.86507
      C    3   -0.30170      0.99960     2.29499    0.00711     3.30170
      C    4   -0.30161      0.99960     2.29486    0.00715     3.30161
      O    5   -0.30653      0.99985     3.29536    0.01131     4.30653
      C    6    0.15310      0.99937     1.83403    0.01350     2.84690
      C    7   -0.12705      0.99947     2.11929    0.00829     3.12705
      C    8    0.13834      0.99932     1.84905    0.01329     2.86166
      C    9    0.12769      0.99931     1.86044    0.01256     2.87231
      C   10   -0.10886      0.99952     2.10078    0.00856     3.10886
      C   11   -0.11756      0.99951     2.10899    0.00905     3.11756
      O   12   -0.29000      0.99986     3.28048    0.00965     4.29000
      C   13    0.04927      0.99947     1.93669    0.01457     2.95073
      C   14   -0.21017      0.99962     2.20154    0.00900     3.21017
      C   15   -0.20471      0.99963     2.19706    0.00802     3.20471
      O   16   -0.29034      0.99986     3.28024    0.01023     4.29034
      C   17   -0.10004      0.99959     2.09150    0.00895     3.10004
      H   18    0.10212      0.00000     0.39677    0.00111     0.39788
      H   19    0.10301      0.00000     0.39586    0.00113     0.39699
      H   20    0.10258      0.00000     0.39633    0.00109     0.39742
      H   21    0.10595      0.00000     0.39286    0.00119     0.39405
      H   22    0.10573      0.00000     0.39303    0.00124     0.39427
      H   23    0.10169      0.00000     0.39715    0.00116     0.39831
      H   24    0.10212      0.00000     0.39664    0.00124     0.39788
      H   25    0.10511      0.00000     0.39347    0.00142     0.39489
      H   26    0.10576      0.00000     0.39304    0.00120     0.39424
      H   27    0.11137      0.00000     0.38705    0.00159     0.38863
      H   28    0.10563      0.00000     0.39330    0.00107     0.39437
      H   29    0.10681      0.00000     0.39188    0.00131     0.39319
      H   30    0.09921      0.00000     0.39900    0.00179     0.40079
      H   31    0.10535      0.00000     0.39358    0.00107     0.39465
      H   32    0.10695      0.00000     0.39198    0.00107     0.39305
      H   33    0.10581      0.00000     0.39301    0.00118     0.39419
      H   34    0.10433      0.00000     0.39456    0.00111     0.39567
      H   35    0.08989      0.00000     0.40876    0.00135     0.41011
      H   36    0.08232      0.00000     0.41657    0.00112     0.41768
      H   37    0.09157      0.00000     0.40698    0.00145     0.40843
 =======================================================================
   * Total *    0.00000     16.99271    46.80886    0.19842    64.00000

 Normal termination of Gaussian 16 at Fri Dec 11 13:04:42 2020.
