 Gaussian 16, Revision A.03,

 -----------------------------------------------------------
 # opt freq B3LYP/6-31G(d) empiricaldispersion=gd3bj scf=xqc
 -----------------------------------------------------------

 ------------------------------
 CID_57118062_JID_2120_neutraal
 ------------------------------
 Symbolic Z-matrix:
 Charge =  0 Multiplicity = 1

 SCF Done:  E(RB3LYP) =  -569.619275169     A.U. after   15 cycles
 SCF Done:  E(RB3LYP) =  -569.629014315     A.U. after   13 cycles
 SCF Done:  E(RB3LYP) =  -569.630681194     A.U. after   11 cycles
 SCF Done:  E(RB3LYP) =  -569.632165692     A.U. after   12 cycles
 SCF Done:  E(RB3LYP) =  -569.632899498     A.U. after   12 cycles
 SCF Done:  E(RB3LYP) =  -569.633172494     A.U. after   12 cycles
 SCF Done:  E(RB3LYP) =  -569.633372016     A.U. after   11 cycles
 SCF Done:  E(RB3LYP) =  -569.633448720     A.U. after   11 cycles
 SCF Done:  E(RB3LYP) =  -569.633518141     A.U. after   10 cycles
 SCF Done:  E(RB3LYP) =  -569.633549886     A.U. after   12 cycles
 SCF Done:  E(RB3LYP) =  -569.633570737     A.U. after    8 cycles
 SCF Done:  E(RB3LYP) =  -569.633571226     A.U. after    8 cycles
 SCF Done:  E(RB3LYP) =  -569.633571393     A.U. after    7 cycles
 SCF Done:  E(RB3LYP) =  -569.633571742     A.U. after    8 cycles
 SCF Done:  E(RB3LYP) =  -569.633571931     A.U. after    8 cycles
 SCF Done:  E(RB3LYP) =  -569.633571988     A.U. after    7 cycles
 Optimization completed.
    -- Stationary point found.
 Normal termination of Gaussian 16 at Wed Dec  9 16:49:36 2020.

 --------------------------------------------------------------------
 #N Geom=AllCheck Guess=TCheck SCRF=Check GenChk RB3LYP/6-31G(d) Freq
 --------------------------------------------------------------------

 Structure from the checkpoint file:  "JID_2120.chk"
 ------------------------------
 CID_57118062_JID_2120_neutraal
 ------------------------------
 Charge =  0 Multiplicity = 1

 SCF Done:  E(RB3LYP) =  -569.633571988     A.U. after    1 cycles

  Exact polarizability: 152.035   5.140 100.619  -4.225   0.832  49.630
 Approx polarizability: 246.425   4.060 174.501  -7.718   1.947  76.436

                      1                      2                      3
                      A                      A                      A
 Frequencies --     39.8145               137.7642               222.0904
 Red. masses --      5.9293                 4.3622                 5.3306
 Frc consts  --      0.0055                 0.0488                 0.1549
 IR Inten    --      0.8267                 1.5562                 3.3361

                      4                      5                      6
                      A                      A                      A
 Frequencies --    262.3526               299.3777               312.2824
 Red. masses --      1.2682                 4.5612                 4.6358
 Frc consts  --      0.0514                 0.2409                 0.2664
 IR Inten    --     10.3990                 2.5280                 5.5245

                      7                      8                      9
                      A                      A                      A
 Frequencies --    357.8053               400.8120               421.2150
 Red. masses --      3.0840                 1.3385                 2.6516
 Frc consts  --      0.2326                 0.1267                 0.2772
 IR Inten    --     20.0607               119.3715                15.4288

                     10                     11                     12
                      A                      A                      A
 Frequencies --    451.6854               501.3101               528.1908
 Red. masses --      2.2491                 4.1957                 5.8935
 Frc consts  --      0.2704                 0.6213                 0.9687
 IR Inten    --     17.0392                14.8752                 0.4348

                     13                     14                     15
                      A                      A                      A
 Frequencies --    533.7902               564.1258               592.3295
 Red. masses --      3.9701                 5.9024                 2.7260
 Frc consts  --      0.6665                 1.1067                 0.5635
 IR Inten    --      2.1833                13.4579                61.0785

                     16                     17                     18
                      A                      A                      A
 Frequencies --    617.6549               637.0005               724.9411
 Red. masses --      3.4095                 3.1270                 8.4260
 Frc consts  --      0.7663                 0.7476                 2.6090
 IR Inten    --     31.4570                32.6139                 7.4874

                     19                     20                     21
                      A                      A                      A
 Frequencies --    754.3928               770.1266               784.5862
 Red. masses --      2.9413                 1.5078                 4.9851
 Frc consts  --      0.9863                 0.5269                 1.8080
 IR Inten    --     15.2727                45.7014                 3.7837

                     22                     23                     24
                      A                      A                      A
 Frequencies --    858.2304               903.7482               913.8899
 Red. masses --      1.4594                 2.2560                 2.2272
 Frc consts  --      0.6333                 1.0856                 1.0960
 IR Inten    --      0.8918                 0.8010                 3.6090

                     25                     26                     27
                      A                      A                      A
 Frequencies --    922.0989               947.7010               974.3654
 Red. masses --      4.3525                 1.3608                 1.2465
 Frc consts  --      2.1804                 0.7201                 0.6972
 IR Inten    --     10.5882                 2.5927                 0.0891

                     28                     29                     30
                      A                      A                      A
 Frequencies --   1032.8826              1062.6511              1084.6572
 Red. masses --      3.2776                 2.0634                 2.8163
 Frc consts  --      2.0602                 1.3728                 1.9522
 IR Inten    --    206.5862                 4.4844               186.8612

                     31                     32                     33
                      A                      A                      A
 Frequencies --   1146.9633              1188.1426              1218.1730
 Red. masses --      1.5890                 1.1942                 3.2871
 Frc consts  --      1.2316                 0.9932                 2.8740
 IR Inten    --     14.1537                 6.7966                13.5035

                     34                     35                     36
                      A                      A                      A
 Frequencies --   1250.0239              1295.9451              1308.8369
 Red. masses --      2.8240                 1.7707                 1.9415
 Frc consts  --      2.5998                 1.7521                 1.9596
 IR Inten    --     17.2222                75.6248                 3.4742

                     37                     38                     39
                      A                      A                      A
 Frequencies --   1356.8432              1358.9818              1375.0137
 Red. masses --      1.5496                 1.6207                 3.7381
 Frc consts  --      1.6808                 1.7635                 4.1640
 IR Inten    --    221.7545                 1.6644                24.2342

                     40                     41                     42
                      A                      A                      A
 Frequencies --   1409.4293              1480.1917              1529.7991
 Red. masses --      1.7582                 1.9515                 3.3684
 Frc consts  --      2.0579                 2.5191                 4.6446
 IR Inten    --     50.4588               132.2306                91.0372

                     43                     44                     45
                      A                      A                      A
 Frequencies --   1538.3186              1633.7984              1667.1070
 Red. masses --      2.2105                 5.1169                 6.6910
 Frc consts  --      3.0820                 8.0473                10.9565
 IR Inten    --     27.2502                25.0142                40.4643

                     46                     47                     48
                      A                      A                      A
 Frequencies --   1688.8242              3161.3910              3177.8901
 Red. masses --      8.6329                 1.0904                 1.0877
 Frc consts  --     14.5070                 6.4208                 6.4719
 IR Inten    --      7.1514                14.6076                 8.6660

                     49                     50                     51
                      A                      A                      A
 Frequencies --   3196.8482              3208.4992              3221.4214
 Red. masses --      1.0892                 1.0915                 1.0966
 Frc consts  --      6.5585                 6.6204                 6.7047
 IR Inten    --      9.8677                16.1810                16.4826

                     52                     53                     54
                      A                      A                      A
 Frequencies --   3578.7576              3750.3992              3757.9616
 Red. masses --      1.0759                 1.0660                 1.0655
 Frc consts  --      8.1188                 8.8345                 8.8659
 IR Inten    --     22.4123                24.5529                38.0897

 - Thermochemistry -
 -------------------
 Temperature   298.150 Kelvin.  Pressure   1.00000 Atm.
 Atom     1 has atomic number  6 and mass  12.00000

 Molecular mass:   164.05858 amu.
 Principal axes and moments of inertia in atomic units:
                           1         2         3
     Eigenvalues --   800.600732627.571283095.25318
           X            0.99997   0.00606  -0.00380
           Y           -0.00604   0.99997   0.00577
           Z            0.00384  -0.00574   0.99998
 This molecule is an asymmetric top.
 Rotational symmetry number  1.
 Warning -- assumption of classical behavior for rotation
           may cause significant error
 Rotational temperatures (Kelvin)      0.10819     0.03296     0.02798
 Rotational constants (GHZ):           2.25423     0.68685     0.58307
 Zero-point vibrational energy     407408.8 (Joules/Mol)
                                   97.37304 (Kcal/Mol)
 Warning -- explicit consideration of  16 degrees of freedom as
           vibrations may cause significant error
 Vibrational temperatures:     57.28   198.21   319.54   377.47   430.74
          (Kelvin)            449.30   514.80   576.68   606.03   649.87
                              721.27   759.95   768.00   811.65   852.23
                              888.67   916.50  1043.03  1085.40  1108.04
                             1128.84  1234.80  1300.29  1314.88  1326.69
                             1363.53  1401.89  1486.09  1528.92  1560.58
                             1650.22  1709.47  1752.68  1798.51  1864.58
                             1883.12  1952.19  1955.27  1978.34  2027.85
                             2129.67  2201.04  2213.30  2350.67  2398.60
                             2429.84  4548.54  4572.28  4599.55  4616.31
                             4634.91  5149.03  5395.99  5406.87

 Zero-point correction=                           0.155174 (Hartree/Particle)
 Thermal correction to Energy=                    0.164728
 Thermal correction to Enthalpy=                  0.165672
 Thermal correction to Gibbs Free Energy=         0.120236
 Sum of electronic and zero-point Energies=           -569.478398
 Sum of electronic and thermal Energies=              -569.468844
 Sum of electronic and thermal Enthalpies=            -569.467900
 Sum of electronic and thermal Free Energies=         -569.513336

                     E (Thermal)             CV                S
                      KCal/Mol        Cal/Mol-Kelvin    Cal/Mol-Kelvin
 Total                  103.368             38.864             95.627
 Electronic               0.000              0.000              0.000
 Translational            0.889              2.981             41.194
 Rotational               0.889              2.981             30.255
 Vibrational            101.591             32.903             24.179
 Vibration     1          0.594              1.981              5.268
 Vibration     2          0.614              1.916              2.835
 Vibration     3          0.648              1.807              1.942
 Vibration     4          0.670              1.742              1.646
 Vibration     5          0.692              1.675              1.420
 Vibration     6          0.701              1.650              1.350
 Vibration     7          0.733              1.559              1.132
 Vibration     8          0.767              1.468              0.960
 Vibration     9          0.784              1.424              0.888
 Vibration    10          0.810              1.357              0.791
 Vibration    11          0.857              1.247              0.655
 Vibration    12          0.883              1.188              0.591
 Vibration    13          0.889              1.175              0.579
 Vibration    14          0.920              1.109              0.516
 Vibration    15          0.950              1.048              0.463
 Vibration    16          0.977              0.995              0.420

 Optimization completed.
    -- Stationary point found.
 Normal termination of Gaussian 16 at Wed Dec  9 16:53:35 2020.

 ----------------------------------------------------------------------
 # B3LYP/6-311++G(d,p) empiricaldispersion=gd3bj scf=xqc pop=npa geom=c
 heck
 ----------------------------------------------------------------------

 --------------------------------------
 CID_57118062_JID_2120_Energie_neutraal
 --------------------------------------
 Structure from the checkpoint file:  "JID_2120.chk"
 Charge =  0 Multiplicity = 1

 SCF Done:  E(RB3LYP) =  -569.808552812     A.U. after   14 cycles
 Normal termination of Gaussian 16 at Wed Dec  9 16:54:48 2020.

 ----------------------------------------------------------------------
 # B3LYP/6-311++G(d,p) empiricaldispersion=gd3bj scf=xqc pop=npa geom=c
 heck
 ----------------------------------------------------------------------

 ------------------------------------
 CID_57118062_JID_2120_Energie_kation
 ------------------------------------
 Structure from the checkpoint file:  "JID_2120.chk"
 Charge =  1 Multiplicity = 2

 SCF Done:  E(UB3LYP) =  -569.511906592     A.U. after   22 cycles
 Normal termination of Gaussian 16 at Wed Dec  9 16:57:21 2020.
 Gaussian 16:  ES64L-G16RevA.03 25-Dec-2016

 ----------------------------------------------------------------------
 # B3LYP/6-311++G(d,p) empiricaldispersion=gd3bj scf=xqc pop=npa geom=c
 heck
 ----------------------------------------------------------------------

 -----------------------------------
 CID_57118062_JID_2120_Energie_anion
 -----------------------------------
 Structure from the checkpoint file:  "JID_2120.chk"
 Charge = -1 Multiplicity = 2

                         Standard orientation:
 ---------------------------------------------------------------------
 Center     Atomic      Atomic             Coordinates (Angstroms)
 Number     Number       Type             X           Y           Z
 ---------------------------------------------------------------------
      1          6           0       -2.910064   -1.014223    0.035751
      2          6           0       -3.172856    0.360784    0.081011
      3          6           0       -2.114404    1.259755    0.023325
      4          6           0       -0.793570    0.804863   -0.069569
      5          6           0       -0.536606   -0.584708   -0.113794
      6          6           0       -1.606016   -1.488838   -0.062801
      7          7           0        0.777275   -1.002351   -0.250812
      8          6           0        1.897133   -0.139300    0.023703
      9          6           0        1.455979    1.305167   -0.124242
     10          7           0        0.248439    1.737545   -0.134212
     11          8           0        2.461736   -0.351814    1.302288
     12          8           0        2.969646   -0.454314   -0.824680
     13          1           0       -3.730385   -1.725032    0.078904
     14          1           0       -4.193945    0.720412    0.157076
     15          1           0       -2.274666    2.332971    0.050452
     16          1           0       -1.407168   -2.557271   -0.099491
     17          1           0        0.977957   -1.987888   -0.124756
     18          1           0        2.277503    2.020639   -0.171465
     19          1           0        1.784417   -0.102758    1.951328
     20          1           0        2.617656   -0.419408   -1.728051
 ---------------------------------------------------------------------

 SCF Done:  E(UB3LYP) =  -569.808878990     A.U. after   31 cycles

 The electronic state is 2-A.
 Alpha  occ. eigenvalues --  -19.00015 -18.99836 -14.19178 -14.13137 -10.16918
 Alpha  occ. eigenvalues --  -10.06661 -10.03627 -10.02397 -10.02171 -10.01784
 Alpha  occ. eigenvalues --  -10.01708 -10.01248  -0.95098  -0.87527  -0.80819
 Alpha  occ. eigenvalues --   -0.74882  -0.69231  -0.59749  -0.59434  -0.52946
 Alpha  occ. eigenvalues --   -0.49392  -0.47359  -0.44659  -0.39743  -0.39232
 Alpha  occ. eigenvalues --   -0.35917  -0.34917  -0.31566  -0.30112  -0.29408
 Alpha  occ. eigenvalues --   -0.28354  -0.26471  -0.24860  -0.24311  -0.21780
 Alpha  occ. eigenvalues --   -0.21235  -0.20818  -0.17955  -0.17794  -0.16508
 Alpha  occ. eigenvalues --   -0.09884  -0.08926  -0.06891   0.05982
 Alpha virt. eigenvalues --    0.08826   0.09599   0.10449   0.11062   0.11878
 Alpha virt. eigenvalues --    0.12496   0.13382   0.13734   0.15211   0.16266
 Alpha virt. eigenvalues --    0.16837   0.17754   0.18121   0.19221   0.19846

  Beta  occ. eigenvalues --  -18.99963 -18.99758 -14.19069 -14.12857 -10.16945
  Beta  occ. eigenvalues --  -10.06607 -10.03554 -10.02377 -10.02260 -10.01422
  Beta  occ. eigenvalues --  -10.01249 -10.01053  -0.94967  -0.87374  -0.80546
  Beta  occ. eigenvalues --   -0.74247  -0.68921  -0.59535  -0.58928  -0.52719
  Beta  occ. eigenvalues --   -0.48881  -0.46992  -0.44505  -0.39594  -0.38866
  Beta  occ. eigenvalues --   -0.35767  -0.34659  -0.31416  -0.29957  -0.29084
  Beta  occ. eigenvalues --   -0.28232  -0.26189  -0.24286  -0.24096  -0.21480
  Beta  occ. eigenvalues --   -0.21045  -0.20092  -0.17573  -0.16524  -0.15844
  Beta  occ. eigenvalues --   -0.08761  -0.08315  -0.05786
  Beta virt. eigenvalues --    0.08803   0.09638   0.10416   0.10733   0.11836
  Beta virt. eigenvalues --    0.12353   0.12789   0.13529   0.14027   0.15157
  Beta virt. eigenvalues --    0.16713   0.17422   0.17984   0.18426   0.19183

 Mulliken charges and spin densities:
               1          2
     1  C   -0.294797   0.223921
     2  C   -0.306749  -0.064603
     3  C   -0.367023   0.198635
     4  C   -0.075456  -0.033987
     5  C    0.260497   0.073385
     6  C   -0.341810   0.003526
     7  N   -0.237696   0.017543
     8  C   -0.056617  -0.203795
     9  C   -0.200117   0.529473
    10  N   -0.069178   0.084699
    11  O   -0.186441   0.014954
    12  O   -0.229309   0.008666
    13  H    0.098888  -0.018644
    14  H    0.097683   0.004988
    15  H    0.127358  -0.011136
    16  H    0.069965   0.000215
    17  H    0.252955   0.001763
    18  H    0.144697  -0.021201
    19  H    0.194751   0.057149
    20  H    0.118401   0.134449
 Sum of Mulliken charges =  -1.00000   1.00000

 Dipole moment (field-independent basis, Debye):
    X=             -1.2167    Y=             -2.9268    Z=              0.3815  Tot=              3.1925
 Quadrupole moment (field-independent basis, Debye-Ang):
   XX=           -108.5937   YY=            -84.1743   ZZ=            -79.0457
   XY=             -0.6485   XZ=             -1.5961   YZ=              1.6985

 Summary of Natural Population Analysis:

                                       Natural Population
                Natural  -----------------------------------------------
    Atom  No    Charge         Core      Valence    Rydberg      Total
 -----------------------------------------------------------------------
      C    1   -0.05386      0.99958     2.04472    0.00956     3.05386
      C    2   -0.15053      0.99958     2.14124    0.00971     3.15053
      C    3   -0.05531      0.99954     2.04689    0.00889     3.05531
      C    4    0.04615      0.99944     1.93873    0.01568     2.95385
      C    5    0.08564      0.99946     1.90202    0.01288     2.91436
      C    6   -0.13433      0.99954     2.12651    0.00828     3.13433
      N    7   -0.31128      0.99964     2.80109    0.01056     3.81128
      C    8    0.32407      0.99959     1.65241    0.02393     2.67593
      C    9    0.11568      0.99958     1.86568    0.01906     2.88432
      N   10   -0.20964      0.99968     2.69711    0.01285     3.70964
      O   11   -0.36732      0.99988     3.36110    0.00634     4.36732
      O   12   -0.36853      0.99988     3.36151    0.00715     4.36853
      H   13    0.08529      0.00000     0.41370    0.00102     0.41471
      H   14    0.08972      0.00000     0.40921    0.00107     0.41028
      H   15    0.09491      0.00000     0.40385    0.00123     0.40509
      H   16    0.08749      0.00000     0.41090    0.00161     0.41251
      H   17    0.18265      0.00000     0.31529    0.00206     0.31735
      H   18    0.07582      0.00000     0.42311    0.00107     0.42418
      H   19    0.23106      0.00000     0.26644    0.00249     0.26894
      H   20    0.23232      0.00000     0.26402    0.00366     0.26768
 =======================================================================
   * Total *    0.00000     11.99539    30.84551    0.15909    43.00000

 Normal termination of Gaussian 16 at Wed Dec  9 17:01:10 2020.
