 Gaussian 16, Revision A.03,

 -----------------------------------------------------------
 # opt freq B3LYP/6-31G(d) empiricaldispersion=gd3bj scf=xqc
 -----------------------------------------------------------

 -------------------------------
 CID_103246407_JID_4020_neutraal
 -------------------------------
 Symbolic Z-matrix:
 Charge =  0 Multiplicity = 1

 SCF Done:  E(RB3LYP) =  -651.897744743     A.U. after   15 cycles
 SCF Done:  E(RB3LYP) =  -651.900596393     A.U. after   12 cycles
 SCF Done:  E(RB3LYP) =  -651.900758620     A.U. after   13 cycles
 SCF Done:  E(RB3LYP) =  -651.900758123     A.U. after   12 cycles
 SCF Done:  E(RB3LYP) =  -651.901032352     A.U. after   11 cycles
 SCF Done:  E(RB3LYP) =  -651.901068446     A.U. after   10 cycles
 SCF Done:  E(RB3LYP) =  -651.901118894     A.U. after   12 cycles
 SCF Done:  E(RB3LYP) =  -651.901167494     A.U. after   12 cycles
 SCF Done:  E(RB3LYP) =  -651.901157489     A.U. after   11 cycles
 SCF Done:  E(RB3LYP) =  -651.901244001     A.U. after   11 cycles
 SCF Done:  E(RB3LYP) =  -651.902871739     A.U. after   10 cycles
 SCF Done:  E(RB3LYP) =  -651.902874978     A.U. after    9 cycles
 SCF Done:  E(RB3LYP) =  -651.902875878     A.U. after    8 cycles
 SCF Done:  E(RB3LYP) =  -651.902875977     A.U. after    7 cycles
 SCF Done:  E(RB3LYP) =  -651.902876014     A.U. after    7 cycles
 Optimization completed.
    -- Stationary point found.
 Normal termination of Gaussian 16 at Thu Dec 10 09:22:55 2020.

 --------------------------------------------------------------------
 #N Geom=AllCheck Guess=TCheck SCRF=Check GenChk RB3LYP/6-31G(d) Freq
 --------------------------------------------------------------------

 Structure from the checkpoint file:  "JID_4020.chk"
 -------------------------------
 CID_103246407_JID_4020_neutraal
 -------------------------------
 Charge =  0 Multiplicity = 1

 SCF Done:  E(RB3LYP) =  -651.902876015     A.U. after    1 cycles

  Exact polarizability: 186.886   7.552 115.759 -14.793   0.392  90.293
 Approx polarizability: 232.880  22.205 174.439 -26.163  -1.219 141.660

                      1                      2                      3
                      A                      A                      A
 Frequencies --     22.0508                33.4164                43.9687
 Red. masses --      4.8394                 4.3279                 6.2726
 Frc consts  --      0.0014                 0.0028                 0.0071
 IR Inten    --      0.4423                 0.5036                 0.8400

                      4                      5                      6
                      A                      A                      A
 Frequencies --     82.7095               133.7640               148.0259
 Red. masses --      4.1942                 4.0559                 3.8207
 Frc consts  --      0.0169                 0.0428                 0.0493
 IR Inten    --      0.2495                 0.0670                 3.7145

                      7                      8                      9
                      A                      A                      A
 Frequencies --    191.2336               220.7368               230.3000
 Red. masses --      2.5056                 3.1091                 2.0290
 Frc consts  --      0.0540                 0.0893                 0.0634
 IR Inten    --      0.9457                 1.3455                 6.2181

                     10                     11                     12
                      A                      A                      A
 Frequencies --    257.6668               311.7953               321.6600
 Red. masses --      1.2105                 2.7265                 2.0276
 Frc consts  --      0.0473                 0.1562                 0.1236
 IR Inten    --      0.3772                 0.7102                 1.2054

                     13                     14                     15
                      A                      A                      A
 Frequencies --    346.8842               367.6742               392.3611
 Red. masses --      3.6032                 2.1416                 2.0607
 Frc consts  --      0.2555                 0.1706                 0.1869
 IR Inten    --      2.6060                 0.9672                 4.7489

                     16                     17                     18
                      A                      A                      A
 Frequencies --    410.9571               462.4111               488.9650
 Red. masses --      2.5178                 3.0752                 2.8258
 Frc consts  --      0.2505                 0.3874                 0.3981
 IR Inten    --      0.3970                 4.8061                 0.2769

                     19                     20                     21
                      A                      A                      A
 Frequencies --    522.3040               549.4817               564.6971
 Red. masses --      3.2983                 2.1826                 1.1366
 Frc consts  --      0.5301                 0.3883                 0.2135
 IR Inten    --     13.3609                77.0793                92.5542

                     22                     23                     24
                      A                      A                      A
 Frequencies --    588.0505               630.9312               648.0241
 Red. masses --      1.9384                 3.1412                 2.0886
 Frc consts  --      0.3949                 0.7367                 0.5168
 IR Inten    --     37.3054                40.9623                 3.2731

                     25                     26                     27
                      A                      A                      A
 Frequencies --    735.0551               782.4328               814.9027
 Red. masses --      4.1084                 3.0528                 2.7297
 Frc consts  --      1.3079                 1.1011                 1.0680
 IR Inten    --     13.2311                12.0736                 5.0985

                     28                     29                     30
                      A                      A                      A
 Frequencies --    829.8492               835.3829               911.5932
 Red. masses --      1.5375                 1.9725                 2.4651
 Frc consts  --      0.6238                 0.8110                 1.2069
 IR Inten    --      0.7958                52.8087                 2.5221

                     31                     32                     33
                      A                      A                      A
 Frequencies --    922.4994               951.9758               966.6885
 Red. masses --      3.9836                 1.9209                 2.1189
 Frc consts  --      1.9974                 1.0257                 1.1667
 IR Inten    --     25.8620                 4.0561                 7.4795

                     34                     35                     36
                      A                      A                      A
 Frequencies --   1011.9870              1016.5454              1037.4492
 Red. masses --      1.2110                 2.1792                 1.4648
 Frc consts  --      0.7307                 1.3268                 0.9289
 IR Inten    --     40.9627                 8.9953                 0.4693

                     37                     38                     39
                      A                      A                      A
 Frequencies --   1071.3928              1073.2498              1088.0020
 Red. masses --      1.8706                 2.1896                 2.1724
 Frc consts  --      1.2651                 1.4860                 1.5152
 IR Inten    --     16.4179                 3.3078                22.8796

                     40                     41                     42
                      A                      A                      A
 Frequencies --   1134.1213              1143.3852              1178.9435
 Red. masses --      1.7150                 1.6869                 1.7416
 Frc consts  --      1.2997                 1.2994                 1.4262
 IR Inten    --     33.4184                33.7785                43.8000

                     43                     44                     45
                      A                      A                      A
 Frequencies --   1183.7574              1184.5178              1205.4895
 Red. masses --      1.7907                 2.0277                 1.7864
 Frc consts  --      1.4784                 1.6762                 1.5295
 IR Inten    --     10.6722                23.1945               332.4080

                     46                     47                     48
                      A                      A                      A
 Frequencies --   1224.2370              1246.9374              1295.6867
 Red. masses --      1.1451                 1.3505                 1.5813
 Frc consts  --      1.0111                 1.2372                 1.5641
 IR Inten    --     14.5077                20.8285               169.6031

                     49                     50                     51
                      A                      A                      A
 Frequencies --   1300.1444              1319.3726              1336.1810
 Red. masses --      1.3542                 2.3443                 1.4372
 Frc consts  --      1.3487                 2.4044                 1.5118
 IR Inten    --     43.1859                30.6367                12.2161

                     52                     53                     54
                      A                      A                      A
 Frequencies --   1343.2493              1347.9977              1363.1497
 Red. masses --      1.3417                 1.4470                 1.5661
 Frc consts  --      1.4263                 1.5492                 1.7146
 IR Inten    --     13.5830                 1.6668                49.1943

                     55                     56                     57
                      A                      A                      A
 Frequencies --   1381.6584              1388.9098              1395.3247
 Red. masses --      1.3254                 1.7003                 1.8541
 Frc consts  --      1.4908                 1.9325                 2.1268
 IR Inten    --      1.5140                14.0720               117.8366

                     58                     59                     60
                      A                      A                      A
 Frequencies --   1409.2012              1417.5318              1428.6672
 Red. masses --      1.5037                 1.4364                 1.3532
 Frc consts  --      1.7594                 1.7006                 1.6274
 IR Inten    --      9.0898                11.6531                15.7979

                     61                     62                     63
                      A                      A                      A
 Frequencies --   1443.4903              1487.2760              1504.4357
 Red. masses --      1.4557                 1.2095                 1.1103
 Frc consts  --      1.7872                 1.5764                 1.4807
 IR Inten    --     13.4796                 0.1549                 2.7694

                     64                     65                     66
                      A                      A                      A
 Frequencies --   1514.1669              1517.2836              1519.4323
 Red. masses --      1.1062                 1.0655                 1.3718
 Frc consts  --      1.4942                 1.4452                 1.8660
 IR Inten    --     18.8130                 6.1694                 7.7367

                     67                     68                     69
                      A                      A                      A
 Frequencies --   1520.1134              1528.1458              1538.3622
 Red. masses --      1.2175                 1.0815                 1.0577
 Frc consts  --      1.6576                 1.4879                 1.4748
 IR Inten    --     10.9456                 2.4594                 1.4737

                     70                     71                     72
                      A                      A                      A
 Frequencies --   1546.2903              1717.1322              1812.0193
 Red. masses --      1.1062                 4.3747                 8.5136
 Frc consts  --      1.5583                 7.5999                16.4698
 IR Inten    --      7.8392               503.7908               608.0944

                     73                     74                     75
                      A                      A                      A
 Frequencies --   2885.6399              2902.2829              2934.6258
 Red. masses --      1.0738                 1.0727                 1.0626
 Frc consts  --      5.2681                 5.3239                 5.3918
 IR Inten    --     51.0233                79.8424               124.8226

                     76                     77                     78
                      A                      A                      A
 Frequencies --   3032.5840              3047.2497              3056.6062
 Red. masses --      1.0804                 1.0642                 1.0647
 Frc consts  --      5.8539                 5.8225                 5.8607
 IR Inten    --     12.6834                27.9693                50.3069

                     79                     80                     81
                      A                      A                      A
 Frequencies --   3060.1906              3074.1037              3075.5451
 Red. masses --      1.0652                 1.0847                 1.0787
 Frc consts  --      5.8776                 6.0396                 6.0118
 IR Inten    --     23.6483                57.2120                20.0707

                     82                     83                     84
                      A                      A                      A
 Frequencies --   3080.1597              3090.3543              3095.1763
 Red. masses --      1.0769                 1.1027                 1.1032
 Frc consts  --      6.0197                 6.2048                 6.2270
 IR Inten    --     56.6379                23.6363                48.4099

                     85                     86                     87
                      A                      A                      A
 Frequencies --   3117.1256              3122.3617              3205.4920
 Red. masses --      1.0997                 1.1042                 1.0934
 Frc consts  --      6.2958                 6.3423                 6.6197
 IR Inten    --     29.1064                31.4311                 0.6852

                     88                     89                     90
                      A                      A                      A
 Frequencies --   3211.9746              3599.2835              3712.2804
 Red. masses --      1.0869                 1.0758                 1.0643
 Frc consts  --      6.6064                 8.2111                 8.6415
 IR Inten    --      6.9025                19.6339                62.8934

 - Thermochemistry -
 -------------------
 Temperature   298.150 Kelvin.  Pressure   1.00000 Atm.
 Atom     1 has atomic number  6 and mass  12.00000

 Molecular mass:   198.13683 amu.
 Principal axes and moments of inertia in atomic units:
                           1         2         3
     Eigenvalues --   868.940568048.474918367.32053
           X            0.99999  -0.00461  -0.00200
           Y            0.00464   0.99994   0.01027
           Z            0.00195  -0.01028   0.99995
 This molecule is an asymmetric top.
 Rotational symmetry number  1.
 Warning -- assumption of classical behavior for rotation
           may cause significant error
 Rotational temperatures (Kelvin)      0.09968     0.01076     0.01035
 Rotational constants (GHZ):           2.07694     0.22423     0.21569
 Zero-point vibrational energy     742873.3 (Joules/Mol)
                                  177.55099 (Kcal/Mol)
 Warning -- explicit consideration of  22 degrees of freedom as
           vibrations may cause significant error
 Vibrational temperatures:     31.73    48.08    63.26   119.00   192.46
          (Kelvin)            212.98   275.14   317.59   331.35   370.73
                              448.60   462.80   499.09   529.00   564.52
                              591.28   665.31   703.51   751.48   790.58
                              812.47   846.07   907.77   932.36  1057.58
                             1125.75  1172.46  1193.97  1201.93  1311.58
                             1327.27  1369.68  1390.85  1456.02  1462.58
                             1492.66  1541.50  1544.17  1565.39  1631.75
                             1645.08  1696.24  1703.16  1704.26  1734.43
                             1761.40  1794.06  1864.20  1870.62  1898.28
                             1922.47  1932.64  1939.47  1961.27  1987.90
                             1998.33  2007.56  2027.53  2039.51  2055.53
                             2076.86  2139.86  2164.55  2178.55  2183.03
                             2186.12  2187.10  2198.66  2213.36  2224.77
                             2470.57  2607.09  4151.79  4175.74  4222.27
                             4363.21  4384.31  4397.77  4402.93  4422.95
                             4425.02  4431.66  4446.33  4453.27  4484.85
                             4492.38  4611.99  4621.32  5178.57  5341.14

 Zero-point correction=                           0.282946 (Hartree/Particle)
 Thermal correction to Energy=                    0.297277
 Thermal correction to Enthalpy=                  0.298222
 Thermal correction to Gibbs Free Energy=         0.240069
 Sum of electronic and zero-point Energies=           -651.619931
 Sum of electronic and thermal Energies=              -651.605599
 Sum of electronic and thermal Enthalpies=            -651.604654
 Sum of electronic and thermal Free Energies=         -651.662807

                     E (Thermal)             CV                S
                      KCal/Mol        Cal/Mol-Kelvin    Cal/Mol-Kelvin
 Total                  186.544             54.349            122.392
 Electronic               0.000              0.000              0.000
 Translational            0.889              2.981             41.756
 Rotational               0.889              2.981             32.437
 Vibrational            184.767             48.388             48.199
 Vibration     1          0.593              1.985              6.440
 Vibration     2          0.594              1.983              5.616
 Vibration     3          0.595              1.980              5.072
 Vibration     4          0.600              1.961              3.826
 Vibration     5          0.613              1.920              2.891
 Vibration     6          0.617              1.905              2.697
 Vibration     7          0.634              1.852              2.216
 Vibration     8          0.647              1.810              1.953
 Vibration     9          0.652              1.795              1.877
 Vibration    10          0.667              1.750              1.678
 Vibration    11          0.700              1.651              1.353
 Vibration    12          0.707              1.632              1.302
 Vibration    13          0.725              1.582              1.180
 Vibration    14          0.740              1.539              1.089
 Vibration    15          0.760              1.487              0.991
 Vibration    16          0.775              1.446              0.923
 Vibration    17          0.820              1.333              0.759
 Vibration    18          0.845              1.275              0.686
 Vibration    19          0.877              1.201              0.605
 Vibration    20          0.905              1.141              0.545
 Vibration    21          0.921              1.108              0.515
 Vibration    22          0.945              1.057              0.471

 Optimization completed.
    -- Stationary point found.
 Normal termination of Gaussian 16 at Thu Dec 10 09:30:33 2020.

 ----------------------------------------------------------------------
 # B3LYP/6-311++G(d,p) empiricaldispersion=gd3bj scf=xqc pop=npa geom=c
 heck
 ----------------------------------------------------------------------

 ---------------------------------------
 CID_103246407_JID_4020_Energie_neutraal
 ---------------------------------------
 Structure from the checkpoint file:  "JID_4020.chk"
 Charge =  0 Multiplicity = 1

 SCF Done:  E(RB3LYP) =  -652.101940063     A.U. after   14 cycles
 Normal termination of Gaussian 16 at Thu Dec 10 09:33:40 2020.

 ----------------------------------------------------------------------
 # B3LYP/6-311++G(d,p) empiricaldispersion=gd3bj scf=xqc pop=npa geom=c
 heck
 ----------------------------------------------------------------------

 -------------------------------------
 CID_103246407_JID_4020_Energie_kation
 -------------------------------------
 Structure from the checkpoint file:  "JID_4020.chk"
 Charge =  1 Multiplicity = 2

 SCF Done:  E(UB3LYP) =  -651.817996747     A.U. after   22 cycles
 Normal termination of Gaussian 16 at Thu Dec 10 09:40:55 2020.
 Gaussian 16:  ES64L-G16RevA.03 25-Dec-2016

 ----------------------------------------------------------------------
 # B3LYP/6-311++G(d,p) empiricaldispersion=gd3bj scf=xqc pop=npa geom=c
 heck
 ----------------------------------------------------------------------

 ------------------------------------
 CID_103246407_JID_4020_Energie_anion
 ------------------------------------
 Structure from the checkpoint file:  "JID_4020.chk"
 Charge = -1 Multiplicity = 2

                         Standard orientation:
 ---------------------------------------------------------------------
 Center     Atomic      Atomic             Coordinates (Angstroms)
 Number     Number       Type             X           Y           Z
 ---------------------------------------------------------------------
      1          6           0        4.938915   -0.785556   -0.182998
      2          7           0        3.699993   -0.274675    0.378049
      3          6           0        3.343950    1.017490   -0.201768
      4          6           0        2.103264    1.602873    0.479123
      5          6           0        0.903808    0.640245    0.435536
      6          6           0        1.348964   -0.740209    0.945845
      7          6           0        2.611980   -1.238433    0.240483
      8          6           0        0.278097    0.589205   -0.973386
      9          7           0       -0.899909   -0.259984   -1.077173
     10          6           0       -2.103683    0.104391   -0.560294
     11          6           0       -3.161166   -0.714366   -0.332957
     12          6           0       -4.437528   -0.234674    0.163066
     13          8           0       -5.415094   -0.928185    0.388419
     14          8           0       -4.472296    1.122016    0.379926
     15          1           0        4.875909   -0.976545   -1.273077
     16          1           0        5.746494   -0.065777   -0.011911
     17          1           0        5.208146   -1.725556    0.310418
     18          1           0        4.191807    1.698765   -0.066069
     19          1           0        3.180923    0.934647   -1.297070
     20          1           0        1.846267    2.561873    0.010792
     21          1           0        2.353033    1.809233    1.526299
     22          1           0        0.122969    1.020531    1.108108
     23          1           0        0.541856   -1.473899    0.831732
     24          1           0        1.562714   -0.666579    2.018280
     25          1           0        2.399010   -1.453456   -0.829214
     26          1           0        2.934084   -2.185777    0.687777
     27          1           0       -0.012268    1.603508   -1.273194
     28          1           0        1.001410    0.239614   -1.715383
     29          1           0       -0.737906   -1.251240   -1.198999
     30          1           0       -2.197761    1.166993   -0.351642
     31          1           0       -3.105787   -1.782639   -0.516450
     32          1           0       -5.371978    1.292487    0.710805
 ---------------------------------------------------------------------

 SCF Done:  E(UB3LYP) =  -652.092376464     A.U. after   33 cycles
 SCF Done:  E(UB3LYP) =  -652.092376464     a.u. after    1 cycles

 The electronic state is 2-A.
 Alpha  occ. eigenvalues --  -19.06708 -19.00146 -14.24901 -14.20636 -10.19564
 Alpha  occ. eigenvalues --  -10.12873 -10.11573 -10.09437 -10.09197 -10.08593
 Alpha  occ. eigenvalues --  -10.08459 -10.07498 -10.07135 -10.06597  -1.00188
 Alpha  occ. eigenvalues --   -0.90930  -0.85817  -0.83243  -0.72255  -0.68280
 Alpha  occ. eigenvalues --   -0.65986  -0.61977  -0.58238  -0.54545  -0.53308
 Alpha  occ. eigenvalues --   -0.50918  -0.50180  -0.45008  -0.43158  -0.40582
 Alpha  occ. eigenvalues --   -0.40123  -0.37661  -0.36983  -0.36717  -0.35788
 Alpha  occ. eigenvalues --   -0.35556  -0.34565  -0.33401  -0.32112  -0.30418
 Alpha  occ. eigenvalues --   -0.29952  -0.29491  -0.29350  -0.28301  -0.26681
 Alpha  occ. eigenvalues --   -0.26512  -0.25511  -0.22954  -0.22307  -0.22296
 Alpha  occ. eigenvalues --   -0.21996  -0.18033  -0.12702  -0.12184   0.04162
 Alpha virt. eigenvalues --    0.05923   0.06421   0.06631   0.07442   0.07653
 Alpha virt. eigenvalues --    0.08611   0.09801   0.10017   0.10276   0.10579
 Alpha virt. eigenvalues --    0.11191   0.12377   0.12533   0.13190   0.13496

  Beta  occ. eigenvalues --  -19.06702 -19.00108 -14.24862 -14.20619 -10.19519
  Beta  occ. eigenvalues --  -10.12793 -10.11552 -10.09413 -10.09163 -10.08559
  Beta  occ. eigenvalues --  -10.08451 -10.07486 -10.07124 -10.06600  -1.00146
  Beta  occ. eigenvalues --   -0.90877  -0.85718  -0.83209  -0.72209  -0.68207
  Beta  occ. eigenvalues --   -0.65945  -0.61923  -0.58163  -0.54426  -0.53243
  Beta  occ. eigenvalues --   -0.50837  -0.50137  -0.44947  -0.43079  -0.40522
  Beta  occ. eigenvalues --   -0.40057  -0.37622  -0.36929  -0.36673  -0.35735
  Beta  occ. eigenvalues --   -0.35502  -0.34405  -0.33339  -0.32073  -0.30381
  Beta  occ. eigenvalues --   -0.29906  -0.29444  -0.29298  -0.28253  -0.26556
  Beta  occ. eigenvalues --   -0.26461  -0.25469  -0.22850  -0.22258  -0.22160
  Beta  occ. eigenvalues --   -0.21955  -0.17995  -0.12571  -0.12075
  Beta virt. eigenvalues --    0.06327   0.06557   0.06915   0.07387   0.07987
  Beta virt. eigenvalues --    0.08148   0.09184   0.10241   0.10443   0.10613
  Beta virt. eigenvalues --    0.10820   0.11525   0.12635   0.12842   0.13444

 Mulliken charges and spin densities:
               1          2
     1  C    0.587233  -0.831261
     2  N   -0.184934   0.296471
     3  C    0.357650  -0.691864
     4  C   -0.406684  -0.182408
     5  C   -0.479727   1.291693
     6  C   -0.384629  -0.320216
     7  C    0.668488  -0.994840
     8  C    1.095782  -1.965936
     9  N   -0.115641   0.213222
    10  C    0.068316  -0.635274
    11  C   -0.004220   0.359299
    12  C    0.087024  -0.260384
    13  O   -0.375101   0.016780
    14  O   -0.258064   0.009604
    15  H   -0.142635   0.257735
    16  H   -0.302586   0.430350
    17  H   -0.268474   0.392017
    18  H   -0.323153   0.513967
    19  H    0.044992   0.060777
    20  H   -0.185056   0.327125
    21  H    0.032291   0.127516
    22  H   -0.017377   0.196012
    23  H    0.059215   0.092543
    24  H   -0.001818   0.151979
    25  H   -0.294125   0.424838
    26  H   -0.241584   0.424431
    27  H    0.149664   0.033015
    28  H   -0.321614   0.531482
    29  H   -0.115567   0.381510
    30  H    0.102071   0.062230
    31  H   -0.074439   0.259232
    32  H    0.244699   0.028355
 Sum of Mulliken charges =  -1.00000   1.00000

 Dipole moment (field-independent basis, Debye):
    X=             -3.7279    Y=              3.7074    Z=              1.5278  Tot=              5.4750
 Quadrupole moment (field-independent basis, Debye-Ang):
   XX=           -197.9320   YY=           -124.2406   ZZ=           -118.1415
   XY=            -10.2589   XZ=              1.9039   YZ=             -1.2669

 Summary of Natural Population Analysis:

                                       Natural Population
                Natural  -----------------------------------------------
    Atom  No    Charge         Core      Valence    Rydberg      Total
 -----------------------------------------------------------------------
      C    1   -0.17308      0.99965     2.16614    0.00729     3.17308
      N    2   -0.27947      0.99972     2.76688    0.01288     3.77947
      C    3   -0.08521      0.99961     2.07359    0.01201     3.08521
      C    4   -0.19315      0.99961     2.18399    0.00955     3.19315
      C    5   -0.11318      0.99958     2.10470    0.00891     3.11318
      C    6   -0.19473      0.99960     2.18552    0.00961     3.19473
      C    7   -0.08728      0.99961     2.07467    0.01300     3.08728
      C    8   -0.08660      0.99958     2.07528    0.01173     3.08660
      N    9   -0.29119      0.99969     2.78040    0.01110     3.79119
      C   10    0.07230      0.99954     1.91696    0.01120     2.92770
      C   11   -0.22527      0.99950     2.21517    0.01060     3.22527
      C   12    0.38282      0.99967     1.59289    0.02462     2.61718
      O   13   -0.32495      0.99987     3.31882    0.00626     4.32495
      O   14   -0.36215      0.99988     3.35586    0.00641     4.36215
      H   15    0.08091      0.00000     0.41717    0.00192     0.41909
      H   16    0.09515      0.00000     0.40328    0.00157     0.40485
      H   17    0.09544      0.00000     0.40305    0.00151     0.40456
      H   18    0.09931      0.00000     0.39908    0.00161     0.40069
      H   19    0.07845      0.00000     0.41967    0.00188     0.42155
      H   20    0.09870      0.00000     0.40034    0.00096     0.40130
      H   21    0.10166      0.00000     0.39691    0.00143     0.39834
      H   22    0.09872      0.00000     0.39958    0.00170     0.40128
      H   23    0.10087      0.00000     0.39796    0.00118     0.39913
      H   24    0.10127      0.00000     0.39732    0.00141     0.39873
      H   25    0.07947      0.00000     0.41775    0.00278     0.42053
      H   26    0.09987      0.00000     0.39854    0.00159     0.40013
      H   27    0.09511      0.00000     0.40364    0.00125     0.40489
      H   28    0.10378      0.00000     0.39443    0.00179     0.39622
      H   29    0.19174      0.00000     0.30454    0.00373     0.30826
      H   30    0.09897      0.00000     0.39939    0.00164     0.40103
      H   31    0.10604      0.00000     0.39301    0.00096     0.39396
      H   32    0.23573      0.00000     0.26072    0.00355     0.26427
 =======================================================================
   * Total *   -0.00000     13.99513    39.81724    0.18763    54.00000

 Normal termination of Gaussian 16 at Thu Dec 10 09:51:02 2020.
