 Gaussian 16, Revision A.03,

 -----------------------------------------------------------
 # opt freq B3LYP/6-31G(d) empiricaldispersion=gd3bj scf=xqc
 -----------------------------------------------------------

 -------------------------------
 CID_131355562_JID_4082_neutraal
 -------------------------------
 Symbolic Z-matrix:
 Charge =  0 Multiplicity = 1

 SCF Done:  E(RB3LYP) =  -940.156876259     A.U. after   13 cycles
 SCF Done:  E(RB3LYP) =  -940.160208628     A.U. after   12 cycles
 SCF Done:  E(RB3LYP) =  -940.157370344     A.U. after   11 cycles
 SCF Done:  E(RB3LYP) =  -940.161503994     A.U. after   11 cycles
 SCF Done:  E(RB3LYP) =  -940.162082215     A.U. after   11 cycles
 SCF Done:  E(RB3LYP) =  -940.163100563     A.U. after   10 cycles
 SCF Done:  E(RB3LYP) =  -940.163163678     A.U. after   10 cycles
 SCF Done:  E(RB3LYP) =  -940.163229583     A.U. after    9 cycles
 SCF Done:  E(RB3LYP) =  -940.163243374     A.U. after    8 cycles
 SCF Done:  E(RB3LYP) =  -940.163244074     A.U. after    7 cycles
 SCF Done:  E(RB3LYP) =  -940.163244126     A.U. after    6 cycles
 Optimization completed.
    -- Stationary point found.
 Normal termination of Gaussian 16 at Thu Dec 10 09:18:10 2020.

 --------------------------------------------------------------------
 #N Geom=AllCheck Guess=TCheck SCRF=Check GenChk RB3LYP/6-31G(d) Freq
 --------------------------------------------------------------------

 Structure from the checkpoint file:  "JID_4082.chk"
 -------------------------------
 CID_131355562_JID_4082_neutraal
 -------------------------------
 Charge =  0 Multiplicity = 1

 SCF Done:  E(RB3LYP) =  -940.163244126     A.U. after    1 cycles

  Exact polarizability: 147.418   0.313 141.031   0.932   0.017 130.066
 Approx polarizability: 195.499  -0.703 208.795   3.520  -1.186 203.061

                      1                      2                      3
                      A                      A                      A
 Frequencies --     56.1705                90.0692               136.4583
 Red. masses --      4.2662                 3.2706                 3.1104
 Frc consts  --      0.0079                 0.0156                 0.0341
 IR Inten    --      0.5257                 0.1265                 1.4828

                      4                      5                      6
                      A                      A                      A
 Frequencies --    147.9202               200.6147               223.2102
 Red. masses --      3.6437                 2.4804                 3.3555
 Frc consts  --      0.0470                 0.0588                 0.0985
 IR Inten    --      0.2867                 0.5135                 2.9212

                      7                      8                      9
                      A                      A                      A
 Frequencies --    249.0646               257.7786               263.7704
 Red. masses --      1.7415                 1.1987                 1.5367
 Frc consts  --      0.0636                 0.0469                 0.0630
 IR Inten    --     12.0340                 2.5672                15.5516

                     10                     11                     12
                      A                      A                      A
 Frequencies --    288.8657               317.3282               336.7954
 Red. masses --      1.8089                 2.3050                 2.4265
 Frc consts  --      0.0889                 0.1368                 0.1622
 IR Inten    --      7.1267                 5.2013                 6.8098

                     13                     14                     15
                      A                      A                      A
 Frequencies --    343.9050               363.5517               375.9051
 Red. masses --      2.3145                 2.8350                 3.0839
 Frc consts  --      0.1613                 0.2208                 0.2568
 IR Inten    --      3.4431                 0.4901                 0.7364

                     16                     17                     18
                      A                      A                      A
 Frequencies --    377.2453               407.5247               444.9932
 Red. masses --      3.2294                 2.0041                 2.0484
 Frc consts  --      0.2708                 0.1961                 0.2390
 IR Inten    --      6.1360                 1.3937                 0.1685

                     19                     20                     21
                      A                      A                      A
 Frequencies --    460.7361               497.6452               520.8480
 Red. masses --      2.4257                 2.8797                 2.6606
 Frc consts  --      0.3034                 0.4202                 0.4253
 IR Inten    --      2.9014                 3.2801                 0.7281

                     22                     23                     24
                      A                      A                      A
 Frequencies --    559.9551               617.3057               674.7760
 Red. masses --      3.3954                 2.4195                 3.8771
 Frc consts  --      0.6273                 0.5432                 1.0401
 IR Inten    --      0.4321                 0.8639                 2.8523

                     25                     26                     27
                      A                      A                      A
 Frequencies --    733.4373               760.1150               786.6452
 Red. masses --      2.7874                 4.4095                 2.9031
 Frc consts  --      0.8834                 1.5011                 1.0584
 IR Inten    --      4.6725                20.4850                 3.3103

                     28                     29                     30
                      A                      A                      A
 Frequencies --    813.6784               821.0037               851.9937
 Red. masses --      1.6157                 1.9349                 1.5745
 Frc consts  --      0.6303                 0.7684                 0.6734
 IR Inten    --      1.2368                12.1098                 5.1154

                     31                     32                     33
                      A                      A                      A
 Frequencies --    879.9361               906.8905               918.7662
 Red. masses --      2.1391                 2.2332                 2.3774
 Frc consts  --      0.9759                 1.0822                 1.1824
 IR Inten    --      4.2433                29.0791                53.9682

                     34                     35                     36
                      A                      A                      A
 Frequencies --    926.4777               960.3506               976.2115
 Red. masses --      1.8091                 2.1151                 1.8521
 Frc consts  --      0.9149                 1.1493                 1.0399
 IR Inten    --     58.1928                 8.6342                12.9269

                     37                     38                     39
                      A                      A                      A
 Frequencies --   1018.1640              1037.5736              1040.8973
 Red. masses --      2.3506                 2.6672                 1.4923
 Frc consts  --      1.4357                 1.6918                 0.9526
 IR Inten    --      8.5987                 3.8806                 1.5351

                     40                     41                     42
                      A                      A                      A
 Frequencies --   1068.4493              1076.1850              1081.8619
 Red. masses --      1.9007                 1.7881                 1.8574
 Frc consts  --      1.2784                 1.2202                 1.2809
 IR Inten    --     14.0702                12.6959                 0.7572

                     43                     44                     45
                      A                      A                      A
 Frequencies --   1101.1057              1115.6540              1131.5434
 Red. masses --      1.8294                 1.9592                 1.7880
 Frc consts  --      1.3068                 1.4368                 1.3488
 IR Inten    --      1.1435                 6.7486                 1.1893

                     46                     47                     48
                      A                      A                      A
 Frequencies --   1153.5002              1165.3813              1184.8146
 Red. masses --      1.8472                 1.3352                 2.2164
 Frc consts  --      1.4481                 1.0684                 1.8332
 IR Inten    --      1.2486                13.9779                18.3009

                     49                     50                     51
                      A                      A                      A
 Frequencies --   1187.9044              1190.8471              1228.2723
 Red. masses --      1.4264                 1.6627                 1.1317
 Frc consts  --      1.1859                 1.3892                 1.0059
 IR Inten    --      6.3874                21.0525                 3.0908

                     52                     53                     54
                      A                      A                      A
 Frequencies --   1231.0000              1254.2362              1286.6755
 Red. masses --      1.1726                 1.5317                 1.3579
 Frc consts  --      1.0469                 1.4196                 1.3245
 IR Inten    --      2.6269                 3.3911                 3.7594

                     55                     56                     57
                      A                      A                      A
 Frequencies --   1308.3880              1320.3396              1327.7427
 Red. masses --      1.2925                 1.5527                 1.9141
 Frc consts  --      1.3037                 1.5948                 1.9881
 IR Inten    --      1.3064                 9.8674                20.6489

                     58                     59                     60
                      A                      A                      A
 Frequencies --   1342.2996              1347.9768              1366.3669
 Red. masses --      1.2614                 1.3342                 1.3476
 Frc consts  --      1.3391                 1.4284                 1.4823
 IR Inten    --     11.6551                12.1622                 3.7658

                     61                     62                     63
                      A                      A                      A
 Frequencies --   1381.9474              1385.6913              1389.2610
 Red. masses --      1.4018                 1.3958                 1.4087
 Frc consts  --      1.5774                 1.5791                 1.6019
 IR Inten    --      5.1350                 0.7515                 0.3494

                     64                     65                     66
                      A                      A                      A
 Frequencies --   1407.7761              1412.6880              1418.3708
 Red. masses --      1.4255                 1.4046                 1.4057
 Frc consts  --      1.6645                 1.6516                 1.6662
 IR Inten    --      0.5302                 4.6463                 2.9097

                     67                     68                     69
                      A                      A                      A
 Frequencies --   1431.3135              1445.8856              1485.0021
 Red. masses --      1.3634                 1.3761                 1.1975
 Frc consts  --      1.6456                 1.6949                 1.5559
 IR Inten    --     13.6477                 6.3111                 0.2654

                     70                     71                     72
                      A                      A                      A
 Frequencies --   1490.2159              1496.7436              1500.9554
 Red. masses --      1.0967                 1.0914                 1.0874
 Frc consts  --      1.4350                 1.4406                 1.4433
 IR Inten    --      5.9869                 1.2895                 7.2854

                     73                     74                     75
                      A                      A                      A
 Frequencies --   1506.7820              1514.7815              1515.4895
 Red. masses --      1.0856                 1.0862                 1.0614
 Frc consts  --      1.4522                 1.4685                 1.4363
 IR Inten    --      2.6491                28.0986                17.3154

                     76                     77                     78
                      A                      A                      A
 Frequencies --   1522.7628              1530.0155              1539.4402
 Red. masses --      1.0930                 1.0746                 1.0627
 Frc consts  --      1.4932                 1.4822                 1.4839
 IR Inten    --      1.9815                 1.5889                 1.2421

                     79                     80                     81
                      A                      A                      A
 Frequencies --   1551.1175              1694.8104              2923.4916
 Red. masses --      1.1031                 1.0886                 1.0627
 Frc consts  --      1.5638                 1.8423                 5.3515
 IR Inten    --      7.8235                36.5574                62.6195

                     82                     83                     84
                      A                      A                      A
 Frequencies --   2945.4582              2977.7895              3008.2025
 Red. masses --      1.0714                 1.0698                 1.0723
 Frc consts  --      5.4768                 5.5892                 5.7172
 IR Inten    --     64.3213                91.6432                30.0807

                     85                     86                     87
                      A                      A                      A
 Frequencies --   3033.1193              3035.9945              3042.8485
 Red. masses --      1.0719                 1.0759                 1.0672
 Frc consts  --      5.8103                 5.8431                 5.8217
 IR Inten    --     30.5519                 4.7543                18.2130

                     88                     89                     90
                      A                      A                      A
 Frequencies --   3046.9079              3052.4670              3055.0871
 Red. masses --      1.0667                 1.0732                 1.0733
 Frc consts  --      5.8348                 5.8918                 5.9024
 IR Inten    --     64.5935                 6.0104                64.7460

                     91                     92                     93
                      A                      A                      A
 Frequencies --   3061.7783              3066.5282              3072.8348
 Red. masses --      1.0854                 1.0868                 1.0702
 Frc consts  --      5.9947                 6.0215                 5.9538
 IR Inten    --     65.4822                22.9936                74.0047

                     94                     95                     96
                      A                      A                      A
 Frequencies --   3082.4307              3092.1801              3112.9772
 Red. masses --      1.0996                 1.0901                 1.0972
 Frc consts  --      6.1555                 6.1413                 6.2647
 IR Inten    --     61.7028                28.0438                 8.3777

                     97                     98                     99
                      A                      A                      A
 Frequencies --   3116.8899              3126.2627              3131.9416
 Red. masses --      1.1040                 1.0979                 1.0909
 Frc consts  --      6.3191                 6.3223                 6.3046
 IR Inten    --     32.3403                 9.4257                20.9850

                    100                    101                    102
                      A                      A                      A
 Frequencies --   3139.7054              3452.1677              3537.6978
 Red. masses --      1.0904                 1.0494                 1.0915
 Frc consts  --      6.3331                 7.3686                 8.0481
 IR Inten    --     19.4085                 4.0909                 1.7094

 - Thermochemistry -
 -------------------
 Temperature   298.150 Kelvin.  Pressure   1.00000 Atm.
 Atom     1 has atomic number  6 and mass  12.00000

 Molecular mass:   214.15037 amu.
 Principal axes and moments of inertia in atomic units:
                           1         2         3
     Eigenvalues --  2094.284023726.346184333.85977
           X            0.99952   0.03001   0.00705
           Y           -0.02982   0.99924  -0.02517
           Z           -0.00780   0.02495   0.99966
 This molecule is an asymmetric top.
 Rotational symmetry number  1.
 Warning -- assumption of classical behavior for rotation
           may cause significant error
 Rotational temperatures (Kelvin)      0.04136     0.02324     0.01999
 Rotational constants (GHZ):           0.86175     0.48432     0.41643
 Zero-point vibrational energy     866401.0 (Joules/Mol)
                                  207.07480 (Kcal/Mol)
 Warning -- explicit consideration of  23 degrees of freedom as
           vibrations may cause significant error
 Vibrational temperatures:     80.82   129.59   196.33   212.82   288.64
          (Kelvin)            321.15   358.35   370.89   379.51   415.61
                              456.56   484.57   494.80   523.07   540.84
                              542.77   586.34   640.25   662.90   716.00
                              749.38   805.65   888.17   970.85  1055.25
                             1093.64  1131.81  1170.70  1181.24  1225.83
                             1266.03  1304.81  1321.90  1332.99  1381.73
                             1404.55  1464.91  1492.84  1497.62  1537.26
                             1548.39  1556.56  1584.25  1605.18  1628.04
                             1659.63  1676.72  1704.68  1709.13  1713.36
                             1767.21  1771.13  1804.57  1851.24  1882.48
                             1899.67  1910.33  1931.27  1939.44  1965.90
                             1988.31  1993.70  1998.84  2025.48  2032.54
                             2040.72  2059.34  2080.31  2136.59  2144.09
                             2153.48  2159.54  2167.92  2179.43  2180.45
                             2190.92  2201.35  2214.91  2231.71  2438.45
                             4206.25  4237.86  4284.37  4328.13  4363.98
                             4368.12  4377.98  4383.82  4391.82  4395.59
                             4405.22  4412.05  4421.12  4434.93  4448.96
                             4478.88  4484.51  4497.99  4506.17  4517.34
                             4966.90  5089.96

 Zero-point correction=                           0.329995 (Hartree/Particle)
 Thermal correction to Energy=                    0.343885
 Thermal correction to Enthalpy=                  0.344829
 Thermal correction to Gibbs Free Energy=         0.290791
 Sum of electronic and zero-point Energies=           -939.833249
 Sum of electronic and thermal Energies=              -939.819359
 Sum of electronic and thermal Enthalpies=            -939.818415
 Sum of electronic and thermal Free Energies=         -939.872453

                     E (Thermal)             CV                S
                      KCal/Mol        Cal/Mol-Kelvin    Cal/Mol-Kelvin
 Total                  215.791             57.075            113.733
 Electronic               0.000              0.000              0.000
 Translational            0.889              2.981             41.988
 Rotational               0.889              2.981             31.892
 Vibrational            214.014             51.114             39.853
 Vibration     1          0.596              1.975              4.587
 Vibration     2          0.602              1.956              3.659
 Vibration     3          0.614              1.917              2.853
 Vibration     4          0.617              1.905              2.699
 Vibration     5          0.638              1.839              2.127
 Vibration     6          0.649              1.806              1.933
 Vibration     7          0.662              1.764              1.737
 Vibration     8          0.667              1.750              1.677
 Vibration     9          0.670              1.739              1.637
 Vibration    10          0.685              1.694              1.481
 Vibration    11          0.704              1.640              1.324
 Vibration    12          0.718              1.602              1.227
 Vibration    13          0.723              1.588              1.194
 Vibration    14          0.737              1.547              1.107
 Vibration    15          0.747              1.521              1.056
 Vibration    16          0.748              1.519              1.050
 Vibration    17          0.772              1.454              0.935
 Vibration    18          0.804              1.372              0.811
 Vibration    19          0.819              1.337              0.764
 Vibration    20          0.853              1.255              0.664
 Vibration    21          0.876              1.204              0.608
 Vibration    22          0.916              1.118              0.524
 Vibration    23          0.977              0.995              0.421

 Optimization completed.
    -- Stationary point found.
 Normal termination of Gaussian 16 at Thu Dec 10 09:30:56 2020.

 ----------------------------------------------------------------------
 # B3LYP/6-311++G(d,p) empiricaldispersion=gd3bj scf=xqc pop=npa geom=c
 heck
 ----------------------------------------------------------------------

 ---------------------------------------
 CID_131355562_JID_4082_Energie_neutraal
 ---------------------------------------
 Structure from the checkpoint file:  "JID_4082.chk"
 Charge =  0 Multiplicity = 1

 SCF Done:  E(RB3LYP) =  -940.344423223     A.U. after   14 cycles
 Normal termination of Gaussian 16 at Thu Dec 10 09:36:45 2020.

 ----------------------------------------------------------------------
 # B3LYP/6-311++G(d,p) empiricaldispersion=gd3bj scf=xqc pop=npa geom=c
 heck
 ----------------------------------------------------------------------

 -------------------------------------
 CID_131355562_JID_4082_Energie_kation
 -------------------------------------
 Structure from the checkpoint file:  "JID_4082.chk"
 Charge =  1 Multiplicity = 2

 SCF Done:  E(UB3LYP) =  -940.068541283     A.U. after   22 cycles
 Normal termination of Gaussian 16 at Thu Dec 10 09:50:14 2020.
 Gaussian 16:  ES64L-G16RevA.03 25-Dec-2016

 ----------------------------------------------------------------------
 # B3LYP/6-311++G(d,p) empiricaldispersion=gd3bj scf=xqc pop=npa geom=c
 heck
 ----------------------------------------------------------------------

 ------------------------------------
 CID_131355562_JID_4082_Energie_anion
 ------------------------------------
 Structure from the checkpoint file:  "JID_4082.chk"
 Charge = -1 Multiplicity = 2

                         Standard orientation:
 ---------------------------------------------------------------------
 Center     Atomic      Atomic             Coordinates (Angstroms)
 Number     Number       Type             X           Y           Z
 ---------------------------------------------------------------------
      1          6           0       -3.643414   -1.329393    0.405089
      2          7           0       -2.782847   -0.328191   -0.198166
      3          6           0       -2.290478    0.618966    0.797212
      4          6           0       -1.482548    1.741555    0.139498
      5          6           0       -0.306126    1.249267   -0.734731
      6          6           0       -0.827004    0.106495   -1.634239
      7          6           0       -1.681528   -0.946797   -0.935577
      8          6           0        1.066571    1.120517    0.026365
      9          6           0        1.053281    0.540781    1.468002
     10          6           0        0.975752   -0.978844    1.660197
     11          6           0        2.118012   -1.710220    0.959673
     12         16           0        2.099763   -1.425372   -0.847612
     13          6           0        2.144310    0.408154   -0.820754
     14          7           0        1.549820    2.529299    0.082287
     15          1           0       -3.122425   -1.956677    1.156871
     16          1           0       -4.490127   -0.841676    0.900974
     17          1           0       -4.037563   -1.993635   -0.371777
     18          1           0       -3.157918    1.054933    1.308108
     19          1           0       -1.692940    0.109094    1.577219
     20          1           0       -1.147533    2.442793    0.914399
     21          1           0       -2.169915    2.299487   -0.507299
     22          1           0       -0.073625    2.064276   -1.430135
     23          1           0       -0.014456   -0.386745   -2.169941
     24          1           0       -1.465349    0.582610   -2.389520
     25          1           0       -1.056343   -1.581787   -0.283006
     26          1           0       -2.114328   -1.613600   -1.691395
     27          1           0        1.997139    0.864938    1.932115
     28          1           0        0.259911    1.029575    2.043318
     29          1           0        0.021455   -1.373567    1.304576
     30          1           0        1.024492   -1.193204    2.737155
     31          1           0        2.038052   -2.793331    1.092539
     32          1           0        3.087723   -1.395015    1.365902
     33          1           0        2.078081    0.738369   -1.860883
     34          1           0        3.131102    0.714067   -0.453364
     35          1           0        0.829231    3.118068    0.499422
     36          1           0        2.349337    2.586347    0.713275
 ---------------------------------------------------------------------

 SCF Done:  E(UB3LYP) =  -940.330861883     A.U. after   29 cycles

 The electronic state is 2-A.
 Alpha  occ. eigenvalues --  -88.73640 -14.20539 -14.19184 -10.11548 -10.09748
 Alpha  occ. eigenvalues --  -10.09627 -10.09085 -10.09016 -10.08915 -10.07611
 Alpha  occ. eigenvalues --  -10.06898 -10.06701 -10.06624 -10.06417  -7.82297
 Alpha  occ. eigenvalues --   -5.78679  -5.78337  -5.77662  -0.83157  -0.80101
 Alpha  occ. eigenvalues --   -0.72221  -0.69821  -0.65999  -0.65099  -0.62965
 Alpha  occ. eigenvalues --   -0.59727  -0.53594  -0.53269  -0.52124  -0.49622
 Alpha  occ. eigenvalues --   -0.46994  -0.41699  -0.40459  -0.37990  -0.37140
 Alpha  occ. eigenvalues --   -0.37098  -0.36552  -0.35129  -0.34959  -0.33839
 Alpha  occ. eigenvalues --   -0.31530  -0.31356  -0.30804  -0.29806  -0.28737
 Alpha  occ. eigenvalues --   -0.28672  -0.28322  -0.26561  -0.25481  -0.25143
 Alpha  occ. eigenvalues --   -0.24176  -0.23627  -0.21822  -0.21523  -0.20700
 Alpha  occ. eigenvalues --   -0.20196  -0.14760  -0.12731  -0.11779   0.04443
 Alpha virt. eigenvalues --    0.06495   0.06846   0.07690   0.08328   0.08982
 Alpha virt. eigenvalues --    0.09191   0.09521   0.09866   0.11261   0.11411
 Alpha virt. eigenvalues --    0.11759   0.12048   0.12455   0.12657   0.13067

  Beta  occ. eigenvalues --  -88.73638 -14.20532 -14.19150 -10.11550 -10.09728
  Beta  occ. eigenvalues --  -10.09613 -10.09066 -10.09011 -10.08897 -10.07608
  Beta  occ. eigenvalues --  -10.06879 -10.06680 -10.06621 -10.06384  -7.82295
  Beta  occ. eigenvalues --   -5.78678  -5.78333  -5.77661  -0.83141  -0.80062
  Beta  occ. eigenvalues --   -0.72184  -0.69796  -0.65970  -0.65071  -0.62916
  Beta  occ. eigenvalues --   -0.59693  -0.53548  -0.53235  -0.52079  -0.49577
  Beta  occ. eigenvalues --   -0.46950  -0.41650  -0.40420  -0.37961  -0.37096
  Beta  occ. eigenvalues --   -0.37061  -0.36523  -0.35098  -0.34928  -0.33810
  Beta  occ. eigenvalues --   -0.31506  -0.31322  -0.30761  -0.29773  -0.28706
  Beta  occ. eigenvalues --   -0.28642  -0.28300  -0.26531  -0.25448  -0.25122
  Beta  occ. eigenvalues --   -0.24133  -0.23596  -0.21794  -0.21499  -0.20674
  Beta  occ. eigenvalues --   -0.20166  -0.14722  -0.12708  -0.11748
  Beta virt. eigenvalues --    0.06579   0.07334   0.07484   0.08089   0.08795
  Beta virt. eigenvalues --    0.09478   0.09566   0.09993   0.10141   0.11649
  Beta virt. eigenvalues --    0.11752   0.12121   0.12316   0.12705   0.12862

 Mulliken charges and spin densities:
               1          2
     1  C    0.365344  -0.594497
     2  N   -0.006097   0.088766
     3  C    0.156293  -0.526395
     4  C    0.169224  -0.756020
     5  C   -0.052042   0.408722
     6  C   -0.521205  -0.041748
     7  C   -0.205804  -0.128569
     8  C    1.067913  -1.107826
     9  C   -0.288857  -0.156778
    10  C    0.204083   0.012193
    11  C   -0.000365  -1.046285
    12  S    0.279274  -0.049354
    13  C   -0.522356  -0.225742
    14  N   -0.385573   0.200303
    15  H   -0.149014   0.261689
    16  H   -0.146405   0.274524
    17  H   -0.016666   0.133198
    18  H   -0.427716   0.612668
    19  H    0.127828  -0.006964
    20  H   -0.311590   0.459734
    21  H    0.110578   0.056071
    22  H    0.206807   0.024282
    23  H    0.132945  -0.031020
    24  H    0.077366   0.083177
    25  H    0.125657  -0.023557
    26  H    0.095767   0.070242
    27  H   -0.302542   0.446019
    28  H   -0.242066   0.412862
    29  H    0.486334  -0.414458
    30  H   -0.869735   1.086247
    31  H   -0.147183   0.379208
    32  H   -0.008965   0.199276
    33  H    0.110993   0.113680
    34  H   -0.033891   0.229454
    35  H   -0.027225   0.262685
    36  H   -0.051108   0.294212
 Sum of Mulliken charges =  -1.00000   1.00000

 Dipole moment (field-independent basis, Debye):
    X=             -0.9831    Y=             -1.9736    Z=             -6.0313  Tot=              6.4217
 Quadrupole moment (field-independent basis, Debye-Ang):
   XX=           -158.8061   YY=           -143.5930   ZZ=           -145.0453
   XY=             -0.0739   XZ=             -1.8163   YZ=             -2.2268

 Summary of Natural Population Analysis:

                                       Natural Population
                Natural  -----------------------------------------------
    Atom  No    Charge         Core      Valence    Rydberg      Total
 -----------------------------------------------------------------------
      C    1   -0.17466      0.99965     2.16666    0.00835     3.17466
      N    2   -0.28011      0.99971     2.76867    0.01173     3.78011
      C    3   -0.08644      0.99960     2.07428    0.01256     3.08644
      C    4   -0.19597      0.99960     2.18563    0.01073     3.19597
      C    5   -0.11050      0.99953     2.09902    0.01194     3.11050
      C    6   -0.19316      0.99960     2.18544    0.00813     3.19316
      C    7   -0.08427      0.99960     2.07437    0.01030     3.08427
      C    8    0.05495      0.99952     1.92986    0.01566     2.94505
      C    9   -0.20332      0.99957     2.18884    0.01491     3.20332
      C   10   -0.19901      0.99960     2.18859    0.01082     3.19901
      C   11   -0.24442      0.99959     2.23440    0.01043     3.24442
      S   12    0.07897      4.99962     2.90398    0.01743     7.92103
      C   13   -0.24964      0.99951     2.23810    0.01202     3.24964
      N   14   -0.42511      0.99976     2.91496    0.01040     3.92511
      H   15    0.08056      0.00000     0.41810    0.00134     0.41944
      H   16    0.09534      0.00000     0.40355    0.00111     0.40466
      H   17    0.09213      0.00000     0.40685    0.00101     0.40787
      H   18    0.09724      0.00000     0.40119    0.00157     0.40276
      H   19    0.08157      0.00000     0.41632    0.00211     0.41843
      H   20    0.10117      0.00000     0.39737    0.00146     0.39883
      H   21    0.10049      0.00000     0.39799    0.00151     0.39951
      H   22    0.10657      0.00000     0.39150    0.00194     0.39343
      H   23    0.10621      0.00000     0.39264    0.00115     0.39379
      H   24    0.09668      0.00000     0.40206    0.00126     0.40332
      H   25    0.08199      0.00000     0.41614    0.00187     0.41801
      H   26    0.09266      0.00000     0.40624    0.00111     0.40734
      H   27    0.09888      0.00000     0.39818    0.00294     0.40112
      H   28    0.10666      0.00000     0.39096    0.00238     0.39334
      H   29    0.09714      0.00000     0.40065    0.00221     0.40286
      H   30    0.10394      0.00000     0.39391    0.00214     0.39606
      H   31    0.10661      0.00000     0.39235    0.00103     0.39339
      H   32    0.09951      0.00000     0.39888    0.00161     0.40049
      H   33    0.11022      0.00000     0.38884    0.00094     0.38978
      H   34    0.10403      0.00000     0.39446    0.00151     0.39597
      H   35    0.17729      0.00000     0.32050    0.00221     0.32271
      H   36    0.17579      0.00000     0.32189    0.00232     0.32421
 =======================================================================
   * Total *   -0.00000     17.99448    40.80338    0.20214    59.00000

 Normal termination of Gaussian 16 at Thu Dec 10 10:06:04 2020.
