 Gaussian 16, Revision A.03,

 -----------------------------------------------------------
 # opt freq B3LYP/6-31G(d) empiricaldispersion=gd3bj scf=xqc
 -----------------------------------------------------------

 -------------------------------
 CID_123458988_JID_1693_neutraal
 -------------------------------
 Symbolic Z-matrix:
 Charge =  0 Multiplicity = 1

 SCF Done:  E(RB3LYP) =  -519.127814996     A.U. after   14 cycles
 SCF Done:  E(RB3LYP) =  -519.130485486     A.U. after   12 cycles
 SCF Done:  E(RB3LYP) =  -519.130791024     A.U. after   10 cycles
 SCF Done:  E(RB3LYP) =  -519.130830161     A.U. after   10 cycles
 SCF Done:  E(RB3LYP) =  -519.130857873     A.U. after    9 cycles
 SCF Done:  E(RB3LYP) =  -519.130899047     A.U. after   10 cycles
 SCF Done:  E(RB3LYP) =  -519.130919310     A.U. after   10 cycles
 SCF Done:  E(RB3LYP) =  -519.130942023     A.U. after   10 cycles
 SCF Done:  E(RB3LYP) =  -519.130953035     A.U. after   11 cycles
 SCF Done:  E(RB3LYP) =  -519.130954979     A.U. after    9 cycles
 SCF Done:  E(RB3LYP) =  -519.130955241     A.U. after    8 cycles
 SCF Done:  E(RB3LYP) =  -519.130955311     A.U. after    7 cycles
 SCF Done:  E(RB3LYP) =  -519.130955341     A.U. after    7 cycles
 Optimization completed.
    -- Stationary point found.
 Normal termination of Gaussian 16 at Tue Dec  8 20:51:11 2020.

 --------------------------------------------------------------------
 #N Geom=AllCheck Guess=TCheck SCRF=Check GenChk RB3LYP/6-31G(d) Freq
 --------------------------------------------------------------------

 Structure from the checkpoint file:  "JID_1693.chk"
 -------------------------------
 CID_123458988_JID_1693_neutraal
 -------------------------------
 Charge =  0 Multiplicity = 1

 SCF Done:  E(RB3LYP) =  -519.130955341     A.U. after    1 cycles

  Exact polarizability: 106.787   5.190  88.492  -3.191  -4.108  84.135
 Approx polarizability: 132.389   8.904 127.387  -4.981 -17.635 133.096

                      1                      2                      3
                      A                      A                      A
 Frequencies --     36.7075                46.3941                76.0864
 Red. masses --      3.9975                 3.3658                 3.3052
 Frc consts  --      0.0032                 0.0043                 0.0113
 IR Inten    --      0.9571                 0.2107                 0.0946

                      4                      5                      6
                      A                      A                      A
 Frequencies --    123.3115               160.2891               181.8860
 Red. masses --      2.3550                 2.7404                 3.0383
 Frc consts  --      0.0211                 0.0415                 0.0592
 IR Inten    --     13.7611                 0.9360                 2.9830

                      7                      8                      9
                      A                      A                      A
 Frequencies --    205.7018               221.0574               235.9326
 Red. masses --      1.3332                 1.0812                 1.2044
 Frc consts  --      0.0332                 0.0311                 0.0395
 IR Inten    --      0.6583                 0.1085                 0.3163

                     10                     11                     12
                      A                      A                      A
 Frequencies --    276.5748               319.7892               373.6768
 Red. masses --      2.1386                 2.8675                 2.2741
 Frc consts  --      0.0964                 0.1728                 0.1871
 IR Inten    --      1.3983                 1.9034                 0.3433

                     13                     14                     15
                      A                      A                      A
 Frequencies --    382.1122               440.1393               483.2640
 Red. masses --      2.5444                 2.6542                 3.3317
 Frc consts  --      0.2189                 0.3029                 0.4584
 IR Inten    --      2.4819                 1.9104                 4.0420

                     16                     17                     18
                      A                      A                      A
 Frequencies --    545.2663               584.5050               665.2140
 Red. masses --      3.9843                 3.3471                 3.5997
 Frc consts  --      0.6979                 0.6738                 0.9385
 IR Inten    --      4.3956                12.9777                 4.2215

                     19                     20                     21
                      A                      A                      A
 Frequencies --    680.6167               807.6495               837.9674
 Red. masses --      8.4870                 2.2273                 3.3555
 Frc consts  --      2.3164                 0.8560                 1.3882
 IR Inten    --     10.8120                 7.0373                18.0875

                     22                     23                     24
                      A                      A                      A
 Frequencies --    922.8487               946.3667               969.7654
 Red. masses --      2.2196                 1.1754                 3.7873
 Frc consts  --      1.1137                 0.6202                 2.0985
 IR Inten    --      1.4737                 1.8650                25.7828

                     25                     26                     27
                      A                      A                      A
 Frequencies --    979.2577               993.3923              1018.0637
 Red. masses --      1.4457                 1.4794                 1.8962
 Frc consts  --      0.8168                 0.8602                 1.1580
 IR Inten    --      2.8400                 3.2961                 7.9401

                     28                     29                     30
                      A                      A                      A
 Frequencies --   1042.9669              1085.3538              1114.1798
 Red. masses --      2.0045                 2.4824                 2.4900
 Frc consts  --      1.2847                 1.7229                 1.8212
 IR Inten    --      0.6549                 8.1005                18.2054

                     31                     32                     33
                      A                      A                      A
 Frequencies --   1122.4905              1146.3850              1159.2372
 Red. masses --      4.6810                 1.7617                 2.1124
 Frc consts  --      3.4750                 1.3641                 1.6725
 IR Inten    --     39.8534                 6.1382                 8.4650

                     34                     35                     36
                      A                      A                      A
 Frequencies --   1203.5878              1212.3446              1216.3905
 Red. masses --      1.7206                 1.2355                 1.7570
 Frc consts  --      1.4686                 1.0699                 1.5316
 IR Inten    --      4.0115                 3.4205                 2.0186

                     37                     38                     39
                      A                      A                      A
 Frequencies --   1225.3478              1268.6664              1328.2665
 Red. masses --      1.1649                 3.5399                 1.6507
 Frc consts  --      1.0305                 3.3569                 1.7159
 IR Inten    --      6.8219                54.7228                88.2750

                     40                     41                     42
                      A                      A                      A
 Frequencies --   1339.1618              1366.5376              1375.1877
 Red. masses --      1.3822                 1.5056                 1.6351
 Frc consts  --      1.4604                 1.6566                 1.8218
 IR Inten    --      8.0682                32.9910                58.4121

                     43                     44                     45
                      A                      A                      A
 Frequencies --   1404.5962              1421.4322              1431.8227
 Red. masses --      1.4402                 1.3803                 1.2731
 Frc consts  --      1.6741                 1.6431                 1.5377
 IR Inten    --      5.9739                22.6745                 3.4007

                     46                     47                     48
                      A                      A                      A
 Frequencies --   1439.5918              1453.4283              1493.6501
 Red. masses --      1.2507                 1.2255                 2.0576
 Frc consts  --      1.5272                 1.5252                 2.7046
 IR Inten    --     10.1598                 2.5109               139.7081

                     49                     50                     51
                      A                      A                      A
 Frequencies --   1518.0590              1520.5604              1528.0255
 Red. masses --      1.0517                 1.0457                 1.0581
 Frc consts  --      1.4280                 1.4245                 1.4556
 IR Inten    --      1.5177                 1.4678                 0.3681

                     52                     53                     54
                      A                      A                      A
 Frequencies --   1529.9562              1530.9253              1537.1616
 Red. masses --      1.0595                 1.0657                 1.0550
 Frc consts  --      1.4612                 1.4716                 1.4688
 IR Inten    --     17.3083                 2.1096                 5.8217

                     55                     56                     57
                      A                      A                      A
 Frequencies --   1546.4965              1583.1650              1819.2112
 Red. masses --      1.0472                 1.0902                11.8510
 Frc consts  --      1.4757                 1.6099                23.1085
 IR Inten    --      5.8595                 5.1509               324.3137

                     58                     59                     60
                      A                      A                      A
 Frequencies --   2982.5633              3005.2767              3023.2518
 Red. masses --      1.0705                 1.0828                 1.0700
 Frc consts  --      5.6107                 5.7619                 5.7619
 IR Inten    --     81.7496                23.2800                48.7568

                     61                     62                     63
                      A                      A                      A
 Frequencies --   3046.6809              3052.2037              3054.1403
 Red. masses --      1.0374                 1.0400                 1.0389
 Frc consts  --      5.6733                 5.7082                 5.7097
 IR Inten    --     22.1753                36.3007                 5.5547

                     64                     65                     66
                      A                      A                      A
 Frequencies --   3061.6918              3080.2093              3110.9842
 Red. masses --      1.0933                 1.0829                 1.1009
 Frc consts  --      6.0382                 6.0531                 6.2778
 IR Inten    --     43.9860                 7.2298                10.0259

                     67                     68                     69
                      A                      A                      A
 Frequencies --   3117.8955              3119.5441              3121.4348
 Red. masses --      1.0949                 1.1017                 1.0990
 Frc consts  --      6.2709                 6.3169                 6.3088
 IR Inten    --     16.9104                34.8864                30.8914

                     70                     71                     72
                      A                      A                      A
 Frequencies --   3125.9872              3129.1300              3146.4525
 Red. masses --      1.1018                 1.1012                 1.1004
 Frc consts  --      6.3436                 6.3530                 6.4189
 IR Inten    --     35.8831                38.4862                26.5257

 - Thermochemistry -
 -------------------
 Temperature   298.150 Kelvin.  Pressure   1.00000 Atm.
 Atom     1 has atomic number  6 and mass  12.00000

 Molecular mass:   157.11028 amu.
 Principal axes and moments of inertia in atomic units:
                           1         2         3
     Eigenvalues --  1039.789702419.115732509.89130
           X            0.99999  -0.00259  -0.00229
           Y            0.00319   0.94823   0.31756
           Z            0.00135  -0.31756   0.94824
 This molecule is an asymmetric top.
 Rotational symmetry number  1.
 Warning -- assumption of classical behavior for rotation
           may cause significant error
 Rotational temperatures (Kelvin)      0.08330     0.03580     0.03451
 Rotational constants (GHZ):           1.73568     0.74603     0.71905
 Zero-point vibrational energy     602053.4 (Joules/Mol)
                                  143.89422 (Kcal/Mol)
 Warning -- explicit consideration of  17 degrees of freedom as
           vibrations may cause significant error
 Vibrational temperatures:     52.81    66.75   109.47   177.42   230.62
          (Kelvin)            261.69   295.96   318.05   339.45   397.93
                              460.11   537.64   549.77   633.26   695.31
                              784.52   840.97   957.09   979.26  1162.03
                             1205.65  1327.77  1361.61  1395.28  1408.93
                             1429.27  1464.77  1500.60  1561.58  1603.06
                             1615.01  1649.39  1667.88  1731.69  1744.29
                             1750.11  1763.00  1825.33  1911.08  1926.76
                             1966.14  1978.59  2020.90  2045.12  2060.07
                             2071.25  2091.16  2149.03  2184.15  2187.75
                             2198.49  2201.27  2202.66  2211.63  2225.06
                             2277.82  2617.44  4291.24  4323.92  4349.79
                             4383.49  4391.44  4394.23  4405.09  4431.73
                             4476.01  4485.96  4488.33  4491.05  4497.60
                             4502.12  4527.04

 Zero-point correction=                           0.229310 (Hartree/Particle)
 Thermal correction to Energy=                    0.241473
 Thermal correction to Enthalpy=                  0.242417
 Thermal correction to Gibbs Free Energy=         0.190406
 Sum of electronic and zero-point Energies=           -518.901645
 Sum of electronic and thermal Energies=              -518.889482
 Sum of electronic and thermal Enthalpies=            -518.888538
 Sum of electronic and thermal Free Energies=         -518.940549

                     E (Thermal)             CV                S
                      KCal/Mol        Cal/Mol-Kelvin    Cal/Mol-Kelvin
 Total                  151.527             43.910            109.467
 Electronic               0.000              0.000              0.000
 Translational            0.889              2.981             41.065
 Rotational               0.889              2.981             30.224
 Vibrational            149.749             37.949             38.178
 Vibration     1          0.594              1.982              5.429
 Vibration     2          0.595              1.979              4.965
 Vibration     3          0.599              1.965              3.989
 Vibration     4          0.610              1.930              3.048
 Vibration     5          0.622              1.891              2.546
 Vibration     6          0.630              1.864              2.309
 Vibration     7          0.640              1.832              2.081
 Vibration     8          0.648              1.809              1.950
 Vibration     9          0.655              1.786              1.833
 Vibration    10          0.678              1.717              1.555
 Vibration    11          0.706              1.636              1.311
 Vibration    12          0.745              1.526              1.065
 Vibration    13          0.752              1.508              1.031
 Vibration    14          0.800              1.383              0.826
 Vibration    15          0.839              1.287              0.701
 Vibration    16          0.900              1.150              0.554
 Vibration    17          0.941              1.065              0.477

                           ! Non-Optimized Parameters !
 Normal termination of Gaussian 16 at Tue Dec  8 20:57:11 2020.

 ----------------------------------------------------------------------
 # B3LYP/6-311++G(d,p) empiricaldispersion=gd3bj scf=xqc pop=npa geom=c
 heck
 ----------------------------------------------------------------------

 ---------------------------------------
 CID_123458988_JID_1693_Energie_neutraal
 ---------------------------------------
 Structure from the checkpoint file:  "JID_1693.chk"
 Charge =  0 Multiplicity = 1

 SCF Done:  E(RB3LYP) =  -519.282644063     A.U. after   14 cycles
 Normal termination of Gaussian 16 at Tue Dec  8 21:00:15 2020.

 ----------------------------------------------------------------------
 # B3LYP/6-311++G(d,p) empiricaldispersion=gd3bj scf=xqc pop=npa geom=c
 heck
 ----------------------------------------------------------------------

 -------------------------------------
 CID_123458988_JID_1693_Energie_kation
 -------------------------------------
 Structure from the checkpoint file:  "JID_1693.chk"
 Charge =  1 Multiplicity = 2

 SCF Done:  E(UB3LYP) =  -518.954609974     A.U. after   22 cycles
 Normal termination of Gaussian 16 at Tue Dec  8 21:07:17 2020.
 Gaussian 16:  ES64L-G16RevA.03 25-Dec-2016

 ----------------------------------------------------------------------
 # B3LYP/6-311++G(d,p) empiricaldispersion=gd3bj scf=xqc pop=npa geom=c
 heck
 ----------------------------------------------------------------------

 ------------------------------------
 CID_123458988_JID_1693_Energie_anion
 ------------------------------------
 Structure from the checkpoint file:  "JID_1693.chk"
 Charge = -1 Multiplicity = 2

                         Standard orientation:
 ---------------------------------------------------------------------
 Center     Atomic      Atomic             Coordinates (Angstroms)
 Number     Number       Type             X           Y           Z
 ---------------------------------------------------------------------
      1          6           0        3.268988   -0.250273   -0.037951
      2          6           0        1.821205   -0.219778   -0.546268
      3          6           0        1.353148   -1.632260   -0.918469
      4          6           0        0.880362    0.418873    0.503828
      5          6           0        1.215865    1.880669    0.823007
      6          7           0       -0.518402    0.297029    0.105723
      7          6           0       -1.120404    0.986794   -1.018515
      8          8           0       -2.385178    0.374456   -1.200867
      9          6           0       -2.730255   -0.318858   -0.006437
     10          6           0       -1.421062   -0.490894    0.758671
     11          8           0       -1.223709   -1.175766    1.749261
     12          1           0        3.336538   -0.808584    0.904377
     13          1           0        3.672807    0.752210    0.132999
     14          1           0        3.919068   -0.748111   -0.765385
     15          1           0        1.794865    0.405311   -1.452273
     16          1           0        1.304704   -2.271388   -0.028855
     17          1           0        0.357984   -1.624155   -1.373115
     18          1           0        2.046289   -2.092628   -1.630837
     19          1           0        0.943596   -0.173510    1.423629
     20          1           0        1.221716    2.498471   -0.083484
     21          1           0        0.479015    2.295975    1.517535
     22          1           0        2.201334    1.963917    1.288183
     23          1           0       -0.532319    0.860533   -1.935961
     24          1           0       -1.230529    2.064809   -0.813635
     25          1           0       -3.449870    0.249167    0.602523
     26          1           0       -3.172372   -1.286373   -0.260123
 ---------------------------------------------------------------------

 SCF Done:  E(UB3LYP) =  -519.268638338     A.U. after   30 cycles

 The electronic state is 2-A.
 Alpha  occ. eigenvalues --  -19.04493 -18.99644 -14.24641 -10.17660 -10.15951
 Alpha  occ. eigenvalues --  -10.13613 -10.11248 -10.07629 -10.05948 -10.05720
 Alpha  occ. eigenvalues --  -10.05661  -0.98275  -0.93673  -0.83980  -0.71194
 Alpha  occ. eigenvalues --   -0.65988  -0.64313  -0.58764  -0.56819  -0.53722
 Alpha  occ. eigenvalues --   -0.48756  -0.45846  -0.41865  -0.40968  -0.38106
 Alpha  occ. eigenvalues --   -0.35800  -0.35474  -0.34572  -0.33203  -0.32596
 Alpha  occ. eigenvalues --   -0.31457  -0.29809  -0.28954  -0.28731  -0.27799
 Alpha  occ. eigenvalues --   -0.27477  -0.25654  -0.24003  -0.23262  -0.22655
 Alpha  occ. eigenvalues --   -0.18513  -0.16272  -0.14969   0.04649
 Alpha virt. eigenvalues --    0.07084   0.07657   0.08101   0.09427   0.09603
 Alpha virt. eigenvalues --    0.10311   0.10581   0.11150   0.11762   0.12421
 Alpha virt. eigenvalues --    0.12642   0.13825   0.13946   0.14434   0.15045

  Beta  occ. eigenvalues --  -19.04489 -18.99641 -14.24641 -10.17658 -10.15907
  Beta  occ. eigenvalues --  -10.13597 -10.11243 -10.07610 -10.05899 -10.05683
  Beta  occ. eigenvalues --  -10.05641  -0.98264  -0.93666  -0.83969  -0.71163
  Beta  occ. eigenvalues --   -0.65947  -0.64266  -0.58704  -0.56752  -0.53657
  Beta  occ. eigenvalues --   -0.48702  -0.45797  -0.41835  -0.40926  -0.38058
  Beta  occ. eigenvalues --   -0.35755  -0.35440  -0.34517  -0.33173  -0.32557
  Beta  occ. eigenvalues --   -0.31422  -0.29781  -0.28919  -0.28699  -0.27765
  Beta  occ. eigenvalues --   -0.27448  -0.25610  -0.23960  -0.23222  -0.22604
  Beta  occ. eigenvalues --   -0.18494  -0.16261  -0.14948
  Beta virt. eigenvalues --    0.07099   0.07864   0.08400   0.09038   0.09829
  Beta virt. eigenvalues --    0.10169   0.10829   0.10978   0.11600   0.12210
  Beta virt. eigenvalues --    0.12804   0.13046   0.14002   0.14257   0.14789

 Mulliken charges and spin densities:
               1          2
     1  C    1.082495  -1.845413
     2  C    0.008887   0.583932
     3  C   -0.106472  -0.439272
     4  C   -2.795882   2.261772
     5  C    2.464831  -3.131588
     6  N    0.048125   0.149395
     7  C    1.269672  -1.446788
     8  O   -0.194197   0.051095
     9  C    0.048765  -0.378069
    10  C    0.405129  -0.232349
    11  O   -0.375423   0.026705
    12  H   -0.068120   0.203798
    13  H   -0.396153   0.542943
    14  H   -0.210214   0.353256
    15  H   -0.281817   0.462422
    16  H    0.104185   0.050652
    17  H    0.147916   0.011447
    18  H   -0.301095   0.459979
    19  H    0.074651   0.138354
    20  H   -0.450549   0.628308
    21  H   -0.190916   0.356520
    22  H   -0.210269   0.356249
    23  H   -0.390676   0.604161
    24  H   -0.596081   0.787370
    25  H   -0.146504   0.324261
    26  H    0.059711   0.120859
 Sum of Mulliken charges =  -1.00000   1.00000

 Dipole moment (field-independent basis, Debye):
    X=             -3.3754    Y=             -4.0843    Z=              1.3756  Tot=              5.4743
 Quadrupole moment (field-independent basis, Debye-Ang):
   XX=           -123.7662   YY=           -114.0714   ZZ=           -109.1156
   XY=             -2.1279   XZ=              5.0970   YZ=              3.8432

 Summary of Natural Population Analysis:

                                       Natural Population
                Natural  -----------------------------------------------
    Atom  No    Charge         Core      Valence    Rydberg      Total
 -----------------------------------------------------------------------
      C    1   -0.28408      0.99965     2.27788    0.00655     3.28408
      C    2   -0.11665      0.99959     2.10617    0.01088     3.11665
      C    3   -0.28536      0.99965     2.27923    0.00648     3.28536
      C    4   -0.00656      0.99956     1.99338    0.01361     3.00656
      C    5   -0.28968      0.99964     2.28401    0.00603     3.28968
      N    6   -0.26200      0.99962     2.74925    0.01313     3.76200
      C    7    0.09753      0.99961     1.88859    0.01427     2.90247
      O    8   -0.29479      0.99989     3.28604    0.00885     4.29479
      C    9   -0.04408      0.99956     2.03426    0.01025     3.04408
      C   10    0.33464      0.99963     1.64384    0.02189     2.66536
      O   11   -0.32406      0.99987     3.31845    0.00574     4.32406
      H   12    0.09481      0.00000     0.40415    0.00104     0.40519
      H   13    0.10377      0.00000     0.39487    0.00136     0.39623
      H   14    0.10176      0.00000     0.39708    0.00116     0.39824
      H   15    0.09633      0.00000     0.40051    0.00316     0.40367
      H   16    0.09904      0.00000     0.40009    0.00088     0.40096
      H   17    0.10045      0.00000     0.39830    0.00125     0.39955
      H   18    0.10018      0.00000     0.39901    0.00081     0.39982
      H   19    0.10947      0.00000     0.38840    0.00213     0.39053
      H   20    0.10273      0.00000     0.39486    0.00241     0.39727
      H   21    0.10377      0.00000     0.39495    0.00128     0.39623
      H   22    0.10571      0.00000     0.39313    0.00116     0.39429
      H   23    0.08890      0.00000     0.40864    0.00246     0.41110
      H   24    0.08202      0.00000     0.41504    0.00294     0.41798
      H   25    0.09074      0.00000     0.40723    0.00203     0.40926
      H   26    0.09543      0.00000     0.40295    0.00163     0.40457
 =======================================================================
   * Total *    0.00000     10.99629    31.86032    0.14339    43.00000

 Normal termination of Gaussian 16 at Tue Dec  8 21:15:27 2020.
