 Gaussian 16, Revision A.03,

 -----------------------------------------------------------
 # opt freq B3LYP/6-31G(d) empiricaldispersion=gd3bj scf=xqc
 -----------------------------------------------------------

 -------------------------------
 CID_123266331_JID_9463_neutraal
 -------------------------------
 Symbolic Z-matrix:
 Charge =  0 Multiplicity = 1

 SCF Done:  E(RB3LYP) =  -821.331800955     A.U. after   15 cycles
 SCF Done:  E(RB3LYP) =  -821.344121981     A.U. after   13 cycles
 SCF Done:  E(RB3LYP) =  -821.347024656     A.U. after   13 cycles
 SCF Done:  E(RB3LYP) =  -821.348179960     A.U. after   13 cycles
 SCF Done:  E(RB3LYP) =  -821.348985963     A.U. after   12 cycles
 SCF Done:  E(RB3LYP) =  -821.349641178     A.U. after   12 cycles
 SCF Done:  E(RB3LYP) =  -821.350067800     A.U. after   13 cycles
 SCF Done:  E(RB3LYP) =  -821.350272687     A.U. after   11 cycles
 SCF Done:  E(RB3LYP) =  -821.350372821     A.U. after   11 cycles
 SCF Done:  E(RB3LYP) =  -821.350381104     A.U. after   10 cycles
 SCF Done:  E(RB3LYP) =  -821.350402193     A.U. after    8 cycles
 SCF Done:  E(RB3LYP) =  -821.350402240     A.U. after    7 cycles
 SCF Done:  E(RB3LYP) =  -821.350402274     A.U. after    7 cycles
 SCF Done:  E(RB3LYP) =  -821.350402307     A.U. after    7 cycles
 SCF Done:  E(RB3LYP) =  -821.350402327     A.U. after    6 cycles
 Optimization completed.
    -- Stationary point found.
 Normal termination of Gaussian 16 at Sun Dec 13 20:28:29 2020.

 --------------------------------------------------------------------
 #N Geom=AllCheck Guess=TCheck SCRF=Check GenChk RB3LYP/6-31G(d) Freq
 --------------------------------------------------------------------

 Structure from the checkpoint file:  "JID_9463.chk"
 -------------------------------
 CID_123266331_JID_9463_neutraal
 -------------------------------
 Charge =  0 Multiplicity = 1

 SCF Done:  E(RB3LYP) =  -821.350402327     A.U. after    1 cycles

  Exact polarizability: 238.584   4.004 199.538  13.243   0.104 112.089
 Approx polarizability: 335.534  11.836 324.739  36.818  -0.074 183.302

                      1                      2                      3
                      A                      A                      A
 Frequencies --     22.4049                31.5001                51.9083
 Red. masses --      4.0557                 3.6519                 3.0426
 Frc consts  --      0.0012                 0.0021                 0.0048
 IR Inten    --      0.4631                 0.3410                 0.5155

                      4                      5                      6
                      A                      A                      A
 Frequencies --     58.8911                78.8547                99.8241
 Red. masses --      3.0160                 3.7309                 3.3707
 Frc consts  --      0.0062                 0.0137                 0.0198
 IR Inten    --      0.2133                 0.2268                 2.8558

                      7                      8                      9
                      A                      A                      A
 Frequencies --    135.1948               163.2139               181.9934
 Red. masses --      3.5663                 4.4057                 1.0820
 Frc consts  --      0.0384                 0.0691                 0.0211
 IR Inten    --      0.8096                 5.7854                 0.1516

                     10                     11                     12
                      A                      A                      A
 Frequencies --    189.7942               228.0668               245.2672
 Red. masses --      4.9286                 1.5346                 5.7411
 Frc consts  --      0.1046                 0.0470                 0.2035
 IR Inten    --      0.9627                 1.1147                 8.6059

                     13                     14                     15
                      A                      A                      A
 Frequencies --    268.6878               301.2986               345.6011
 Red. masses --      2.0160                 3.7221                 2.7825
 Frc consts  --      0.0858                 0.1991                 0.1958
 IR Inten    --      2.4540                 1.2467                 0.7253

                     16                     17                     18
                      A                      A                      A
 Frequencies --    348.8270               360.8067               417.2664
 Red. masses --      3.7924                 4.2551                 3.4218
 Frc consts  --      0.2719                 0.3264                 0.3510
 IR Inten    --      1.0276                 1.2363                 3.8438

                     19                     20                     21
                      A                      A                      A
 Frequencies --    440.4501               447.4926               462.6365
 Red. masses --      2.5288                 3.2534                 2.7310
 Frc consts  --      0.2890                 0.3838                 0.3444
 IR Inten    --      1.3661                 1.4462                 3.4092

                     22                     23                     24
                      A                      A                      A
 Frequencies --    500.7722               518.8353               541.1240
 Red. masses --      2.5738                 4.5205                 4.7728
 Frc consts  --      0.3803                 0.7170                 0.8234
 IR Inten    --      1.3275                 5.3281                 6.7001

                     25                     26                     27
                      A                      A                      A
 Frequencies --    570.8173               593.5387               621.7757
 Red. masses --      6.2316                 3.8938                 3.6590
 Frc consts  --      1.1963                 0.8082                 0.8335
 IR Inten    --      4.7959                 1.7260                 6.1560

                     28                     29                     30
                      A                      A                      A
 Frequencies --    691.5448               712.1587               737.4849
 Red. masses --      5.8065                 6.0045                 1.2203
 Frc consts  --      1.6361                 1.7942                 0.3910
 IR Inten    --     14.9582                 0.5329                 0.3009

                     31                     32                     33
                      A                      A                      A
 Frequencies --    760.8737               775.6698               803.8985
 Red. masses --      3.3344                 3.8349                 3.0430
 Frc consts  --      1.1373                 1.3594                 1.1587
 IR Inten    --      1.2889                 2.7752                 2.3059

                     34                     35                     36
                      A                      A                      A
 Frequencies --    841.9211               849.9929               857.5808
 Red. masses --      1.3698                 3.7818                 2.4768
 Frc consts  --      0.5721                 1.6098                 1.0732
 IR Inten    --     48.2387                 1.5626                 6.0105

                     37                     38                     39
                      A                      A                      A
 Frequencies --    873.2221               899.5415               910.6595
 Red. masses --      2.2246                 2.0731                 1.2930
 Frc consts  --      0.9994                 0.9883                 0.6318
 IR Inten    --      9.8926                24.2767                 1.5163

                     40                     41                     42
                      A                      A                      A
 Frequencies --    915.7899               925.5260               941.6200
 Red. masses --      2.1043                 3.5378                 3.2286
 Frc consts  --      1.0398                 1.7855                 1.6866
 IR Inten    --      3.1854                17.3167                10.6307

                     43                     44                     45
                      A                      A                      A
 Frequencies --    950.7588               978.6739               985.4566
 Red. masses --      1.2077                 1.3318                 1.4287
 Frc consts  --      0.6432                 0.7516                 0.8175
 IR Inten    --      1.7496                 2.5585                 3.5054

                     46                     47                     48
                      A                      A                      A
 Frequencies --    995.0100              1018.7030              1047.5137
 Red. masses --      2.5129                 2.9679                 1.5815
 Frc consts  --      1.4658                 1.8146                 1.0224
 IR Inten    --     41.6170                21.3877                16.4133

                     49                     50                     51
                      A                      A                      A
 Frequencies --   1090.4547              1098.5296              1129.7032
 Red. masses --      1.4847                 2.2926                 2.1595
 Frc consts  --      1.0402                 1.6301                 1.6238
 IR Inten    --      1.6171                 2.9660                11.0201

                     52                     53                     54
                      A                      A                      A
 Frequencies --   1137.1615              1150.7383              1159.1473
 Red. masses --      1.8167                 1.4775                 1.2588
 Frc consts  --      1.3841                 1.1527                 0.9965
 IR Inten    --      1.4321                 4.4789                 6.9810

                     55                     56                     57
                      A                      A                      A
 Frequencies --   1168.5933              1178.0067              1231.6664
 Red. masses --      1.7696                 2.4299                 1.5884
 Frc consts  --      1.4238                 1.9867                 1.4197
 IR Inten    --     29.8303                41.1578                 7.3829

                     58                     59                     60
                      A                      A                      A
 Frequencies --   1243.8633              1254.0292              1280.7309
 Red. masses --      2.7525                 3.8498                 2.2035
 Frc consts  --      2.5091                 3.5670                 2.1295
 IR Inten    --      0.3063                92.1910                 8.6285

                     61                     62                     63
                      A                      A                      A
 Frequencies --   1292.7158              1297.8226              1305.5642
 Red. masses --      1.5974                 1.4113                 3.3104
 Frc consts  --      1.5728                 1.4005                 3.3245
 IR Inten    --     47.5406                 0.9423               324.8746

                     64                     65                     66
                      A                      A                      A
 Frequencies --   1325.6254              1339.3865              1381.5905
 Red. masses --      2.6490                 1.4121                 2.6824
 Frc consts  --      2.7427                 1.4926                 3.0167
 IR Inten    --      0.1774                75.4643                16.0752

                     67                     68                     69
                      A                      A                      A
 Frequencies --   1397.2310              1400.3796              1434.5841
 Red. masses --      1.6731                 3.7770                 1.2266
 Frc consts  --      1.9245                 4.3641                 1.4873
 IR Inten    --     28.9885                54.7738                17.4072

                     70                     71                     72
                      A                      A                      A
 Frequencies --   1439.6923              1444.6186              1463.2516
 Red. masses --      3.2135                 1.3974                 1.2821
 Frc consts  --      3.9244                 1.7183                 1.6174
 IR Inten    --      6.3311                 2.7142                 7.3757

                     73                     74                     75
                      A                      A                      A
 Frequencies --   1474.6897              1501.1280              1519.4618
 Red. masses --      2.2122                 1.0444                 2.9473
 Frc consts  --      2.8345                 1.3866                 4.0092
 IR Inten    --     20.3651                 6.7032               403.4989

                     76                     77                     78
                      A                      A                      A
 Frequencies --   1520.9217              1524.9877              1527.8323
 Red. masses --      1.0717                 1.0662                 1.1709
 Frc consts  --      1.4606                 1.4609                 1.6103
 IR Inten    --     30.8217                 5.2149                38.8067

                     79                     80                     81
                      A                      A                      A
 Frequencies --   1534.9897              1549.6297              1566.4017
 Red. masses --      1.0934                 1.4090                 2.6766
 Frc consts  --      1.5179                 1.9935                 3.8694
 IR Inten    --      8.3165               133.5643               198.7413

                     82                     83                     84
                      A                      A                      A
 Frequencies --   1596.7246              1617.6345              1680.2599
 Red. masses --      7.9046                 7.0285                 6.5868
 Frc consts  --     11.8739                10.8361                10.9567
 IR Inten    --    139.1399               202.1537                 7.6527

                     85                     86                     87
                      A                      A                      A
 Frequencies --   1736.9239              3037.8793              3044.5873
 Red. masses --      5.4961                 1.0558                 1.0368
 Frc consts  --      9.7693                 5.7410                 5.6625
 IR Inten    --     86.9266                32.0996                28.2412

                     88                     89                     90
                      A                      A                      A
 Frequencies --   3053.1667              3064.7551              3080.3429
 Red. masses --      1.0379                 1.0581                 1.0961
 Frc consts  --      5.7007                 5.8556                 6.1277
 IR Inten    --     21.2159                38.9649                 4.9572

                     91                     92                     93
                      A                      A                      A
 Frequencies --   3093.1406              3105.4230              3109.3943
 Red. masses --      1.1018                 1.1007                 1.1067
 Frc consts  --      6.2107                 6.2542                 6.3040
 IR Inten    --     22.2035                14.8044                18.3956

                     94                     95                     96
                      A                      A                      A
 Frequencies --   3114.8137              3119.1461              3155.8536
 Red. masses --      1.1029                 1.1023                 1.1007
 Frc consts  --      6.3043                 6.3186                 6.4591
 IR Inten    --     18.2068                78.8377                16.4833

                     97                     98                     99
                      A                      A                      A
 Frequencies --   3174.5765              3201.4725              3212.6519
 Red. masses --      1.0902                 1.0600                 1.0879
 Frc consts  --      6.4732                 6.4009                 6.6158
 IR Inten    --     51.3252                 0.2117                 3.6453

                    100                    101                    102
                      A                      A                      A
 Frequencies --   3227.9475              3260.5553              3283.8382
 Red. masses --      1.0957                 1.0895                 1.1171
 Frc consts  --      6.7268                 6.8246                 7.0974
 IR Inten    --      7.8465                 4.0301                10.1857

 - Thermochemistry -
 -------------------
 Temperature   298.150 Kelvin.  Pressure   1.00000 Atm.
 Atom     1 has atomic number  6 and mass  12.00000

 Molecular mass:   255.13716 amu.
 Principal axes and moments of inertia in atomic units:
                           1         2         3
     Eigenvalues --  3362.838627416.39240**********
           X            0.99988  -0.01336  -0.00761
           Y            0.01340   0.99989   0.00556
           Z            0.00753  -0.00566   0.99996
 This molecule is an asymmetric top.
 Rotational symmetry number  1.
 Warning -- assumption of classical behavior for rotation
           may cause significant error
 Rotational temperatures (Kelvin)      0.02576     0.01168     0.00861
 Rotational constants (GHZ):           0.53667     0.24334     0.17936
 Zero-point vibrational energy     783773.3 (Joules/Mol)
                                  187.32631 (Kcal/Mol)
 Warning -- explicit consideration of  26 degrees of freedom as
           vibrations may cause significant error
 Vibrational temperatures:     32.24    45.32    74.68    84.73   113.45
          (Kelvin)            143.62   194.52   234.83   261.85   273.07
                              328.14   352.88   386.58   433.50   497.24
                              501.88   519.12   600.35   633.71   643.84
                              665.63   720.50   746.49   778.56   821.28
                              853.97   894.60   994.98  1024.64  1061.08
                             1094.73  1116.02  1156.63  1211.34  1222.95
                             1233.87  1256.37  1294.24  1310.24  1317.62
                             1331.63  1354.78  1367.93  1408.09  1417.85
                             1431.60  1465.69  1507.14  1568.92  1580.54
                             1625.39  1636.12  1655.66  1667.75  1681.35
                             1694.89  1772.09  1789.64  1804.27  1842.69
                             1859.93  1867.28  1878.42  1907.28  1927.08
                             1987.80  2010.30  2014.83  2064.05  2071.40
                             2078.48  2105.29  2121.75  2159.79  2186.17
                             2188.27  2194.12  2198.21  2208.51  2229.57
                             2253.70  2297.33  2327.42  2417.52  2499.05
                             4370.83  4380.48  4392.83  4409.50  4431.93
                             4450.34  4468.01  4473.72  4481.52  4487.76
                             4540.57  4567.51  4606.20  4622.29  4644.30
                             4691.21  4724.71

 Zero-point correction=                           0.298523 (Hartree/Particle)
 Thermal correction to Energy=                    0.315597
 Thermal correction to Enthalpy=                  0.316541
 Thermal correction to Gibbs Free Energy=         0.251885
 Sum of electronic and zero-point Energies=           -821.051879
 Sum of electronic and thermal Energies=              -821.034805
 Sum of electronic and thermal Enthalpies=            -821.033861
 Sum of electronic and thermal Free Energies=         -821.098517

                     E (Thermal)             CV                S
                      KCal/Mol        Cal/Mol-Kelvin    Cal/Mol-Kelvin
 Total                  198.040             65.533            136.081
 Electronic               0.000              0.000              0.000
 Translational            0.889              2.981             42.510
 Rotational               0.889              2.981             33.884
 Vibrational            196.263             59.572             59.687
 Vibration     1          0.593              1.985              6.409
 Vibration     2          0.594              1.983              5.733
 Vibration     3          0.596              1.977              4.743
 Vibration     4          0.596              1.974              4.494
 Vibration     5          0.600              1.963              3.919
 Vibration     6          0.604              1.949              3.458
 Vibration     7          0.613              1.918              2.871
 Vibration     8          0.623              1.888              2.512
 Vibration     9          0.630              1.864              2.308
 Vibration    10          0.633              1.854              2.230
 Vibration    11          0.651              1.798              1.894
 Vibration    12          0.660              1.771              1.764
 Vibration    13          0.673              1.731              1.605
 Vibration    14          0.693              1.671              1.410
 Vibration    15          0.724              1.584              1.186
 Vibration    16          0.726              1.578              1.171
 Vibration    17          0.735              1.553              1.119
 Vibration    18          0.780              1.433              0.901
 Vibration    19          0.800              1.382              0.825
 Vibration    20          0.807              1.366              0.803
 Vibration    21          0.820              1.333              0.758
 Vibration    22          0.856              1.248              0.656
 Vibration    23          0.874              1.208              0.613
 Vibration    24          0.896              1.159              0.563
 Vibration    25          0.927              1.094              0.503
 Vibration    26          0.951              1.046              0.461

                           ! Non-Optimized Parameters !
 Normal termination of Gaussian 16 at Sun Dec 13 20:44:58 2020.

 ----------------------------------------------------------------------
 # B3LYP/6-311++G(d,p) empiricaldispersion=gd3bj scf=xqc pop=npa geom=c
 heck
 ----------------------------------------------------------------------

 ---------------------------------------
 CID_123266331_JID_9463_Energie_neutraal
 ---------------------------------------
 Structure from the checkpoint file:  "JID_9463.chk"
 Charge =  0 Multiplicity = 1

 SCF Done:  E(RB3LYP) =  -821.562976712     A.U. after   15 cycles
 Normal termination of Gaussian 16 at Sun Dec 13 20:52:39 2020.

 ----------------------------------------------------------------------
 # B3LYP/6-311++G(d,p) empiricaldispersion=gd3bj scf=xqc pop=npa geom=c
 heck
 ----------------------------------------------------------------------

 -------------------------------------
 CID_123266331_JID_9463_Energie_kation
 -------------------------------------
 Structure from the checkpoint file:  "JID_9463.chk"
 Charge =  1 Multiplicity = 2

 SCF Done:  E(UB3LYP) =  -821.285984454     A.U. after   25 cycles
 Normal termination of Gaussian 16 at Sun Dec 13 21:10:18 2020.
 Gaussian 16:  ES64L-G16RevA.03 25-Dec-2016

 ----------------------------------------------------------------------
 # B3LYP/6-311++G(d,p) empiricaldispersion=gd3bj scf=xqc pop=npa geom=c
 heck
 ----------------------------------------------------------------------

 ------------------------------------
 CID_123266331_JID_9463_Energie_anion
 ------------------------------------
 Structure from the checkpoint file:  "JID_9463.chk"
 Charge = -1 Multiplicity = 2

                         Standard orientation:
 ---------------------------------------------------------------------
 Center     Atomic      Atomic             Coordinates (Angstroms)
 Number     Number       Type             X           Y           Z
 ---------------------------------------------------------------------
      1          6           0        4.248179   -2.605978   -1.011765
      2          6           0        3.472349   -2.165505    0.219445
      3          6           0        3.661510   -0.688672    0.668214
      4          7           0        2.207640   -0.498451    0.569309
      5          6           0        1.967175   -1.840261    0.011781
      6          6           0        1.613452    0.701725    0.330969
      7          7           0        2.398604    1.770303    0.467071
      8          6           0        1.846405    2.977982    0.222101
      9          7           0        0.617229    3.249999   -0.157918
     10          6           0       -0.213104    2.169161   -0.280613
     11          6           0        0.221900    0.835250   -0.025120
     12          6           0       -0.709157   -0.226688   -0.109379
     13          6           0       -2.010464    0.029891   -0.477250
     14          6           0       -2.446137    1.341590   -0.762453
     15          6           0       -1.561014    2.390008   -0.661455
     16          8           0       -2.887187   -1.031186   -0.626652
     17          6           0       -3.871821   -1.214306    0.328321
     18          6           0       -3.958323   -0.529542    1.471618
     19          6           0       -4.802127   -2.301726   -0.112742
     20          1           0        3.929246   -3.599427   -1.347939
     21          1           0        5.323177   -2.650967   -0.802882
     22          1           0        4.096624   -1.904185   -1.840669
     23          1           0        3.624423   -2.870152    1.042558
     24          1           0        4.059893   -0.520516    1.673550
     25          1           0        4.215979   -0.060775   -0.038558
     26          1           0        1.645828   -1.824823   -1.037915
     27          1           0        1.264504   -2.448820    0.591380
     28          1           0        2.518678    3.825653    0.346772
     29          1           0       -0.434579   -1.247247    0.118561
     30          1           0       -3.480197    1.499496   -1.050768
     31          1           0       -1.863059    3.412256   -0.862530
     32          1           0       -4.763792   -0.745792    2.162664
     33          1           0       -3.250945    0.243445    1.745342
     34          1           0       -5.281978   -2.034927   -1.061805
     35          1           0       -4.248565   -3.233045   -0.281499
     36          1           0       -5.574987   -2.481207    0.637688
 ---------------------------------------------------------------------

 SCF Done:  E(UB3LYP) =  -821.565472667     A.U. after   33 cycles
 SCF Done:  E(UB3LYP) =  -821.565472667     a.u. after    1 cycles

 The electronic state is 2-A.
 Alpha  occ. eigenvalues --  -19.05092 -14.20955 -14.15923 -14.15429 -10.14075
 Alpha  occ. eigenvalues --  -10.10327 -10.10029 -10.10006 -10.09190 -10.08963
 Alpha  occ. eigenvalues --  -10.08826 -10.08332 -10.07453 -10.06988 -10.05514
 Alpha  occ. eigenvalues --  -10.05464 -10.04086 -10.03779 -10.02975  -0.96835
 Alpha  occ. eigenvalues --   -0.86553  -0.82459  -0.74765  -0.72473  -0.69424
 Alpha  occ. eigenvalues --   -0.67451  -0.63459  -0.61619  -0.60689  -0.58880
 Alpha  occ. eigenvalues --   -0.58260  -0.52593  -0.51272  -0.48054  -0.46557
 Alpha  occ. eigenvalues --   -0.44802  -0.41580  -0.40487  -0.39977  -0.39051
 Alpha  occ. eigenvalues --   -0.37809  -0.36414  -0.35220  -0.33727  -0.33519
 Alpha  occ. eigenvalues --   -0.32336  -0.31886  -0.30999  -0.30215  -0.29771
 Alpha  occ. eigenvalues --   -0.29443  -0.28587  -0.28284  -0.28075  -0.26688
 Alpha  occ. eigenvalues --   -0.25873  -0.25047  -0.23925  -0.22424  -0.21938
 Alpha  occ. eigenvalues --   -0.21638  -0.20027  -0.15927  -0.14458  -0.13376
 Alpha  occ. eigenvalues --   -0.12863  -0.11528  -0.08818   0.04284
 Alpha virt. eigenvalues --    0.05958   0.06385   0.08302   0.08550   0.08952
 Alpha virt. eigenvalues --    0.09140   0.09584   0.10170   0.10493   0.10805
 Alpha virt. eigenvalues --    0.11434   0.11729   0.11999   0.12285   0.12448

  Beta  occ. eigenvalues --  -19.05087 -14.20879 -14.15866 -14.15242 -10.14073
  Beta  occ. eigenvalues --  -10.10028 -10.10027 -10.10009 -10.09185 -10.08935
  Beta  occ. eigenvalues --  -10.08825 -10.08328 -10.07482 -10.06958 -10.05511
  Beta  occ. eigenvalues --  -10.05505 -10.03917 -10.03515 -10.02755  -0.96822
  Beta  occ. eigenvalues --   -0.86324  -0.82253  -0.74491  -0.72221  -0.69355
  Beta  occ. eigenvalues --   -0.67319  -0.63132  -0.61321  -0.60663  -0.58773
  Beta  occ. eigenvalues --   -0.58172  -0.52500  -0.50833  -0.47886  -0.46364
  Beta  occ. eigenvalues --   -0.44695  -0.41455  -0.40424  -0.39856  -0.38929
  Beta  occ. eigenvalues --   -0.37748  -0.36317  -0.35092  -0.33658  -0.33442
  Beta  occ. eigenvalues --   -0.32286  -0.31709  -0.30881  -0.30060  -0.29690
  Beta  occ. eigenvalues --   -0.29113  -0.28406  -0.28211  -0.27964  -0.26541
  Beta  occ. eigenvalues --   -0.25730  -0.24932  -0.23821  -0.22339  -0.21538
  Beta  occ. eigenvalues --   -0.21178  -0.19173  -0.15739  -0.14171  -0.12716
  Beta  occ. eigenvalues --   -0.11932  -0.11370  -0.07854
  Beta virt. eigenvalues --    0.06195   0.06475   0.08415   0.08623   0.08911
  Beta virt. eigenvalues --    0.09038   0.09233   0.09615   0.10252   0.10572
  Beta virt. eigenvalues --    0.10820   0.11417   0.11715   0.11966   0.12282

 Mulliken charges and spin densities:
               1          2
     1  C    0.514296  -1.193568
     2  C   -0.875638   1.166586
     3  C   -0.039002  -0.372418
     4  N    0.114446   0.043963
     5  C    0.157080  -0.556644
     6  C   -0.017686   0.154793
     7  N   -0.233032   0.043431
     8  C    0.059219   0.033759
     9  N   -0.115829   0.084891
    10  C   -0.490272  -0.034303
    11  C    0.625149  -0.023163
    12  C   -0.355922   0.215588
    13  C   -0.756734  -0.075898
    14  C    0.456975   0.032384
    15  C   -0.451041   0.214544
    16  O   -0.083186  -0.001319
    17  C    0.369197   0.051260
    18  C   -0.637063  -0.027562
    19  C   -0.423622  -0.087090
    20  H   -0.201785   0.333857
    21  H   -0.180641   0.316976
    22  H    0.054464   0.095416
    23  H   -0.107985   0.289733
    24  H    0.144575   0.010652
    25  H    0.076191   0.084738
    26  H    0.074891   0.085348
    27  H    0.070962   0.056649
    28  H    0.161178   0.003610
    29  H    0.184843  -0.007601
    30  H    0.129102  -0.006957
    31  H    0.146976  -0.007021
    32  H    0.098531   0.011147
    33  H    0.147031   0.006688
    34  H    0.138412   0.013421
    35  H    0.117875   0.033423
    36  H    0.128046   0.010687
 Sum of Mulliken charges =  -1.00000   1.00000

 Dipole moment (field-independent basis, Debye):
    X=             -3.9343    Y=             -3.3438    Z=              0.9163  Tot=              5.2440
 Quadrupole moment (field-independent basis, Debye-Ang):
   XX=           -160.5538   YY=           -158.1126   ZZ=           -129.6352
   XY=              9.2950   XZ=              1.3067   YZ=             -2.8304

 Summary of Natural Population Analysis:

                                       Natural Population
                Natural  -----------------------------------------------
    Atom  No    Charge         Core      Valence    Rydberg      Total
 -----------------------------------------------------------------------
      C    1   -0.28641      0.99965     2.28073    0.00603     3.28641
      C    2   -0.12058      0.99960     2.11093    0.01005     3.12058
      C    3   -0.06918      0.99965     2.06041    0.00912     3.06918
      N    4   -0.23665      0.99964     2.72686    0.01014     3.73665
      C    5   -0.07159      0.99964     2.06219    0.00976     3.07159
      C    6    0.27729      0.99950     1.70955    0.01365     2.72271
      N    7   -0.28425      0.99968     2.77501    0.00956     3.78425
      C    8    0.14359      0.99967     1.83766    0.01908     2.85641
      N    9   -0.24577      0.99969     2.73561    0.01047     3.74577
      C   10    0.08255      0.99949     1.90181    0.01615     2.91745
      C   11   -0.07294      0.99947     2.06561    0.00786     3.07294
      C   12   -0.06445      0.99948     2.05657    0.00840     3.06445
      C   13    0.13253      0.99935     1.85563    0.01249     2.86747
      C   14   -0.08584      0.99951     2.07800    0.00832     3.08584
      C   15   -0.06200      0.99954     2.05352    0.00894     3.06200
      O   16   -0.28154      0.99984     3.27002    0.01168     4.28154
      C   17    0.17011      0.99943     1.81835    0.01210     2.82989
      C   18   -0.26091      0.99951     2.25498    0.00642     3.26091
      C   19   -0.30444      0.99962     2.29947    0.00536     3.30444
      H   20    0.09949      0.00000     0.39948    0.00103     0.40051
      H   21    0.09909      0.00000     0.39994    0.00097     0.40091
      H   22    0.09879      0.00000     0.40016    0.00105     0.40121
      H   23    0.09502      0.00000     0.40399    0.00099     0.40498
      H   24    0.09178      0.00000     0.40674    0.00148     0.40822
      H   25    0.09635      0.00000     0.40184    0.00182     0.40365
      H   26    0.09401      0.00000     0.40489    0.00110     0.40599
      H   27    0.09111      0.00000     0.40759    0.00130     0.40889
      H   28    0.07146      0.00000     0.42724    0.00130     0.42854
      H   29    0.09841      0.00000     0.39968    0.00191     0.40159
      H   30    0.09556      0.00000     0.40324    0.00120     0.40444
      H   31    0.09627      0.00000     0.40213    0.00160     0.40373
      H   32    0.09420      0.00000     0.40488    0.00091     0.40580
      H   33    0.11031      0.00000     0.38867    0.00102     0.38969
      H   34    0.10373      0.00000     0.39474    0.00153     0.39627
      H   35    0.10486      0.00000     0.39360    0.00154     0.39514
      H   36    0.10003      0.00000     0.39902    0.00095     0.39997
 =======================================================================
   * Total *    0.00000     18.99196    48.79076    0.21728    68.00000

 Normal termination of Gaussian 16 at Sun Dec 13 21:32:34 2020.
