 Gaussian 16, Revision A.03,

 -----------------------------------------------------------
 # opt freq B3LYP/6-31G(d) empiricaldispersion=gd3bj scf=xqc
 -----------------------------------------------------------

 ------------------------------
 CID_129802049_JID_138_neutraal
 ------------------------------
 Symbolic Z-matrix:
 Charge =  0 Multiplicity = 1

 SCF Done:  E(RB3LYP) =  -463.707391199     A.U. after   14 cycles
 SCF Done:  E(RB3LYP) =  -463.709577081     A.U. after   13 cycles
 SCF Done:  E(RB3LYP) =  -463.707993144     A.U. after   14 cycles
 SCF Done:  E(RB3LYP) =  -463.710648935     A.U. after   13 cycles
 SCF Done:  E(RB3LYP) =  -463.710751402     A.U. after   13 cycles
 SCF Done:  E(RB3LYP) =  -463.710941210     A.U. after   11 cycles
 SCF Done:  E(RB3LYP) =  -463.711035682     A.U. after   13 cycles
 SCF Done:  E(RB3LYP) =  -463.711099727     A.U. after   14 cycles
 SCF Done:  E(RB3LYP) =  -463.711377107     A.U. after   14 cycles
 SCF Done:  E(RB3LYP) =  -463.479163271     A.U. after   15 cycles
 SCF Done:  E(RB3LYP) =  -463.714916952     A.U. after    8 cycles
 SCF Done:  E(RB3LYP) =  -463.714917177     A.U. after    9 cycles
 SCF Done:  E(RB3LYP) =  -463.714917311     A.U. after    8 cycles
 SCF Done:  E(RB3LYP) =  -463.714917440     A.U. after    8 cycles
 SCF Done:  E(RB3LYP) =  -463.714917472     A.U. after    7 cycles
 Optimization completed.
    -- Stationary point found.

 1\1\GINC-NODE220\FOpt\RB3LYP\6-31G(d)\C8H14O2\VSC10255\08-Dec-2020\0\\
 # opt freq B3LYP/6-31G(d) empiricaldispersion=gd3bj scf=xqc\\CID_12980
 2049_JID_138_neutraal\\0,1\C,0.9341236483,-0.1681150742,0.0110289973\C
 ,0.782532031,1.3428797941,-0.1391666313\O,1.493939103,1.9121529115,-1.
 2324400647\C,2.9080795587,2.116070891,-1.1572181176\C,3.3281446197,2.9
 829058235,0.0470080233\C,3.5097931858,2.358520871,1.4107427734\O,3.455
 6624083,1.1801806041,1.6906645513\C,3.7381682418,0.8646922532,-1.32129
 66446\C,4.3654190342,0.5686214968,-2.4616494767\C,5.2003770526,-0.6560

 Normal termination of Gaussian 16 at Tue Dec  8 10:41:59 2020.

 --------------------------------------------------------------------
 #N Geom=AllCheck Guess=TCheck SCRF=Check GenChk RB3LYP/6-31G(d) Freq
 --------------------------------------------------------------------

 Structure from the checkpoint file:  "JID_138.chk"
 ------------------------------
 CID_129802049_JID_138_neutraal
 ------------------------------
 Charge =  0 Multiplicity = 1

 SCF Done:  E(RB3LYP) =  -463.714917472     A.U. after    1 cycles

  Exact polarizability: 110.602  -2.506  80.478   1.022   4.650  81.595
 Approx polarizability: 143.941  -3.536 106.552   4.426   6.130 126.705

                      1                      2                      3
                      A                      A                      A
 Frequencies --     31.0936                46.7993                93.7100
 Red. masses --      3.0807                 2.5056                 5.0594
 Frc consts  --      0.0018                 0.0032                 0.0262
 IR Inten    --      1.7060                 3.7919                 4.4616

                      4                      5                      6
                      A                      A                      A
 Frequencies --    127.4832               136.2459               146.7268
 Red. masses --      1.9414                 2.0293                 2.1383
 Frc consts  --      0.0186                 0.0222                 0.0271
 IR Inten    --      1.2487                 2.6372                 1.8481

                      7                      8                      9
                      A                      A                      A
 Frequencies --    169.9934               206.7034               235.7464
 Red. masses --      2.9260                 1.3255                 2.7932
 Frc consts  --      0.0498                 0.0334                 0.0915
 IR Inten    --      3.0607                 1.1954                 2.6822

                     10                     11                     12
                      A                      A                      A
 Frequencies --    269.5790               285.2973               345.3361
 Red. masses --      2.1122                 1.6854                 3.0218
 Frc consts  --      0.0904                 0.0808                 0.2123
 IR Inten    --      0.9038                 0.2928                 1.9962

                     13                     14                     15
                      A                      A                      A
 Frequencies --    383.9469               436.0385               486.4228
 Red. masses --      2.6372                 3.3095                 3.0384
 Frc consts  --      0.2291                 0.3707                 0.4236
 IR Inten    --      1.8376                 7.2668                17.0103

                     16                     17                     18
                      A                      A                      A
 Frequencies --    566.1759               701.0616               774.1415
 Red. masses --      2.9407                 1.7257                 2.5920
 Frc consts  --      0.5554                 0.4997                 0.9152
 IR Inten    --      7.8683                 6.4184                 3.4885

                     19                     20                     21
                      A                      A                      A
 Frequencies --    806.2252               824.5956               839.2360
 Red. masses --      1.7311                 1.4445                 2.2156
 Frc consts  --      0.6630                 0.5787                 0.9194
 IR Inten    --      3.4169                 3.0045                 8.6655

                     22                     23                     24
                      A                      A                      A
 Frequencies --    885.3998               956.7139               960.8247
 Red. masses --      2.7858                 1.5917                 2.1558
 Frc consts  --      1.2867                 0.8584                 1.1726
 IR Inten    --      5.7128                19.4597                11.9912

                     25                     26                     27
                      A                      A                      A
 Frequencies --   1007.6990              1021.1428              1062.1094
 Red. masses --      2.1440                 1.0867                 2.3346
 Frc consts  --      1.2828                 0.6676                 1.5517
 IR Inten    --     17.0714                34.6107                16.3093

                     28                     29                     30
                      A                      A                      A
 Frequencies --   1080.4419              1106.7666              1123.8072
 Red. masses --      1.5404                 2.3609                 2.1414
 Frc consts  --      1.0594                 1.7039                 1.5934
 IR Inten    --      0.4130                38.8227                 0.8623

                     31                     32                     33
                      A                      A                      A
 Frequencies --   1152.3613              1171.7207              1211.9551
 Red. masses --      3.1871                 2.8118                 1.7701
 Frc consts  --      2.4936                 2.2745                 1.5319
 IR Inten    --    150.9400                17.6020                20.6279

                     34                     35                     36
                      A                      A                      A
 Frequencies --   1270.2871              1282.9083              1346.0754
 Red. masses --      1.2479                 1.3192                 1.2965
 Frc consts  --      1.1864                 1.2792                 1.3840
 IR Inten    --     29.6388                10.0697                 7.2222

                     37                     38                     39
                      A                      A                      A
 Frequencies --   1349.9388              1365.8509              1407.9926
 Red. masses --      1.1248                 1.6188                 1.2992
 Frc consts  --      1.2077                 1.7793                 1.5175
 IR Inten    --     11.6403                24.4146                 1.0282

                     40                     41                     42
                      A                      A                      A
 Frequencies --   1417.5348              1426.8001              1440.5847
 Red. masses --      1.2517                 1.2290                 1.2521
 Frc consts  --      1.4818                 1.4741                 1.5309
 IR Inten    --      5.9493                 4.2416                12.1294

                     43                     44                     45
                      A                      A                      A
 Frequencies --   1442.9827              1446.6543              1459.2413
 Red. masses --      1.2834                 1.1691                 1.1239
 Frc consts  --      1.5744                 1.4415                 1.4101
 IR Inten    --     11.0031                19.7640                21.5336

                     46                     47                     48
                      A                      A                      A
 Frequencies --   1510.0854              1516.1366              1520.5259
 Red. masses --      1.0453                 1.0471                 1.0553
 Frc consts  --      1.4044                 1.4182                 1.4375
 IR Inten    --      6.0361                 2.8830                11.1134

                     49                     50                     51
                      A                      A                      A
 Frequencies --   1527.9069              1545.0649              1752.7737
 Red. masses --      1.0563                 1.0736                 5.8460
 Frc consts  --      1.4529                 1.5101                10.5817
 IR Inten    --      3.6959                 3.3662                17.1182

                     52                     53                     54
                      A                      A                      A
 Frequencies --   1830.1346              2890.5609              3019.7630
 Red. masses --      9.4619                 1.0830                 1.0651
 Frc consts  --     18.6722                 5.3315                 5.7224
 IR Inten    --    123.1830               167.6421                12.2550

                     55                     56                     57
                      A                      A                      A
 Frequencies --   3032.7447              3033.5502              3055.6453
 Red. masses --      1.0401                 1.0615                 1.0840
 Frc consts  --      5.6365                 5.7551                 5.9635
 IR Inten    --     63.2456                36.2945                36.5241

                     58                     59                     60
                      A                      A                      A
 Frequencies --   3055.9372              3056.9185              3079.1716
 Red. masses --      1.0893                 1.0487                 1.0999
 Frc consts  --      5.9934                 5.7739                 6.1445
 IR Inten    --     19.8812                 5.3767                23.9658

                     61                     62                     63
                      A                      A                      A
 Frequencies --   3084.1787              3117.8344              3122.4546
 Red. masses --      1.0984                 1.0959                 1.0989
 Frc consts  --      6.1559                 6.2765                 6.3126
 IR Inten    --     44.2386                 2.4729                37.4357

                     64                     65                     66
                      A                      A                      A
 Frequencies --   3135.7010              3167.5510              3219.4817
 Red. masses --      1.0928                 1.0999                 1.0888
 Frc consts  --      6.3306                 6.5021                 6.6493
 IR Inten    --     41.0620                20.8368                 6.5825

 - Thermochemistry -
 -------------------
 Temperature   298.150 Kelvin.  Pressure   1.00000 Atm.
 Atom     1 has atomic number  6 and mass  12.00000

 Molecular mass:   142.09938 amu.
 Principal axes and moments of inertia in atomic units:
                           1         2         3
     Eigenvalues --  1221.617681985.343652313.78302
           X            0.99977   0.01644  -0.01374
           Y           -0.01471   0.99296   0.11753
           Z            0.01557  -0.11731   0.99297
 This molecule is an asymmetric top.
 Rotational symmetry number  1.
 Warning -- assumption of classical behavior for rotation
           may cause significant error
 Rotational temperatures (Kelvin)      0.07090     0.04363     0.03743
 Rotational constants (GHZ):           1.47734     0.90903     0.78000
 Zero-point vibrational energy     547796.8 (Joules/Mol)
                                  130.92658 (Kcal/Mol)
 Warning -- explicit consideration of  16 degrees of freedom as
           vibrations may cause significant error
 Vibrational temperatures:     44.74    67.33   134.83   183.42   196.03
          (Kelvin)            211.11   244.58   297.40   339.19   387.86
                              410.48   496.86   552.41   627.36   699.85
                              814.60  1008.67  1113.82  1159.98  1186.41
                             1207.47  1273.89  1376.50  1382.41  1449.85
                             1469.20  1528.14  1554.51  1592.39  1616.91
                             1657.99  1685.84  1743.73  1827.66  1845.82
                             1936.70  1942.26  1965.15  2025.79  2039.52
                             2052.85  2072.68  2076.13  2081.41  2099.52
                             2172.68  2181.38  2187.70  2198.32  2223.00
                             2521.85  2633.16  4158.87  4344.77  4363.44
                             4364.60  4396.39  4396.81  4398.22  4430.24
                             4437.45  4485.87  4492.52  4511.57  4557.40
                             4632.12

 Zero-point correction=                           0.208645 (Hartree/Particle)
 Thermal correction to Energy=                    0.220795
 Thermal correction to Enthalpy=                  0.221739
 Thermal correction to Gibbs Free Energy=         0.169594
 Sum of electronic and zero-point Energies=           -463.506273
 Sum of electronic and thermal Energies=              -463.494123
 Sum of electronic and thermal Enthalpies=            -463.493179
 Sum of electronic and thermal Free Energies=         -463.545324

                     E (Thermal)             CV                S
                      KCal/Mol        Cal/Mol-Kelvin    Cal/Mol-Kelvin
 Total                  138.551             42.427            109.749
 Electronic               0.000              0.000              0.000
 Translational            0.889              2.981             40.765
 Rotational               0.889              2.981             30.107
 Vibrational            136.773             36.465             38.876
 Vibration     1          0.594              1.983              5.758
 Vibration     2          0.595              1.979              4.948
 Vibration     3          0.603              1.954              3.581
 Vibration     4          0.611              1.926              2.984
 Vibration     5          0.614              1.917              2.856
 Vibration     6          0.617              1.906              2.714
 Vibration     7          0.625              1.879              2.436
 Vibration     8          0.641              1.830              2.073
 Vibration     9          0.655              1.786              1.835
 Vibration    10          0.674              1.729              1.599
 Vibration    11          0.683              1.701              1.502
 Vibration    12          0.724              1.585              1.187
 Vibration    13          0.753              1.504              1.024
 Vibration    14          0.796              1.392              0.839
 Vibration    15          0.842              1.280              0.693
 Vibration    16          0.922              1.104              0.512

 Optimization completed.
    -- Stationary point found.

 1\1\GINC-NODE220\Freq\RB3LYP\6-31G(d)\C8H14O2\VSC10255\08-Dec-2020\0\\
 #N Geom=AllCheck Guess=TCheck SCRF=Check GenChk RB3LYP/6-31G(d) Freq\\
 CID_129802049_JID_138_neutraal\\0,1\C,0.9341236483,-0.1681150742,0.011
 0289973\C,0.782532031,1.3428797941,-0.1391666313\O,1.493939103,1.91215
 29115,-1.2324400647\C,2.9080795587,2.116070891,-1.1572181176\C,3.32814
 46197,2.9829058235,0.0470080233\C,3.5097931858,2.358520871,1.410742773
 4\O,3.4556624083,1.1801806041,1.6906645513\C,3.7381682418,0.8646922532
 ,-1.3212966446\C,4.3654190342,0.5686214968,-2.4616494767\C,5.200377052

 Normal termination of Gaussian 16 at Tue Dec  8 10:50:35 2020.

 ----------------------------------------------------------------------
 # B3LYP/6-311++G(d,p) empiricaldispersion=gd3bj scf=xqc pop=npa geom=c
 heck
 ----------------------------------------------------------------------

 --------------------------------------
 CID_129802049_JID_138_Energie_neutraal
 --------------------------------------
 Structure from the checkpoint file:  "JID_138.chk"
 Charge =  0 Multiplicity = 1

 SCF Done:  E(RB3LYP) =  -463.853379963     A.U. after   14 cycles
 Normal termination of Gaussian 16 at Tue Dec  8 10:55:54 2020.

 ----------------------------------------------------------------------
 # B3LYP/6-311++G(d,p) empiricaldispersion=gd3bj scf=xqc pop=npa geom=c
 heck
 ----------------------------------------------------------------------

 ------------------------------------
 CID_129802049_JID_138_Energie_kation
 ------------------------------------
 Structure from the checkpoint file:  "JID_138.chk"
 Charge =  1 Multiplicity = 2

 SCF Done:  E(UB3LYP) =  -463.531092328     A.U. after   25 cycles
 Normal termination of Gaussian 16 at Tue Dec  8 11:02:07 2020.
 Gaussian 16:  ES64L-G16RevA.03 25-Dec-2016

 -----------------------------------
 CID_129802049_JID_138_Energie_anion
 -----------------------------------
 Structure from the checkpoint file:  "JID_138.chk"
 Charge = -1 Multiplicity = 2

                         Standard orientation:
 ---------------------------------------------------------------------
 Center     Atomic      Atomic             Coordinates (Angstroms)
 Number     Number       Type             X           Y           Z
 ---------------------------------------------------------------------
      1          6           0        1.112724    2.015305    1.008842
      2          6           0        1.689648    1.406574   -0.266011
      3          8           0        0.723003    0.998124   -1.227356
      4          6           0       -0.018208   -0.212639   -1.049328
      5          6           0        0.884140   -1.452262   -0.884644
      6          6           0        1.464074   -1.800372    0.466327
      7          8           0        1.231945   -1.258229    1.525557
      8          6           0       -1.127998   -0.131596   -0.027704
      9          6           0       -2.410812   -0.009313   -0.375471
     10          6           0       -3.558936    0.080296    0.585843
     11          1           0        0.344419    2.753711    0.758032
     12          1           0        1.910061    2.518840    1.569093
     13          1           0        0.677722    1.253841    1.658270
     14          1           0        2.278637    2.161818   -0.798113
     15          1           0        2.374531    0.583616   -0.018561
     16          1           0       -0.495833   -0.326755   -2.029508
     17          1           0        0.311448   -2.342795   -1.189213
     18          1           0        1.719025   -1.393555   -1.598474
     19          1           0        2.159304   -2.670803    0.430678
     20          1           0       -0.852473   -0.186683    1.020155
     21          1           0       -2.667178    0.036319   -1.436116
     22          1           0       -4.111105    1.020429    0.453958
     23          1           0       -4.279636   -0.732316    0.422716
     24          1           0       -3.216305    0.029212    1.624363
 ---------------------------------------------------------------------

 SCF Done:  E(UB3LYP) =  -463.838664640     A.U. after   33 cycles
 SCF Done:  E(UB3LYP) =  -463.838664640     a.u. after    1 cycles

 The electronic state is 2-A.
 Alpha  occ. eigenvalues --  -19.01064 -18.99338 -10.12888 -10.11573 -10.10719
 Alpha  occ. eigenvalues --  -10.06381 -10.06334 -10.06104 -10.05293 -10.05116
 Alpha  occ. eigenvalues --   -0.92732  -0.91838  -0.69940  -0.66328  -0.63805
 Alpha  occ. eigenvalues --   -0.59605  -0.54204  -0.49046  -0.45216  -0.43367
 Alpha  occ. eigenvalues --   -0.39382  -0.37957  -0.34785  -0.33855  -0.32205
 Alpha  occ. eigenvalues --   -0.31934  -0.31809  -0.30767  -0.29425  -0.29041
 Alpha  occ. eigenvalues --   -0.27478  -0.25980  -0.25396  -0.23920  -0.23625
 Alpha  occ. eigenvalues --   -0.19676  -0.15574  -0.14190  -0.13431   0.05071
 Alpha virt. eigenvalues --    0.06995   0.07816   0.08169   0.08898   0.09875
 Alpha virt. eigenvalues --    0.09926   0.10739   0.11255   0.11387   0.11875
 Alpha virt. eigenvalues --    0.12520   0.13217   0.13750   0.14741   0.15907

  Beta  occ. eigenvalues --  -19.01062 -18.99164 -10.12688 -10.11565 -10.10702
  Beta  occ. eigenvalues --  -10.06365 -10.06320 -10.06073 -10.05290 -10.05114
  Beta  occ. eigenvalues --   -0.92452  -0.91765  -0.69904  -0.66262  -0.63727
  Beta  occ. eigenvalues --   -0.59500  -0.54131  -0.48874  -0.45119  -0.43134
  Beta  occ. eigenvalues --   -0.39305  -0.37882  -0.34658  -0.33749  -0.32124
  Beta  occ. eigenvalues --   -0.31822  -0.31608  -0.30721  -0.29270  -0.28973
  Beta  occ. eigenvalues --   -0.27290  -0.25922  -0.25092  -0.23618  -0.23523
  Beta  occ. eigenvalues --   -0.19611  -0.15538  -0.14163  -0.13284
  Beta virt. eigenvalues --    0.07432   0.07974   0.08601   0.09428   0.09570
  Beta virt. eigenvalues --    0.10297   0.10570   0.11152   0.11299   0.11627
  Beta virt. eigenvalues --    0.12204   0.13022   0.13542   0.14143   0.14756

 Mulliken charges and spin densities:
               1          2
     1  C   -0.408518  -0.105339
     2  C    0.138624  -0.301184
     3  O   -0.085385   0.006224
     4  C   -1.367856   1.522975
     5  C    1.474114  -2.027596
     6  C   -0.030431   0.118122
     7  O   -0.274362   0.038052
     8  C    0.468486  -0.420307
     9  C   -0.499379   0.409690
    10  C    1.696540  -2.430002
    11  H    0.133386   0.005856
    12  H    0.085976   0.019919
    13  H    0.131430   0.042611
    14  H    0.066861   0.088420
    15  H    0.013306   0.125072
    16  H   -0.225740   0.443741
    17  H   -0.555299   0.740578
    18  H   -0.238674   0.433691
    19  H   -0.660250   0.767071
    20  H    0.157180  -0.054078
    21  H   -0.365841   0.497807
    22  H   -0.191367   0.331217
    23  H   -0.325950   0.476611
    24  H   -0.136853   0.270848
 Sum of Mulliken charges =  -1.00000   1.00000

 Dipole moment (field-independent basis, Debye):
    X=              1.7596    Y=              5.0956    Z=              1.9075  Tot=              5.7184
 Quadrupole moment (field-independent basis, Debye-Ang):
   XX=           -119.3137   YY=           -100.0920   ZZ=            -94.5579
   XY=              5.6408   XZ=             -0.0271   YZ=             -2.7316

 Summary of Natural Population Analysis:

                                       Natural Population
                Natural  -----------------------------------------------
    Atom  No    Charge         Core      Valence    Rydberg      Total
 -----------------------------------------------------------------------
      C    1   -0.30171      0.99966     2.29795    0.00411     3.30171
      C    2   -0.00957      0.99958     1.99748    0.01251     3.00957
      O    3   -0.30321      0.99988     3.29431    0.00902     4.30321
      C    4    0.05408      0.99951     1.92768    0.01874     2.94592
      C    5   -0.25804      0.99958     2.24836    0.01009     3.25804
      C    6    0.24970      0.99973     1.72912    0.02145     2.75030
      O    7   -0.27560      0.99988     3.26867    0.00705     4.27560
      C    8   -0.11319      0.99947     2.10222    0.01150     3.11319
      C    9   -0.07708      0.99952     2.06835    0.00921     3.07708
      C   10   -0.30010      0.99965     2.29444    0.00601     3.30010
      H   11    0.09741      0.00000     0.40151    0.00108     0.40259
      H   12    0.09389      0.00000     0.40531    0.00081     0.40611
      H   13    0.10833      0.00000     0.39036    0.00131     0.39167
      H   14    0.08228      0.00000     0.41658    0.00114     0.41772
      H   15    0.08272      0.00000     0.41582    0.00146     0.41728
      H   16    0.09371      0.00000     0.40368    0.00261     0.40629
      H   17    0.12409      0.00000     0.37048    0.00543     0.37591
      H   18    0.11339      0.00000     0.38526    0.00135     0.38661
      H   19    0.04392      0.00000     0.45260    0.00348     0.45608
      H   20    0.10154      0.00000     0.39615    0.00230     0.39846
      H   21    0.08939      0.00000     0.40899    0.00162     0.41061
      H   22    0.10050      0.00000     0.39839    0.00111     0.39950
      H   23    0.10411      0.00000     0.39424    0.00165     0.39589
      H   24    0.09943      0.00000     0.39963    0.00094     0.40057
 =======================================================================
   * Total *    0.00000      9.99646    28.86757    0.13597    39.00000

 Normal termination of Gaussian 16 at Tue Dec  8 11:09:42 2020.
