 Gaussian 16, Revision A.03,

 -----------------------------------------------------------
 # opt freq B3LYP/6-31G(d) empiricaldispersion=gd3bj scf=xqc
 -----------------------------------------------------------

 -------------------------------
 CID_81725783_JID_10537_neutraal
 -------------------------------
 Symbolic Z-matrix:
 Charge =  0 Multiplicity = 1

 SCF Done:  E(RB3LYP) =  -931.053128441     A.U. after   14 cycles
 SCF Done:  E(RB3LYP) =  -931.062394325     A.U. after   12 cycles
 SCF Done:  E(RB3LYP) =  -931.064749675     A.U. after   12 cycles
 SCF Done:  E(RB3LYP) =  -931.065653568     A.U. after   12 cycles
 SCF Done:  E(RB3LYP) =  -931.066118663     A.U. after   12 cycles
 SCF Done:  E(RB3LYP) =  -931.066346328     A.U. after   12 cycles
 SCF Done:  E(RB3LYP) =  -931.066437792     A.U. after   11 cycles
 SCF Done:  E(RB3LYP) =  -931.066524544     A.U. after   12 cycles
 SCF Done:  E(RB3LYP) =  -931.066570303     A.U. after   10 cycles
 SCF Done:  E(RB3LYP) =  -931.066603519     A.U. after   11 cycles
 SCF Done:  E(RB3LYP) =  -931.068303429     A.U. after   10 cycles
 SCF Done:  E(RB3LYP) =  -931.068305516     A.U. after   10 cycles
 SCF Done:  E(RB3LYP) =  -931.068305524     A.U. after    7 cycles
 SCF Done:  E(RB3LYP) =  -931.068305561     A.U. after    7 cycles
 SCF Done:  E(RB3LYP) =  -931.068305579     A.U. after    7 cycles
 SCF Done:  E(RB3LYP) =  -931.068305587     A.U. after    6 cycles
 Optimization completed.
    -- Stationary point found.
 Normal termination of Gaussian 16 at Sat Dec 12 16:16:58 2020.

 --------------------------------------------------------------------
 #N Geom=AllCheck Guess=TCheck SCRF=Check GenChk RB3LYP/6-31G(d) Freq
 --------------------------------------------------------------------

 Structure from the checkpoint file:  "JID_10537.chk"
 -------------------------------
 CID_81725783_JID_10537_neutraal
 -------------------------------
 Charge =  0 Multiplicity = 1

 SCF Done:  E(RB3LYP) =  -931.068305587     A.U. after    1 cycles

  Exact polarizability: 203.740   9.049 184.821  13.640  -5.844 131.748
 Approx polarizability: 272.122   8.152 294.961  19.088 -15.861 211.956

                      1                      2                      3
                      A                      A                      A
 Frequencies --     17.6206                21.3025                35.7411
 Red. masses --      4.6874                 4.6533                 2.5802
 Frc consts  --      0.0009                 0.0012                 0.0019
 IR Inten    --      0.3515                 0.8672                 0.1838

                      4                      5                      6
                      A                      A                      A
 Frequencies --     51.0470                55.3546                89.0883
 Red. masses --      3.9601                 3.5651                 3.4051
 Frc consts  --      0.0061                 0.0064                 0.0159
 IR Inten    --      0.2953                 0.0295                 0.3007

                      7                      8                      9
                      A                      A                      A
 Frequencies --    111.7728               115.4535               132.9732
 Red. masses --      3.0573                 1.3312                 1.5725
 Frc consts  --      0.0225                 0.0105                 0.0164
 IR Inten    --      6.7544                 0.6157                 1.1999

                     10                     11                     12
                      A                      A                      A
 Frequencies --    143.7205               157.4077               170.8653
 Red. masses --      2.6028                 1.5959                 2.8739
 Frc consts  --      0.0317                 0.0233                 0.0494
 IR Inten    --      5.2488                 0.4622                 2.9823

                     13                     14                     15
                      A                      A                      A
 Frequencies --    177.3800               181.8169               222.7559
 Red. masses --      1.3019                 1.8550                 4.9502
 Frc consts  --      0.0241                 0.0361                 0.1447
 IR Inten    --      0.2782                 1.1659                 3.9569

                     16                     17                     18
                      A                      A                      A
 Frequencies --    247.0901               256.4470               268.1244
 Red. masses --      5.9959                 2.1142                 1.6476
 Frc consts  --      0.2157                 0.0819                 0.0698
 IR Inten    --      3.5662                 7.2483                 0.8977

                     19                     20                     21
                      A                      A                      A
 Frequencies --    283.6786               311.7539               326.6317
 Red. masses --      2.2203                 3.1413                 4.2195
 Frc consts  --      0.1053                 0.1799                 0.2652
 IR Inten    --      1.2916                 0.7865                 8.1957

                     22                     23                     24
                      A                      A                      A
 Frequencies --    338.9376               385.2601               420.4405
 Red. masses --      3.8613                 4.3641                 3.7238
 Frc consts  --      0.2613                 0.3816                 0.3878
 IR Inten    --      0.1395                 2.6565                 4.1716

                     25                     26                     27
                      A                      A                      A
 Frequencies --    449.7431               485.6284               523.2660
 Red. masses --      2.8701                 4.6596                 5.5558
 Frc consts  --      0.3420                 0.6475                 0.8963
 IR Inten    --      8.4069                23.0578                 7.9922

                     28                     29                     30
                      A                      A                      A
 Frequencies --    562.0072               582.3418               590.6607
 Red. masses --      2.3183                 4.2528                 4.3002
 Frc consts  --      0.4314                 0.8497                 0.8839
 IR Inten    --     34.8363                12.5159                 1.2502

                     31                     32                     33
                      A                      A                      A
 Frequencies --    603.1075               635.6034               644.5508
 Red. masses --      3.2657                 6.7866                 2.3750
 Frc consts  --      0.6999                 1.6154                 0.5813
 IR Inten    --     37.6742                 0.4251                32.8492

                     34                     35                     36
                      A                      A                      A
 Frequencies --    683.7422               694.7119               730.1833
 Red. masses --      4.2862                 5.7792                 2.7815
 Frc consts  --      1.1806                 1.6433                 0.8738
 IR Inten    --     11.7623                 1.1829                20.5813

                     37                     38                     39
                      A                      A                      A
 Frequencies --    753.7920               767.3760               780.3054
 Red. masses --      2.0900                 3.2433                 4.8210
 Frc consts  --      0.6997                 1.1253                 1.7295
 IR Inten    --     66.8613                68.2743                14.6877

                     40                     41                     42
                      A                      A                      A
 Frequencies --    804.2490               815.6647               885.8498
 Red. masses --      8.1371                 1.1494                 4.8469
 Frc consts  --      3.1010                 0.4506                 2.2410
 IR Inten    --     30.4002                 5.8071                 9.6046

                     43                     44                     45
                      A                      A                      A
 Frequencies --    928.7575               935.3965               964.7353
 Red. masses --      4.9193                 1.9035                 2.6228
 Frc consts  --      2.5001                 0.9813                 1.4383
 IR Inten    --      8.4752                 4.5523                 0.3665

                     46                     47                     48
                      A                      A                      A
 Frequencies --    980.9827              1011.2649              1019.7440
 Red. masses --      1.4408                 4.3285                 2.1537
 Frc consts  --      0.8169                 2.6081                 1.3195
 IR Inten    --      0.7471                 8.3731                 2.3517

                     49                     50                     51
                      A                      A                      A
 Frequencies --   1028.7873              1040.2941              1078.0808
 Red. masses --      6.1203                 1.7761                 1.5340
 Frc consts  --      3.8166                 1.1325                 1.0505
 IR Inten    --     52.6968                 3.6385                 1.2341

                     52                     53                     54
                      A                      A                      A
 Frequencies --   1082.1588              1085.6613              1103.7569
 Red. masses --      1.8130                 2.1190                 3.0960
 Frc consts  --      1.2509                 1.4715                 2.2223
 IR Inten    --      7.9396                15.2706                14.5951

                     55                     56                     57
                      A                      A                      A
 Frequencies --   1145.0638              1151.0321              1169.7918
 Red. masses --      1.8946                 3.6167                 2.8666
 Frc consts  --      1.4636                 2.8232                 2.3112
 IR Inten    --    107.3397                69.3247                72.7615

                     58                     59                     60
                      A                      A                      A
 Frequencies --   1189.7644              1208.0195              1235.8526
 Red. masses --      1.2622                 1.8271                 2.1002
 Frc consts  --      1.0527                 1.5709                 1.8899
 IR Inten    --      4.5956                27.4565                30.8082

                     61                     62                     63
                      A                      A                      A
 Frequencies --   1239.5996              1280.3910              1300.9250
 Red. masses --      3.7838                 2.3411                 1.7549
 Frc consts  --      3.4256                 2.2613                 1.7499
 IR Inten    --     25.7352                81.8151                71.0958

                     64                     65                     66
                      A                      A                      A
 Frequencies --   1310.8489              1320.7855              1359.3978
 Red. masses --      4.0596                 1.2524                 2.2727
 Frc consts  --      4.1099                 1.2872                 2.4745
 IR Inten    --      4.6008                43.2798                11.4892

                     67                     68                     69
                      A                      A                      A
 Frequencies --   1369.7789              1402.1123              1404.5128
 Red. masses --      2.8373                 1.4951                 1.3333
 Frc consts  --      3.1366                 1.7317                 1.5496
 IR Inten    --     42.1917                38.4724                34.8593

                     70                     71                     72
                      A                      A                      A
 Frequencies --   1430.4150              1439.0193              1443.4622
 Red. masses --      1.2983                 1.2843                 1.2963
 Frc consts  --      1.5651                 1.5669                 1.5914
 IR Inten    --      2.9700                 1.4191                16.9118

                     73                     74                     75
                      A                      A                      A
 Frequencies --   1454.0195              1478.5515              1480.5134
 Red. masses --      1.5980                 1.7602                 2.6591
 Frc consts  --      1.9905                 2.2671                 3.4341
 IR Inten    --     21.7217                15.2641                80.6929

                     76                     77                     78
                      A                      A                      A
 Frequencies --   1494.0984              1499.2059              1506.6411
 Red. masses --      1.2117                 1.2193                 1.2579
 Frc consts  --      1.5936                 1.6146                 1.6824
 IR Inten    --     18.0812                 3.9623                 4.0749

                     79                     80                     81
                      A                      A                      A
 Frequencies --   1511.5776              1514.6199              1515.5169
 Red. masses --      1.1703                 1.1910                 1.0800
 Frc consts  --      1.5755                 1.6098                 1.4615
 IR Inten    --      5.3115                 3.3240                27.9547

                     82                     83                     84
                      A                      A                      A
 Frequencies --   1521.2958              1523.2307              1528.5668
 Red. masses --      1.0797                 1.0810                 1.0479
 Frc consts  --      1.4722                 1.4777                 1.4426
 IR Inten    --     17.5428                12.5189                 7.4826

                     85                     86                     87
                      A                      A                      A
 Frequencies --   1536.3265              1544.0303              1558.4955
 Red. masses --      1.0694                 2.1749                 1.1074
 Frc consts  --      1.4872                 3.0549                 1.5847
 IR Inten    --      6.4894               288.9618                12.1378

                     88                     89                     90
                      A                      A                      A
 Frequencies --   1560.5446              1575.3145              1628.4885
 Red. masses --      3.1707                 3.1982                 4.0227
 Frc consts  --      4.5494                 4.6762                 6.2855
 IR Inten    --      0.7684               125.1892                24.9359

                     91                     92                     93
                      A                      A                      A
 Frequencies --   1651.2686              1687.5910              2999.9154
 Red. masses --      5.4029                 7.8320                 1.0758
 Frc consts  --      8.6798                13.1419                 5.7044
 IR Inten    --    714.7527                47.1574                55.8412

                     94                     95                     96
                      A                      A                      A
 Frequencies --   3042.5315              3048.2367              3049.6988
 Red. masses --      1.0306                 1.0389                 1.0375
 Frc consts  --      5.6209                 5.6874                 5.6854
 IR Inten    --     44.8883                18.1742                29.8424

                     97                     98                     99
                      A                      A                      A
 Frequencies --   3053.1288              3071.7796              3100.1878
 Red. masses --      1.0408                 1.0685                 1.1009
 Frc consts  --      5.7163                 5.9403                 6.2339
 IR Inten    --     24.7178                40.5010                18.2487

                    100                    101                    102
                      A                      A                      A
 Frequencies --   3111.0447              3111.8027              3118.4599
 Red. masses --      1.1030                 1.1030                 1.0961
 Frc consts  --      6.2901                 6.2931                 6.2803
 IR Inten    --     28.2750                19.1168                 6.4876

                    103                    104                    105
                      A                      A                      A
 Frequencies --   3132.7054              3145.6847              3151.8254
 Red. masses --      1.1030                 1.0963                 1.0994
 Frc consts  --      6.3780                 6.3918                 6.4347
 IR Inten    --     30.3184                 5.5530                 8.4166

                    106                    107                    108
                      A                      A                      A
 Frequencies --   3152.9589              3158.4177              3160.1648
 Red. masses --      1.1044                 1.1024                 1.0892
 Frc consts  --      6.4687                 6.4791                 6.4086
 IR Inten    --     27.3555                 1.9804                 9.0966

                    109                    110                    111
                      A                      A                      A
 Frequencies --   3176.8467              3539.9431              3603.2926
 Red. masses --      1.0903                 1.0742                 1.0756
 Frc consts  --      6.4830                 7.9307                 8.2278
 IR Inten    --     35.1428                18.5560                21.5213

 - Thermochemistry -
 -------------------
 Temperature   298.150 Kelvin.  Pressure   1.00000 Atm.
 Atom     1 has atomic number  6 and mass  12.00000

 Molecular mass:   277.15388 amu.
 Principal axes and moments of inertia in atomic units:
                           1         2         3
     Eigenvalues --  3124.104969393.70720**********
           X            0.99977   0.01411   0.01600
           Y           -0.01382   0.99974  -0.01796
           Z           -0.01625   0.01773   0.99971
 This molecule is an asymmetric top.
 Rotational symmetry number  1.
 Warning -- assumption of classical behavior for rotation
           may cause significant error
 Rotational temperatures (Kelvin)      0.02772     0.00922     0.00839
 Rotational constants (GHZ):           0.57768     0.19212     0.17474
 Zero-point vibrational energy     854578.5 (Joules/Mol)
                                  204.24915 (Kcal/Mol)
 Warning -- explicit consideration of  31 degrees of freedom as
           vibrations may cause significant error
 Vibrational temperatures:     25.35    30.65    51.42    73.45    79.64
          (Kelvin)            128.18   160.82   166.11   191.32   206.78
                              226.47   245.84   255.21   261.59   320.50
                              355.51   368.97   385.77   408.15   448.54
                              469.95   487.66   554.30   604.92   647.08
                              698.71   752.86   808.60   837.86   849.83
                              867.74   914.49   927.36   983.75   999.54
                             1050.57  1084.54  1104.08  1122.69  1157.13
                             1173.56  1274.54  1336.27  1345.83  1388.04
                             1411.42  1454.98  1467.18  1480.20  1496.75
                             1551.12  1556.99  1562.02  1588.06  1647.49
                             1656.08  1683.07  1711.81  1738.07  1778.12
                             1783.51  1842.20  1871.74  1886.02  1900.32
                             1955.87  1970.81  2017.33  2020.78  2058.05
                             2070.43  2076.82  2092.01  2127.31  2130.13
                             2149.67  2157.02  2167.72  2174.82  2179.20
                             2180.49  2188.81  2191.59  2199.27  2210.43
                             2221.52  2242.33  2245.28  2266.53  2343.03
                             2375.81  2428.07  4316.21  4377.52  4385.73
                             4387.84  4392.77  4419.61  4460.48  4476.10
                             4477.19  4486.77  4507.26  4525.94  4534.77
                             4536.40  4544.26  4546.77  4570.77  5093.19
                             5184.33

 Zero-point correction=                           0.325492 (Hartree/Particle)
 Thermal correction to Energy=                    0.345940
 Thermal correction to Enthalpy=                  0.346884
 Thermal correction to Gibbs Free Energy=         0.273949
 Sum of electronic and zero-point Energies=           -930.742814
 Sum of electronic and thermal Energies=              -930.722365
 Sum of electronic and thermal Enthalpies=            -930.721421
 Sum of electronic and thermal Free Energies=         -930.794356

                     E (Thermal)             CV                S
                      KCal/Mol        Cal/Mol-Kelvin    Cal/Mol-Kelvin
 Total                  217.081             74.407            153.505
 Electronic               0.000              0.000              0.000
 Translational            0.889              2.981             42.757
 Rotational               0.889              2.981             34.071
 Vibrational            215.303             68.445             76.677
 Vibration     1          0.593              1.986              6.886
 Vibration     2          0.593              1.985              6.509
 Vibration     3          0.594              1.982              5.482
 Vibration     4          0.595              1.977              4.776
 Vibration     5          0.596              1.975              4.616
 Vibration     6          0.602              1.957              3.680
 Vibration     7          0.607              1.940              3.238
 Vibration     8          0.608              1.937              3.175
 Vibration     9          0.613              1.920              2.903
 Vibration    10          0.616              1.909              2.754
 Vibration    11          0.621              1.894              2.581
 Vibration    12          0.626              1.878              2.426
 Vibration    13          0.628              1.870              2.356
 Vibration    14          0.630              1.864              2.310
 Vibration    15          0.648              1.806              1.937
 Vibration    16          0.661              1.768              1.751
 Vibration    17          0.666              1.752              1.686
 Vibration    18          0.673              1.732              1.608
 Vibration    19          0.682              1.704              1.511
 Vibration    20          0.700              1.651              1.353
 Vibration    21          0.710              1.622              1.277
 Vibration    22          0.719              1.598              1.217
 Vibration    23          0.754              1.502              1.018
 Vibration    24          0.783              1.426              0.890
 Vibration    25          0.809              1.361              0.797
 Vibration    26          0.842              1.282              0.695
 Vibration    27          0.878              1.198              0.602
 Vibration    28          0.918              1.113              0.520
 Vibration    29          0.939              1.070              0.481
 Vibration    30          0.948              1.052              0.466
 Vibration    31          0.961              1.025              0.444

 Optimization completed.
    -- Stationary point found.
 Normal termination of Gaussian 16 at Sat Dec 12 16:36:05 2020.

 ----------------------------------------------------------------------
 # B3LYP/6-311++G(d,p) empiricaldispersion=gd3bj scf=xqc pop=npa geom=c
 heck
 ----------------------------------------------------------------------

 ---------------------------------------
 CID_81725783_JID_10537_Energie_neutraal
 ---------------------------------------
 Structure from the checkpoint file:  "JID_10537.chk"
 Charge =  0 Multiplicity = 1

 SCF Done:  E(RB3LYP) =  -931.323638353     A.U. after   15 cycles
 Normal termination of Gaussian 16 at Sat Dec 12 16:43:22 2020.

 ----------------------------------------------------------------------
 # B3LYP/6-311++G(d,p) empiricaldispersion=gd3bj scf=xqc pop=npa geom=c
 heck
 ----------------------------------------------------------------------

 -------------------------------------
 CID_81725783_JID_10537_Energie_kation
 -------------------------------------
 Structure from the checkpoint file:  "JID_10537.chk"
 Charge =  1 Multiplicity = 2

 SCF Done:  E(UB3LYP) =  -931.038836923     A.U. after   25 cycles
 Normal termination of Gaussian 16 at Sat Dec 12 16:59:37 2020.
 Gaussian 16:  ES64L-G16RevA.03 25-Dec-2016

 ----------------------------------------------------------------------
 # B3LYP/6-311++G(d,p) empiricaldispersion=gd3bj scf=xqc pop=npa geom=c
 heck
 ----------------------------------------------------------------------

 ------------------------------------
 CID_81725783_JID_10537_Energie_anion
 ------------------------------------
 Structure from the checkpoint file:  "JID_10537.chk"
 Charge = -1 Multiplicity = 2

                         Standard orientation:
 ---------------------------------------------------------------------
 Center     Atomic      Atomic             Coordinates (Angstroms)
 Number     Number       Type             X           Y           Z
 ---------------------------------------------------------------------
      1          6           0        5.426749    0.657116    1.522958
      2          6           0        3.916826    0.503570    1.378745
      3          7           0        3.604810   -0.650828    0.529997
      4          6           0        2.334682   -0.908435    0.057295
      5          6           0        1.478774    0.065442   -0.465295
      6          6           0        0.208799   -0.348354   -0.907972
      7          7           0       -0.170843   -1.639825   -0.859984
      8          6           0        0.748956   -2.488794   -0.393933
      9          7           0        1.960747   -2.212804    0.070004
     10          7           0       -0.646149    0.578379   -1.440446
     11          6           0       -2.075189    0.295389   -1.575251
     12          6           0       -2.818343    0.261452   -0.272253
     13          6           0       -3.320956   -0.815291    0.401901
     14          8           0       -3.899578   -0.398528    1.549771
     15          7           0       -3.773424    0.995901    1.658225
     16          6           0       -3.130820    1.371492    0.575929
     17          6           0       -2.798033    2.813991    0.359017
     18          6           0       -3.353645   -2.274505    0.113700
     19          8           0        1.807157    1.407674   -0.582126
     20          6           0        2.663385    1.668219   -1.704252
     21          1           0        5.875962   -0.235893    1.974918
     22          1           0        5.664738    1.510430    2.166498
     23          1           0        5.896232    0.813468    0.546236
     24          1           0        3.450574    0.392706    2.370823
     25          1           0        3.479411    1.392565    0.924361
     26          1           0        4.013940   -1.517511    0.867857
     27          1           0        0.460969   -3.538737   -0.380715
     28          1           0       -0.382840    1.533361   -1.234496
     29          1           0       -2.487961    1.068288   -2.232810
     30          1           0       -2.175167   -0.660681   -2.091239
     31          1           0       -1.713000    2.974334    0.381752
     32          1           0       -3.165185    3.162536   -0.613570
     33          1           0       -3.250522    3.426519    1.142377
     34          1           0       -2.526528   -2.528838   -0.553181
     35          1           0       -3.245338   -2.843004    1.042422
     36          1           0       -4.302568   -2.569906   -0.350678
     37          1           0        3.615555    1.136464   -1.596890
     38          1           0        2.178083    1.361068   -2.638210
     39          1           0        2.839911    2.746144   -1.714719
 ---------------------------------------------------------------------

 SCF Done:  E(UB3LYP) =  -931.315890330     A.U. after   32 cycles

 The electronic state is 2-A.
 Alpha  occ. eigenvalues --  -19.11670 -19.05626 -14.26720 -14.24365 -14.23701
 Alpha  occ. eigenvalues --  -14.21166 -14.21084 -10.16024 -10.15761 -10.15734
 Alpha  occ. eigenvalues --  -10.14070 -10.13064 -10.12978 -10.12739 -10.12195
 Alpha  occ. eigenvalues --  -10.11146 -10.10034 -10.09306 -10.09118 -10.07550
 Alpha  occ. eigenvalues --   -1.05170  -0.97066  -0.90098  -0.86794  -0.83199
 Alpha  occ. eigenvalues --   -0.79216  -0.77089  -0.73314  -0.69012  -0.66245
 Alpha  occ. eigenvalues --   -0.64757  -0.64114  -0.61111  -0.60225  -0.55542
 Alpha  occ. eigenvalues --   -0.54482  -0.52283  -0.50250  -0.48463  -0.47093
 Alpha  occ. eigenvalues --   -0.44199  -0.42163  -0.41089  -0.40764  -0.39505
 Alpha  occ. eigenvalues --   -0.38443  -0.37935  -0.36642  -0.36062  -0.35863
 Alpha  occ. eigenvalues --   -0.34959  -0.34606  -0.34416  -0.33763  -0.32831
 Alpha  occ. eigenvalues --   -0.32488  -0.32038  -0.31328  -0.30155  -0.29745
 Alpha  occ. eigenvalues --   -0.28918  -0.28561  -0.27623  -0.26742  -0.25512
 Alpha  occ. eigenvalues --   -0.22435  -0.22006  -0.21312  -0.20454  -0.20041
 Alpha  occ. eigenvalues --   -0.16981  -0.16234  -0.15060  -0.12887   0.03809
 Alpha virt. eigenvalues --    0.05605   0.06370   0.06676   0.07051   0.07554
 Alpha virt. eigenvalues --    0.07767   0.08172   0.08295   0.08683   0.09344
 Alpha virt. eigenvalues --    0.09783   0.10106   0.10282   0.10687   0.11496

  Beta  occ. eigenvalues --  -19.11668 -19.05628 -14.26718 -14.24355 -14.23701
  Beta  occ. eigenvalues --  -14.21177 -14.21063 -10.16024 -10.15759 -10.15705
  Beta  occ. eigenvalues --  -10.14017 -10.13035 -10.12957 -10.12737 -10.12136
  Beta  occ. eigenvalues --  -10.11128 -10.10031 -10.09306 -10.09081 -10.07512
  Beta  occ. eigenvalues --   -1.05165  -0.97046  -0.90057  -0.86766  -0.83167
  Beta  occ. eigenvalues --   -0.79209  -0.77063  -0.73302  -0.68961  -0.66207
  Beta  occ. eigenvalues --   -0.64728  -0.64074  -0.61069  -0.60150  -0.55469
  Beta  occ. eigenvalues --   -0.54432  -0.52233  -0.50223  -0.48434  -0.47068
  Beta  occ. eigenvalues --   -0.44169  -0.42129  -0.41063  -0.40730  -0.39490
  Beta  occ. eigenvalues --   -0.38410  -0.37865  -0.36607  -0.36040  -0.35824
  Beta  occ. eigenvalues --   -0.34931  -0.34578  -0.34387  -0.33709  -0.32787
  Beta  occ. eigenvalues --   -0.32467  -0.31989  -0.31298  -0.30101  -0.29708
  Beta  occ. eigenvalues --   -0.28875  -0.28541  -0.27576  -0.26689  -0.25454
  Beta  occ. eigenvalues --   -0.22379  -0.21955  -0.21287  -0.20411  -0.20021
  Beta  occ. eigenvalues --   -0.16969  -0.16221  -0.15033  -0.12794
  Beta virt. eigenvalues --    0.05967   0.06237   0.06737   0.06843   0.07438
  Beta virt. eigenvalues --    0.07851   0.08253   0.08374   0.08572   0.08951
  Beta virt. eigenvalues --    0.09477   0.10058   0.10447   0.10600   0.10984

 Mulliken charges and spin densities:
               1          2
     1  C    1.230944  -1.714172
     2  C   -0.970875   0.736906
     3  N   -0.161262   0.107807
     4  C    0.398740  -0.626459
     5  C   -0.654628   0.235811
     6  C   -0.093052   0.106360
     7  N   -0.175240   0.028600
     8  C    0.008058  -0.041036
     9  N   -0.097579  -0.053187
    10  N    0.044852   0.079574
    11  C   -0.437020  -0.449857
    12  C    0.423378   0.275579
    13  C   -0.525513   0.194269
    14  O    0.219118  -0.011500
    15  N   -0.464139   0.035154
    16  C   -0.328749   0.911930
    17  C    1.660508  -2.075718
    18  C   -0.832758   0.008439
    19  O   -0.193757   0.046936
    20  C    0.863403  -1.201735
    21  H   -0.160654   0.282300
    22  H   -0.241601   0.386954
    23  H   -0.196602   0.342394
    24  H   -0.190579   0.349773
    25  H    0.240212  -0.048374
    26  H    0.281366  -0.005796
    27  H    0.153538   0.031109
    28  H    0.060736   0.262433
    29  H   -0.470842   0.695163
    30  H    0.139992   0.060446
    31  H   -0.024808   0.203528
    32  H   -0.228182   0.398704
    33  H    0.049825   0.115866
    34  H    0.208495  -0.037227
    35  H    0.156045   0.002884
    36  H    0.106887   0.060554
    37  H   -0.023331   0.186786
    38  H   -0.135095   0.300682
    39  H   -0.639835   0.818119
 Sum of Mulliken charges =  -1.00000   1.00000

 Dipole moment (field-independent basis, Debye):
    X=             -4.0582    Y=             -6.5523    Z=              0.4663  Tot=              7.7214
 Quadrupole moment (field-independent basis, Debye-Ang):
   XX=           -210.5082   YY=           -167.5274   ZZ=           -164.3945
   XY=              0.2578   XZ=              1.1606   YZ=              7.7931

 Summary of Natural Population Analysis:

                                       Natural Population
                Natural  -----------------------------------------------
    Atom  No    Charge         Core      Valence    Rydberg      Total
 -----------------------------------------------------------------------
      C    1   -0.28593      0.99967     2.28189    0.00437     3.28593
      C    2   -0.09046      0.99962     2.08071    0.01013     3.09046
      N    3   -0.31343      0.99967     2.80293    0.01083     3.81343
      C    4    0.20154      0.99948     1.78461    0.01436     2.79846
      C    5    0.08233      0.99927     1.90567    0.01272     2.91767
      C    6    0.20370      0.99949     1.78190    0.01491     2.79630
      N    7   -0.29155      0.99968     2.78217    0.00970     3.79155
      C    8    0.15783      0.99967     1.82421    0.01829     2.84217
      N    9   -0.28331      0.99968     2.77397    0.00966     3.78331
      N   10   -0.30434      0.99966     2.79327    0.01140     3.80434
      C   11   -0.09702      0.99958     2.08483    0.01261     3.09702
      C   12   -0.09100      0.99938     2.08190    0.00972     3.09100
      C   13    0.18500      0.99943     1.80033    0.01524     2.81500
      O   14   -0.17253      0.99985     3.16457    0.00811     4.17253
      N   15   -0.08867      0.99967     2.57715    0.01185     3.58867
      C   16    0.09231      0.99956     1.89316    0.01497     2.90769
      C   17   -0.30348      0.99962     2.29792    0.00593     3.30348
      C   18   -0.31479      0.99962     2.31026    0.00491     3.31479
      O   19   -0.29509      0.99988     3.28497    0.01024     4.29509
      C   20   -0.10003      0.99959     2.09115    0.00929     3.10003
      H   21    0.09330      0.00000     0.40518    0.00152     0.40670
      H   22    0.10250      0.00000     0.39627    0.00122     0.39750
      H   23    0.10140      0.00000     0.39707    0.00154     0.39860
      H   24    0.08400      0.00000     0.41464    0.00135     0.41600
      H   25    0.10699      0.00000     0.39090    0.00211     0.39301
      H   26    0.18623      0.00000     0.31000    0.00377     0.31377
      H   27    0.07886      0.00000     0.42008    0.00105     0.42114
      H   28    0.19852      0.00000     0.29794    0.00353     0.30148
      H   29    0.10691      0.00000     0.39161    0.00148     0.39309
      H   30    0.11023      0.00000     0.38810    0.00167     0.38977
      H   31    0.11056      0.00000     0.38802    0.00142     0.38944
      H   32    0.11007      0.00000     0.38845    0.00147     0.38993
      H   33    0.11137      0.00000     0.38755    0.00108     0.38863
      H   34    0.12502      0.00000     0.37389    0.00109     0.37498
      H   35    0.10986      0.00000     0.38912    0.00102     0.39014
      H   36    0.10542      0.00000     0.39358    0.00100     0.39458
      H   37    0.08647      0.00000     0.41193    0.00159     0.41353
      H   38    0.08614      0.00000     0.41232    0.00153     0.41386
      H   39    0.09502      0.00000     0.40244    0.00255     0.40498
 =======================================================================
   * Total *    0.00000     19.99208    53.75667    0.25125    74.00000

 Normal termination of Gaussian 16 at Sat Dec 12 17:20:21 2020.
