 Gaussian 16, Revision A.03,

 -----------------------------------------------------------
 # opt freq B3LYP/6-31G(d) empiricaldispersion=gd3bj scf=xqc
 -----------------------------------------------------------

 ------------------------------
 CID_71564733_JID_4394_neutraal
 ------------------------------
 Symbolic Z-matrix:
 Charge =  0 Multiplicity = 1

 SCF Done:  E(RB3LYP) =  -1021.99465662     A.U. after   16 cycles
 SCF Done:  E(RB3LYP) =  -1022.00772052     A.U. after   14 cycles
 SCF Done:  E(RB3LYP) =  -1022.01266501     A.U. after   14 cycles
 SCF Done:  E(RB3LYP) =  -1022.01612276     A.U. after   13 cycles
 SCF Done:  E(RB3LYP) =  -1022.01730663     A.U. after   13 cycles
 SCF Done:  E(RB3LYP) =  -1022.01811572     A.U. after   13 cycles
 SCF Done:  E(RB3LYP) =  -1022.01872732     A.U. after   15 cycles
 SCF Done:  E(RB3LYP) =  -1022.01903575     A.U. after   12 cycles
 SCF Done:  E(RB3LYP) =  -1022.01919439     A.U. after   12 cycles
 SCF Done:  E(RB3LYP) =  -1022.01921470     A.U. after   11 cycles
 SCF Done:  E(RB3LYP) =  -1022.01922625     A.U. after   10 cycles
 SCF Done:  E(RB3LYP) =  -1022.01923033     A.U. after   10 cycles
 SCF Done:  E(RB3LYP) =  -1022.01923145     A.U. after    9 cycles
 SCF Done:  E(RB3LYP) =  -1022.01923220     A.U. after    8 cycles
 SCF Done:  E(RB3LYP) =  -1022.01923237     A.U. after    8 cycles
 SCF Done:  E(RB3LYP) =  -1022.01923243     A.U. after    7 cycles
 Optimization completed.
    -- Stationary point found.
 Normal termination of Gaussian 16 at Thu Dec 10 09:25:16 2020.

 --------------------------------------------------------------------
 #N Geom=AllCheck Guess=TCheck SCRF=Check GenChk RB3LYP/6-31G(d) Freq
 --------------------------------------------------------------------

 Structure from the checkpoint file:  "JID_4394.chk"
 ------------------------------
 CID_71564733_JID_4394_neutraal
 ------------------------------
 Charge =  0 Multiplicity = 1

 SCF Done:  E(RB3LYP) =  -1022.01923243     A.U. after    1 cycles

  Exact polarizability: 176.718  -1.643  99.348  -5.009   4.949  83.897
 Approx polarizability: 275.569  -4.496 159.515 -10.505  14.901 152.308

                      1                      2                      3
                      A                      A                      A
 Frequencies --     36.8393                47.4016                89.8580
 Red. masses --      7.1915                 7.7593                 5.9728
 Frc consts  --      0.0058                 0.0103                 0.0284
 IR Inten    --      0.4330                 0.6270                 0.5251

                      4                      5                      6
                      A                      A                      A
 Frequencies --    130.2947               155.5327               180.7152
 Red. masses --      8.5103                 8.9602                 5.2179
 Frc consts  --      0.0851                 0.1277                 0.1004
 IR Inten    --      0.2449                 3.1123                 1.0184

                      7                      8                      9
                      A                      A                      A
 Frequencies --    264.2060               308.0436               346.0196
 Red. masses --      7.9998                 5.5029                 1.3414
 Frc consts  --      0.3290                 0.3077                 0.0946
 IR Inten    --      5.6999                 0.7818                34.0072

                     10                     11                     12
                      A                      A                      A
 Frequencies --    377.8196               393.9683               411.0107
 Red. masses --      6.2686                 2.8786                 6.6414
 Frc consts  --      0.5272                 0.2632                 0.6610
 IR Inten    --     27.9938                26.8820                 3.5103

                     13                     14                     15
                      A                      A                      A
 Frequencies --    467.7256               510.9979               529.3430
 Red. masses --      1.3743                 5.2368                 4.7527
 Frc consts  --      0.1771                 0.8057                 0.7846
 IR Inten    --    222.6285                 5.9937                10.1373

                     16                     17                     18
                      A                      A                      A
 Frequencies --    569.9078               583.9646               636.0060
 Red. masses --      5.8485                 4.0071                 1.7405
 Frc consts  --      1.1192                 0.8051                 0.4148
 IR Inten    --     22.1191                16.6117                43.8948

                     19                     20                     21
                      A                      A                      A
 Frequencies --    643.9587               658.3610               676.5439
 Red. masses --      7.6481                 5.1460                 1.8436
 Frc consts  --      1.8686                 1.3142                 0.4972
 IR Inten    --      6.9085                 2.1690                28.6582

                     22                     23                     24
                      A                      A                      A
 Frequencies --    694.5582               711.4692               713.8743
 Red. masses --      5.7505                 2.4733                 1.2320
 Frc consts  --      1.6344                 0.7376                 0.3699
 IR Inten    --      1.7425                 7.4755                59.6993

                     25                     26                     27
                      A                      A                      A
 Frequencies --    742.9376               748.3580               783.3143
 Red. masses --      8.6397                 7.8314                 2.2651
 Frc consts  --      2.8097                 2.5841                 0.8189
 IR Inten    --     27.3261                30.4212                49.5425

                     28                     29                     30
                      A                      A                      A
 Frequencies --    854.8829               862.3753               917.7440
 Red. masses --      1.3078                 4.2897                 1.3277
 Frc consts  --      0.5631                 1.8796                 0.6588
 IR Inten    --      3.2219                21.0548                 0.5851

                     31                     32                     33
                      A                      A                      A
 Frequencies --    959.1576               992.7752              1068.7770
 Red. masses --      6.5561                 2.5775                 1.8553
 Frc consts  --      3.5537                 1.4968                 1.2486
 IR Inten    --      6.8741                 8.5568                 2.3230

                     34                     35                     36
                      A                      A                      A
 Frequencies --   1082.5555              1122.8052              1150.8976
 Red. masses --      2.1063                 1.1335                 1.9064
 Frc consts  --      1.4544                 0.8419                 1.4877
 IR Inten    --      0.1622                 1.6323                 8.3717

                     37                     38                     39
                      A                      A                      A
 Frequencies --   1230.9908              1242.6066              1288.9279
 Red. masses --      3.4650                 2.1939                 1.8843
 Frc consts  --      3.0936                 1.9959                 1.8444
 IR Inten    --     17.5324                79.5682                12.3457

                     40                     41                     42
                      A                      A                      A
 Frequencies --   1309.8449              1399.9656              1406.8042
 Red. masses --      2.9619                 4.5377                 2.2779
 Frc consts  --      2.9940                 5.2399                 2.6562
 IR Inten    --     43.0542                89.2344                10.6369

                     43                     44                     45
                      A                      A                      A
 Frequencies --   1416.2544              1487.9613              1494.3571
 Red. masses --      2.2700                 4.2241                 6.3334
 Frc consts  --      2.6827                 5.5101                 8.3329
 IR Inten    --     70.8168               227.7511                31.5983

                     46                     47                     48
                      A                      A                      A
 Frequencies --   1609.2691              1652.0541              1698.3209
 Red. masses --      5.5058                 1.6493                 2.8224
 Frc consts  --      8.4009                 2.6521                 4.7963
 IR Inten    --      6.8340               148.9463               441.2729

                     49                     50                     51
                      A                      A                      A
 Frequencies --   1804.2995              1832.9202              3229.8534
 Red. masses --      8.9778                10.7457                 1.0891
 Frc consts  --     17.2202                21.2701                 6.6937
 IR Inten    --    742.9668               424.5832                 5.3283

                     52                     53                     54
                      A                      A                      A
 Frequencies --   3243.8374              3249.7907              3271.7870
 Red. masses --      1.0963                 1.0922                 1.0975
 Frc consts  --      6.7966                 6.7961                 6.9219
 IR Inten    --      0.7540                 1.0177                 0.6373

                     55                     56                     57
                      A                      A                      A
 Frequencies --   3583.4583              3613.1793              3694.2511
 Red. masses --      1.0472                 1.0774                 1.1011
 Frc consts  --      7.9227                 8.2868                 8.8539
 IR Inten    --     58.3870                68.5840                50.8707

 - Thermochemistry -
 -------------------
 Temperature   298.150 Kelvin.  Pressure   1.00000 Atm.
 Atom     1 has atomic number  6 and mass  12.00000

 Molecular mass:   209.02590 amu.
 Principal axes and moments of inertia in atomic units:
                           1         2         3
     Eigenvalues --  1274.200454321.271604943.39559
           X            0.99997  -0.00100  -0.00703
           Y            0.00099   1.00000  -0.00249
           Z            0.00704   0.00248   0.99997
 This molecule is an asymmetric top.
 Rotational symmetry number  1.
 Warning -- assumption of classical behavior for rotation
           may cause significant error
 Rotational temperatures (Kelvin)      0.06798     0.02004     0.01752
 Rotational constants (GHZ):           1.41637     0.41764     0.36508
 Zero-point vibrational energy     395878.6 (Joules/Mol)
                                   94.61726 (Kcal/Mol)
 Warning -- explicit consideration of  17 degrees of freedom as
           vibrations may cause significant error
 Vibrational temperatures:     53.00    68.20   129.29   187.47   223.78
          (Kelvin)            260.01   380.13   443.21   497.84   543.60
                              566.83   591.35   672.95   735.21   761.61
                              819.97   840.19   915.07   926.51   947.23
                              973.40   999.31  1023.65  1027.11  1068.92
                             1076.72  1127.01  1229.99  1240.77  1320.43
                             1380.01  1428.38  1537.73  1557.56  1615.47
                             1655.88  1771.12  1787.83  1854.48  1884.57
                             2014.24  2024.08  2037.67  2140.84  2150.05
                             2315.38  2376.94  2443.50  2595.98  2637.16
                             4647.04  4667.16  4675.72  4707.37  5155.80
                             5198.56  5315.20

 Zero-point correction=                           0.150782 (Hartree/Particle)
 Thermal correction to Energy=                    0.162764
 Thermal correction to Enthalpy=                  0.163709
 Thermal correction to Gibbs Free Energy=         0.111542
 Sum of electronic and zero-point Energies=          -1021.868450
 Sum of electronic and thermal Energies=             -1021.856468
 Sum of electronic and thermal Enthalpies=           -1021.855524
 Sum of electronic and thermal Free Energies=        -1021.907690

                     E (Thermal)             CV                S
                      KCal/Mol        Cal/Mol-Kelvin    Cal/Mol-Kelvin
 Total                  102.136             45.996            109.793
 Electronic               0.000              0.000              0.000
 Translational            0.889              2.981             41.916
 Rotational               0.889              2.981             31.676
 Vibrational            100.359             40.035             36.201
 Vibration     1          0.594              1.982              5.422
 Vibration     2          0.595              1.979              4.923
 Vibration     3          0.602              1.956              3.663
 Vibration     4          0.612              1.923              2.942
 Vibration     5          0.620              1.896              2.603
 Vibration     6          0.630              1.866              2.321
 Vibration     7          0.671              1.739              1.634
 Vibration     8          0.698              1.658              1.373
 Vibration     9          0.724              1.583              1.184
 Vibration    10          0.748              1.517              1.048
 Vibration    11          0.761              1.483              0.985
 Vibration    12          0.775              1.446              0.923
 Vibration    13          0.825              1.322              0.744
 Vibration    14          0.866              1.226              0.631
 Vibration    15          0.884              1.185              0.589
 Vibration    16          0.926              1.096              0.504
 Vibration    17          0.941              1.066              0.478

 Optimization completed.
    -- Stationary point found.
 Normal termination of Gaussian 16 at Thu Dec 10 09:31:14 2020.

 ----------------------------------------------------------------------
 # B3LYP/6-311++G(d,p) empiricaldispersion=gd3bj scf=xqc pop=npa geom=c
 heck
 ----------------------------------------------------------------------

 --------------------------------------
 CID_71564733_JID_4394_Energie_neutraal
 --------------------------------------
 Structure from the checkpoint file:  "JID_4394.chk"
 Charge =  0 Multiplicity = 1

 SCF Done:  E(RB3LYP) =  -1022.23253334     A.U. after   17 cycles
 Normal termination of Gaussian 16 at Thu Dec 10 09:34:08 2020.

 ----------------------------------------------------------------------
 # B3LYP/6-311++G(d,p) empiricaldispersion=gd3bj scf=xqc pop=npa geom=c
 heck
 ----------------------------------------------------------------------

 ------------------------------------
 CID_71564733_JID_4394_Energie_kation
 ------------------------------------
 Structure from the checkpoint file:  "JID_4394.chk"
 Charge =  1 Multiplicity = 2

 SCF Done:  E(UB3LYP) =  -1021.92568386     A.U. after   31 cycles
 Normal termination of Gaussian 16 at Thu Dec 10 09:41:25 2020.
 Gaussian 16:  ES64L-G16RevA.03 25-Dec-2016

 ----------------------------------------------------------------------
 # B3LYP/6-311++G(d,p) empiricaldispersion=gd3bj scf=xqc pop=npa geom=c
 heck
 ----------------------------------------------------------------------

 -----------------------------------
 CID_71564733_JID_4394_Energie_anion
 -----------------------------------
 Structure from the checkpoint file:  "JID_4394.chk"
 Charge = -1 Multiplicity = 2

                         Standard orientation:
 ---------------------------------------------------------------------
 Center     Atomic      Atomic             Coordinates (Angstroms)
 Number     Number       Type             X           Y           Z
 ---------------------------------------------------------------------
      1          6           0       -3.343819    0.258002    0.987041
      2          6           0       -3.586272   -0.136355   -0.301291
      3         16           0       -2.124094   -0.405148   -1.189152
      4          6           0       -1.164917    0.023847    0.211732
      5          6           0       -1.951775    0.350039    1.282880
      6          7           0        0.246758    0.033428    0.151193
      7          6           0        0.954754    1.226324   -0.039739
      8          6           0        2.316505    1.222211   -0.146544
      9          6           0        3.071913    0.002594   -0.055765
     10          8           0        4.285717   -0.120509   -0.131911
     11          7           0        2.267133   -1.148572    0.141253
     12          6           0        0.901115   -1.224084    0.234464
     13          8           0        0.278056   -2.258471    0.372723
     14          7           0        0.201868    2.370229   -0.053364
     15          1           0       -4.128077    0.467854    1.704883
     16          1           0       -4.542937   -0.299566   -0.778717
     17          1           0       -1.539266    0.639597    2.242103
     18          1           0        2.862570    2.145850   -0.284460
     19          1           0        2.758818   -2.032382    0.198620
     20          1           0        0.653139    3.188876   -0.435233
     21          1           0       -0.784270    2.282933   -0.257503
 ---------------------------------------------------------------------

 SCF Done:  E(UB3LYP) =  -1022.23192581     A.U. after   31 cycles

 The electronic state is 2-A.
 Alpha  occ. eigenvalues --  -88.75579 -18.99914 -18.98614 -14.27715 -14.25825
 Alpha  occ. eigenvalues --  -14.23297 -10.21562 -10.17725 -10.17523 -10.10416
 Alpha  occ. eigenvalues --  -10.07413 -10.06159 -10.06111 -10.05916  -7.84199
 Alpha  occ. eigenvalues --   -5.80487  -5.80134  -5.79804  -0.97482  -0.93627
 Alpha  occ. eigenvalues --   -0.89328  -0.83428  -0.80837  -0.75663  -0.67678
 Alpha  occ. eigenvalues --   -0.62226  -0.61371  -0.56914  -0.54773  -0.49747
 Alpha  occ. eigenvalues --   -0.47501  -0.45150  -0.43298  -0.41408  -0.40138
 Alpha  occ. eigenvalues --   -0.38226  -0.37319  -0.34642  -0.33116  -0.32174
 Alpha  occ. eigenvalues --   -0.30998  -0.30887  -0.29304  -0.28700  -0.26965
 Alpha  occ. eigenvalues --   -0.26511  -0.23496  -0.19567  -0.18492  -0.18102
 Alpha  occ. eigenvalues --   -0.16149  -0.14284  -0.13282  -0.12014   0.04437
 Alpha virt. eigenvalues --    0.06797   0.07816   0.08381   0.09254   0.09393
 Alpha virt. eigenvalues --    0.10343   0.10472   0.11095   0.12018   0.12981
 Alpha virt. eigenvalues --    0.13199   0.14537   0.15040   0.15385   0.15764

  Beta  occ. eigenvalues --  -88.75550 -18.99911 -18.98605 -14.27732 -14.25825
  Beta  occ. eigenvalues --  -14.23241 -10.21540 -10.17716 -10.17486 -10.10098
  Beta  occ. eigenvalues --  -10.07145 -10.06170 -10.06085 -10.05903  -7.84173
  Beta  occ. eigenvalues --   -5.80481  -5.80127  -5.79694  -0.97450  -0.93609
  Beta  occ. eigenvalues --   -0.89235  -0.83398  -0.80691  -0.75440  -0.67590
  Beta  occ. eigenvalues --   -0.62031  -0.61035  -0.56792  -0.54681  -0.49594
  Beta  occ. eigenvalues --   -0.47387  -0.44918  -0.43206  -0.41210  -0.40035
  Beta  occ. eigenvalues --   -0.38153  -0.37267  -0.34622  -0.33011  -0.32123
  Beta  occ. eigenvalues --   -0.30920  -0.30798  -0.29243  -0.28596  -0.26849
  Beta  occ. eigenvalues --   -0.25746  -0.23251  -0.19548  -0.18475  -0.18049
  Beta  occ. eigenvalues --   -0.16130  -0.13708  -0.12233  -0.11568
  Beta virt. eigenvalues --    0.07576   0.08240   0.08309   0.08986   0.09388
  Beta virt. eigenvalues --    0.09833   0.10551   0.10931   0.11225   0.12188
  Beta virt. eigenvalues --    0.13069   0.13538   0.14700   0.15354   0.15427

 Mulliken charges and spin densities:
               1          2
     1  C   -0.099559  -0.186677
     2  C   -0.373852   0.257728
     3  S   -0.042179   0.093066
     4  C   -0.290634  -0.623804
     5  C   -0.214864   0.819951
     6  N    0.236361  -0.069025
     7  C    0.980594  -0.832866
     8  C   -0.234267   0.242696
     9  C    0.293288  -0.525987
    10  O   -0.396173   0.008356
    11  N   -0.371453   0.002396
    12  C    0.414677  -0.137458
    13  O   -0.294281  -0.001979
    14  N   -0.212021  -0.031969
    15  H    0.025240   0.098407
    16  H    0.127311   0.063230
    17  H    0.027798   0.116550
    18  H   -0.236981   0.429045
    19  H    0.343989  -0.008188
    20  H   -0.605377   0.894993
    21  H   -0.077617   0.391534
 Sum of Mulliken charges =  -1.00000   1.00000

 Dipole moment (field-independent basis, Debye):
    X=             -2.0917    Y=             -4.5591    Z=              0.9316  Tot=              5.1018
 Quadrupole moment (field-independent basis, Debye-Ang):
   XX=           -138.9002   YY=           -134.9067   ZZ=           -102.7578
   XY=             -4.7004   XZ=              2.7632   YZ=              4.2075

 Summary of Natural Population Analysis:

                                       Natural Population
                Natural  -----------------------------------------------
    Atom  No    Charge         Core      Valence    Rydberg      Total
 -----------------------------------------------------------------------
      C    1   -0.14080      0.99954     2.13073    0.01054     3.14080
      C    2   -0.14979      0.99955     2.13885    0.01139     3.14979
      S    3    0.21417      4.99939     2.76603    0.02042     7.78583
      C    4    0.01830      0.99947     1.96496    0.01728     2.98170
      C    5   -0.11940      0.99944     2.10915    0.01081     3.11940
      N    6   -0.25847      0.99955     2.74807    0.01085     3.75847
      C    7    0.23817      0.99951     1.74871    0.01362     2.76183
      C    8   -0.22839      0.99947     2.21907    0.00985     3.22839
      C    9    0.32078      0.99964     1.65580    0.02377     2.67922
      O   10   -0.32675      0.99988     3.32080    0.00607     4.32675
      N   11   -0.32630      0.99964     2.81882    0.00784     3.82630
      C   12    0.41778      0.99970     1.55945    0.02307     2.58222
      O   13   -0.31341      0.99987     3.30866    0.00487     4.31341
      N   14   -0.38222      0.99970     2.87304    0.00948     3.88222
      H   15    0.10240      0.00000     0.39685    0.00075     0.39760
      H   16    0.10096      0.00000     0.39829    0.00075     0.39904
      H   17    0.10767      0.00000     0.39141    0.00092     0.39233
      H   18    0.11432      0.00000     0.38468    0.00101     0.38568
      H   19    0.20363      0.00000     0.29486    0.00151     0.29637
      H   20    0.20058      0.00000     0.28456    0.01486     0.29942
      H   21    0.20678      0.00000     0.29005    0.00317     0.29322
 =======================================================================
   * Total *    0.00000     17.99434    35.80283    0.20283    54.00000

 Normal termination of Gaussian 16 at Thu Dec 10 09:48:45 2020.
