 Gaussian 16, Revision A.03,

 -----------------------------------------------------------
 # opt freq B3LYP/6-31G(d) empiricaldispersion=gd3bj scf=xqc
 -----------------------------------------------------------

 ------------------------------
 CID_89834867_JID_2852_neutraal
 ------------------------------
 Symbolic Z-matrix:
 Charge =  0 Multiplicity = 1

 SCF Done:  E(RB3LYP) =  -512.614783978     A.U. after   15 cycles
 SCF Done:  E(RB3LYP) =  -512.642782378     A.U. after   15 cycles
 SCF Done:  E(RB3LYP) =  -512.643753179     A.U. after   13 cycles
 SCF Done:  E(RB3LYP) =  -512.647462293     A.U. after   14 cycles
 SCF Done:  E(RB3LYP) =  -512.647873645     A.U. after   13 cycles
 SCF Done:  E(RB3LYP) =  -512.647911225     A.U. after   11 cycles
 SCF Done:  E(RB3LYP) =  -512.647920063     A.U. after   10 cycles
 SCF Done:  E(RB3LYP) =  -512.647926586     A.U. after    9 cycles
 SCF Done:  E(RB3LYP) =  -512.647927376     A.U. after    8 cycles
 SCF Done:  E(RB3LYP) =  -512.647927578     A.U. after    8 cycles
 SCF Done:  E(RB3LYP) =  -512.646826839     A.U. after   13 cycles
 SCF Done:  E(RB3LYP) =  -512.648285383     A.U. after   11 cycles
 SCF Done:  E(RB3LYP) =  -512.648295617     A.U. after   11 cycles
 SCF Done:  E(RB3LYP) =  -512.648305014     A.U. after   10 cycles
 SCF Done:  E(RB3LYP) =  -512.648305270     A.U. after    8 cycles
 SCF Done:  E(RB3LYP) =  -512.648305329     A.U. after    8 cycles
 Optimization completed.
    -- Stationary point found.
 Normal termination of Gaussian 16 at Wed Dec  9 18:10:29 2020.

 --------------------------------------------------------------------
 #N Geom=AllCheck Guess=TCheck SCRF=Check GenChk RB3LYP/6-31G(d) Freq
 --------------------------------------------------------------------

 Structure from the checkpoint file:  "JID_2852.chk"
 ------------------------------
 CID_89834867_JID_2852_neutraal
 ------------------------------
 Charge =  0 Multiplicity = 1

 SCF Done:  E(RB3LYP) =  -512.648305329     A.U. after    1 cycles

  Exact polarizability: 136.829  -4.126 141.368  -4.408   0.744  55.252
 Approx polarizability: 203.374  -9.787 256.892 -10.352  -1.169  86.892

                      1                      2                      3
                      A                      A                      A
 Frequencies --     39.5805                66.6782                85.8713
 Red. masses --      5.0585                 1.0230                 6.6269
 Frc consts  --      0.0047                 0.0027                 0.0288
 IR Inten    --      0.8947                 0.3059                 5.8321

                      4                      5                      6
                      A                      A                      A
 Frequencies --    160.8688               167.8000               197.3295
 Red. masses --      4.2386                 4.8754                 3.7343
 Frc consts  --      0.0646                 0.0809                 0.0857
 IR Inten    --      4.6497                 0.7677                 4.3169

                      7                      8                      9
                      A                      A                      A
 Frequencies --    214.6683               336.7785               348.3463
 Red. masses --      4.4108                 3.2788                 5.8009
 Frc consts  --      0.1198                 0.2191                 0.4147
 IR Inten    --      2.3913                 2.0283                 3.8297

                     10                     11                     12
                      A                      A                      A
 Frequencies --    392.2686               428.9406               451.0662
 Red. masses --      1.9264                 1.4937                 3.6571
 Frc consts  --      0.1747                 0.1619                 0.4384
 IR Inten    --     19.7497                27.6865                 0.4244

                     13                     14                     15
                      A                      A                      A
 Frequencies --    511.0902               528.6497               544.6808
 Red. masses --      3.2464                 4.5090                 4.3651
 Frc consts  --      0.4996                 0.7425                 0.7630
 IR Inten    --     30.1136                31.0659                 9.4751

                     16                     17                     18
                      A                      A                      A
 Frequencies --    561.9965               603.9501               657.9763
 Red. masses --      5.3308                 2.8332                 2.6118
 Frc consts  --      0.9920                 0.6089                 0.6662
 IR Inten    --      2.5536               102.5855                65.7560

                     19                     20                     21
                      A                      A                      A
 Frequencies --    673.7313               716.7760               766.3860
 Red. masses --      2.3503                 5.7185                 2.0342
 Frc consts  --      0.6286                 1.7310                 0.7039
 IR Inten    --     66.8020                 1.3104                 4.9439

                     22                     23                     24
                      A                      A                      A
 Frequencies --    802.5288               822.0385               907.2972
 Red. masses --      1.6884                 1.9352                 3.9094
 Frc consts  --      0.6407                 0.7705                 1.8961
 IR Inten    --     64.8996                25.5135                 1.0402

                     25                     26                     27
                      A                      A                      A
 Frequencies --    925.6037              1002.7982              1010.3742
 Red. masses --      1.3498                 1.3170                 3.8569
 Frc consts  --      0.6814                 0.7803                 2.3198
 IR Inten    --      2.1933                 0.3757                 1.3527

                     28                     29                     30
                      A                      A                      A
 Frequencies --   1027.6175              1049.8358              1076.3328
 Red. masses --      2.4230                 2.1410                 1.5815
 Frc consts  --      1.5075                 1.3903                 1.0795
 IR Inten    --      7.5049                 2.7773                 7.9862

                     31                     32                     33
                      A                      A                      A
 Frequencies --   1127.3267              1169.2434              1192.2857
 Red. masses --      1.5283                 1.4464                 1.2561
 Frc consts  --      1.1443                 1.1651                 1.0520
 IR Inten    --      5.5470                 2.0899                 0.1198

                     34                     35                     36
                      A                      A                      A
 Frequencies --   1217.3722              1278.0536              1312.5862
 Red. masses --      2.2052                 2.6165                 2.1247
 Frc consts  --      1.9255                 2.5181                 2.1568
 IR Inten    --      9.8481                 4.9659                51.3419

                     37                     38                     39
                      A                      A                      A
 Frequencies --   1327.3391              1429.8886              1437.0999
 Red. masses --      6.5937                 2.2387                 1.2671
 Frc consts  --      6.8445                 2.6968                 1.5418
 IR Inten    --      3.0917                27.8256                 1.7969

                     40                     41                     42
                      A                      A                      A
 Frequencies --   1477.8938              1498.6706              1505.8953
 Red. masses --      3.1781                 2.0658                 1.0724
 Frc consts  --      4.0898                 2.7337                 1.4328
 IR Inten    --     24.7559                17.7966                 8.4910

                     43                     44                     45
                      A                      A                      A
 Frequencies --   1525.4720              1634.5192              1635.9766
 Red. masses --      1.2613                 4.8650                 6.5022
 Frc consts  --      1.7293                 7.6580                10.2533
 IR Inten    --     22.4963                85.8206                36.9758

                     46                     47                     48
                      A                      A                      A
 Frequencies --   1665.1895              1704.7497              2330.2579
 Red. masses --      1.9103                 2.0803                12.6202
 Frc consts  --      3.1209                 3.5621                40.3761
 IR Inten    --     28.4075               141.2622                54.4399

                     49                     50                     51
                      A                      A                      A
 Frequencies --   3056.7498              3119.5710              3147.5597
 Red. masses --      1.0383                 1.0976                 1.1041
 Frc consts  --      5.7160                 6.2933                 6.4450
 IR Inten    --     13.5446                12.7645                 9.7693

                     52                     53                     54
                      A                      A                      A
 Frequencies --   3171.5386              3194.3112              3211.2309
 Red. masses --      1.0871                 1.0875                 1.0937
 Frc consts  --      6.4428                 6.5376                 6.6452
 IR Inten    --      8.8392                 7.4791                17.8542

                     55                     56                     57
                      A                      A                      A
 Frequencies --   3226.1727              3548.1391              3650.4818
 Red. masses --      1.0944                 1.0474                 1.0992
 Frc consts  --      6.7109                 7.7689                 8.6307
 IR Inten    --      5.9024                20.1888                 9.5699

 - Thermochemistry -
 -------------------
 Temperature   298.150 Kelvin.  Pressure   1.00000 Atm.
 Atom     1 has atomic number  6 and mass  12.00000

 Molecular mass:   159.07965 amu.
 Principal axes and moments of inertia in atomic units:
                           1         2         3
     Eigenvalues --  1439.353862110.963903329.33811
           X            0.99522   0.09749  -0.00554
           Y           -0.09741   0.99516   0.01305
           Z            0.00679  -0.01245   0.99990
 This molecule is an asymmetric top.
 Rotational symmetry number  1.
 Warning -- assumption of classical behavior for rotation
           may cause significant error
 Rotational temperatures (Kelvin)      0.06018     0.04103     0.02602
 Rotational constants (GHZ):           1.25386     0.85494     0.54207
 Zero-point vibrational energy     435891.9 (Joules/Mol)
                                  104.18066 (Kcal/Mol)
 Warning -- explicit consideration of  17 degrees of freedom as
           vibrations may cause significant error
 Vibrational temperatures:     56.95    95.94   123.55   231.45   241.43
          (Kelvin)            283.91   308.86   484.55   501.19   564.39
                              617.15   648.98   735.34   760.61   783.67
                              808.59   868.95   946.68   969.35  1031.28
                             1102.66  1154.66  1182.73  1305.40  1331.74
                             1442.80  1453.70  1478.51  1510.48  1548.60
                             1621.97  1682.28  1715.43  1751.53  1838.83
                             1888.52  1909.74  2057.29  2067.67  2126.36
                             2156.25  2166.65  2194.81  2351.71  2353.81
                             2395.84  2452.75  3352.72  4397.98  4488.37
                             4528.64  4563.14  4595.90  4620.24  4641.74
                             5104.98  5252.23

 Zero-point correction=                           0.166022 (Hartree/Particle)
 Thermal correction to Energy=                    0.177182
 Thermal correction to Enthalpy=                  0.178127
 Thermal correction to Gibbs Free Energy=         0.128390
 Sum of electronic and zero-point Energies=           -512.482283
 Sum of electronic and thermal Energies=              -512.471123
 Sum of electronic and thermal Enthalpies=            -512.470179
 Sum of electronic and thermal Free Energies=         -512.519915

                     E (Thermal)             CV                S
                      KCal/Mol        Cal/Mol-Kelvin    Cal/Mol-Kelvin
 Total                  111.184             41.654            104.680
 Electronic               0.000              0.000              0.000
 Translational            0.889              2.981             41.102
 Rotational               0.889              2.981             30.693
 Vibrational            109.406             35.693             32.885
 Vibration     1          0.594              1.981              5.280
 Vibration     2          0.598              1.970              4.249
 Vibration     3          0.601              1.959              3.752
 Vibration     4          0.622              1.890              2.540
 Vibration     5          0.625              1.882              2.460
 Vibration     6          0.637              1.844              2.158
 Vibration     7          0.645              1.819              2.004
 Vibration     8          0.717              1.602              1.227
 Vibration     9          0.726              1.579              1.174
 Vibration    10          0.760              1.487              0.992
 Vibration    11          0.790              1.407              0.862
 Vibration    12          0.810              1.359              0.793
 Vibration    13          0.866              1.225              0.631
 Vibration    14          0.884              1.187              0.590
 Vibration    15          0.900              1.151              0.555
 Vibration    16          0.918              1.114              0.520
 Vibration    17          0.962              1.023              0.443

 Optimization completed.
    -- Stationary point found.
 Normal termination of Gaussian 16 at Wed Dec  9 18:14:39 2020.

 ----------------------------------------------------------------------
 # B3LYP/6-311++G(d,p) empiricaldispersion=gd3bj scf=xqc pop=npa geom=c
 heck
 ----------------------------------------------------------------------

 --------------------------------------
 CID_89834867_JID_2852_Energie_neutraal
 --------------------------------------
 Structure from the checkpoint file:  "JID_2852.chk"
 Charge =  0 Multiplicity = 1

 SCF Done:  E(RB3LYP) =  -512.790768798     A.U. after   17 cycles
 Normal termination of Gaussian 16 at Wed Dec  9 18:17:16 2020.

 ----------------------------------------------------------------------
 # B3LYP/6-311++G(d,p) empiricaldispersion=gd3bj scf=xqc pop=npa geom=c
 heck
 ----------------------------------------------------------------------

 ------------------------------------
 CID_89834867_JID_2852_Energie_kation
 ------------------------------------
 Structure from the checkpoint file:  "JID_2852.chk"
 Charge =  1 Multiplicity = 2

 SCF Done:  E(UB3LYP) =  -512.490449843     A.U. after   24 cycles
 Normal termination of Gaussian 16 at Wed Dec  9 18:21:04 2020.
 Gaussian 16:  ES64L-G16RevA.03 25-Dec-2016

 ----------------------------------------------------------------------
 # B3LYP/6-311++G(d,p) empiricaldispersion=gd3bj scf=xqc pop=npa geom=c
 heck
 ----------------------------------------------------------------------

 -----------------------------------
 CID_89834867_JID_2852_Energie_anion
 -----------------------------------
 Structure from the checkpoint file:  "JID_2852.chk"
 Charge = -1 Multiplicity = 2

                         Standard orientation:
 ---------------------------------------------------------------------
 Center     Atomic      Atomic             Coordinates (Angstroms)
 Number     Number       Type             X           Y           Z
 ---------------------------------------------------------------------
      1          6           0        2.363268    1.934436    0.577642
      2          6           0        1.778170    0.594668    0.218025
      3          7           0        0.455431    0.470764    0.372805
      4          6           0       -0.134364   -0.687948    0.053592
      5          6           0        0.578577   -1.798135   -0.419535
      6          6           0        1.958596   -1.676200   -0.563012
      7          6           0        2.569741   -0.467340   -0.243809
      8          6           0       -1.609299   -0.740586    0.213149
      9          6           0       -2.416244    0.344223    0.062729
     10          6           0       -2.001984    1.634468   -0.354531
     11          7           0       -1.764058    2.719541   -0.708386
     12          7           0       -2.131183   -2.005063    0.443509
     13          1           0        1.748283    2.731501    0.149599
     14          1           0        2.359792    2.072655    1.665571
     15          1           0        3.392403    2.036667    0.221318
     16          1           0        0.059424   -2.707633   -0.700340
     17          1           0        2.547272   -2.510078   -0.934857
     18          1           0        3.642121   -0.338789   -0.353711
     19          1           0       -3.486756    0.227897    0.218102
     20          1           0       -1.582269   -2.597240    1.055007
     21          1           0       -3.120363   -2.037195    0.658319
 ---------------------------------------------------------------------

 SCF Done:  E(UB3LYP) =  -512.801282069     A.U. after   29 cycles

 The electronic state is 2-A.
 Alpha  occ. eigenvalues --  -14.19160 -14.13481 -14.12355 -10.06346 -10.05884
 Alpha  occ. eigenvalues --  -10.04221 -10.03642 -10.03470 -10.03467 -10.02765
 Alpha  occ. eigenvalues --  -10.01708 -10.01552  -0.79900  -0.77795  -0.72557
 Alpha  occ. eigenvalues --   -0.65174  -0.64426  -0.60630  -0.56301  -0.50482
 Alpha  occ. eigenvalues --   -0.45974  -0.44851  -0.40679  -0.36237  -0.34305
 Alpha  occ. eigenvalues --   -0.33109  -0.32166  -0.29949  -0.29407  -0.26828
 Alpha  occ. eigenvalues --   -0.26250  -0.24717  -0.23744  -0.21546  -0.21479
 Alpha  occ. eigenvalues --   -0.19398  -0.18279  -0.16151  -0.14158  -0.11551
 Alpha  occ. eigenvalues --   -0.09597  -0.07341   0.04927
 Alpha virt. eigenvalues --    0.08233   0.08991   0.09993   0.11038   0.11396
 Alpha virt. eigenvalues --    0.12084   0.12550   0.13525   0.14011   0.15269
 Alpha virt. eigenvalues --    0.15838   0.16851   0.17719   0.17939   0.18210

  Beta  occ. eigenvalues --  -14.19108 -14.13141 -14.12178 -10.06440 -10.05594
  Beta  occ. eigenvalues --  -10.03968 -10.03581 -10.03491 -10.03466 -10.02743
  Beta  occ. eigenvalues --  -10.01411 -10.01373  -0.79439  -0.77422  -0.72295
  Beta  occ. eigenvalues --   -0.64745  -0.64098  -0.60197  -0.56027  -0.49719
  Beta  occ. eigenvalues --   -0.45847  -0.44490  -0.40527  -0.36090  -0.34078
  Beta  occ. eigenvalues --   -0.32815  -0.31999  -0.29718  -0.29243  -0.26660
  Beta  occ. eigenvalues --   -0.26108  -0.23923  -0.23321  -0.21256  -0.20614
  Beta  occ. eigenvalues --   -0.19095  -0.17574  -0.15971  -0.12679  -0.10394
  Beta  occ. eigenvalues --   -0.09179  -0.05942
  Beta virt. eigenvalues --    0.08165   0.08920   0.09927   0.10636   0.10981
  Beta virt. eigenvalues --    0.11620   0.12127   0.12619   0.13447   0.14153
  Beta virt. eigenvalues --    0.15387   0.16739   0.17098   0.17700   0.17998

 Mulliken charges and spin densities:
               1          2
     1  C   -0.387241   0.024214
     2  C   -0.118707  -0.063460
     3  N    0.161221   0.157034
     4  C    0.269195   0.164564
     5  C    0.172356   0.069632
     6  C   -0.875193   0.037093
     7  C    0.095456   0.261244
     8  C   -0.558545   0.055616
     9  C    0.401989   0.204509
    10  C   -0.747404  -0.034088
    11  N   -0.381675   0.091027
    12  N   -0.361361   0.041164
    13  H    0.165925  -0.000415
    14  H    0.136966  -0.003903
    15  H    0.115836  -0.001167
    16  H    0.132606   0.024994
    17  H    0.115228  -0.009145
    18  H    0.105333  -0.015827
    19  H    0.120472  -0.008209
    20  H    0.200739   0.007528
    21  H    0.236804  -0.002403
 Sum of Mulliken charges =  -1.00000   1.00000

 Dipole moment (field-independent basis, Debye):
    X=              1.9319    Y=             -5.3700    Z=              1.9589  Tot=              6.0337
 Quadrupole moment (field-independent basis, Debye-Ang):
   XX=            -87.7231   YY=            -96.8037   ZZ=            -81.0875
   XY=             13.1016   XZ=             -4.8771   YZ=              1.4921

 Summary of Natural Population Analysis:

                                       Natural Population
                Natural  -----------------------------------------------
    Atom  No    Charge         Core      Valence    Rydberg      Total
 -----------------------------------------------------------------------
      C    1   -0.29555      0.99964     2.29100    0.00491     3.29555
      C    2    0.08814      0.99956     1.90020    0.01209     2.91186
      N    3   -0.18453      0.99964     2.67228    0.01262     3.68453
      C    4    0.12073      0.99950     1.86678    0.01299     2.87927
      C    5   -0.11935      0.99953     2.11213    0.00770     3.11935
      C    6   -0.08499      0.99958     2.07621    0.00920     3.08499
      C    7   -0.07867      0.99951     2.07049    0.00866     3.07867
      C    8    0.16011      0.99949     1.82754    0.01287     2.83989
      C    9   -0.19006      0.99940     2.18171    0.00895     3.19006
      C   10    0.15197      0.99966     1.83052    0.01784     2.84803
      N   11   -0.20364      0.99978     2.69231    0.01155     3.70364
      N   12   -0.39349      0.99972     2.88488    0.00889     3.89349
      H   13    0.11130      0.00000     0.38769    0.00101     0.38870
      H   14    0.09841      0.00000     0.40048    0.00111     0.40159
      H   15    0.09013      0.00000     0.40905    0.00082     0.40987
      H   16    0.09814      0.00000     0.40066    0.00120     0.40186
      H   17    0.08779      0.00000     0.41059    0.00163     0.41221
      H   18    0.08759      0.00000     0.41129    0.00112     0.41241
      H   19    0.09569      0.00000     0.40320    0.00111     0.40431
      H   20    0.18268      0.00000     0.31583    0.00149     0.31732
      H   21    0.17759      0.00000     0.32105    0.00136     0.32241
 =======================================================================
   * Total *   -0.00000     11.99501    29.86588    0.13911    42.00000

 Normal termination of Gaussian 16 at Wed Dec  9 18:25:50 2020.
