 Gaussian 16, Revision A.03,

 -----------------------------------------------------------
 # opt freq B3LYP/6-31G(d) empiricaldispersion=gd3bj scf=xqc
 -----------------------------------------------------------

 ------------------------------
 CID_90707080_JID_6442_neutraal
 ------------------------------
 Symbolic Z-matrix:
 Charge =  0 Multiplicity = 1

 SCF Done:  E(RB3LYP) =  -625.392513569     A.U. after   14 cycles
 SCF Done:  E(RB3LYP) =  -625.398220747     A.U. after   12 cycles
 SCF Done:  E(RB3LYP) =  -625.398638016     A.U. after   12 cycles
 SCF Done:  E(RB3LYP) =  -625.399287221     A.U. after   11 cycles
 SCF Done:  E(RB3LYP) =  -625.399438098     A.U. after   10 cycles
 SCF Done:  E(RB3LYP) =  -625.399514157     A.U. after   10 cycles
 SCF Done:  E(RB3LYP) =  -625.399587125     A.U. after   11 cycles
 SCF Done:  E(RB3LYP) =  -625.399621145     A.U. after   10 cycles
 SCF Done:  E(RB3LYP) =  -625.399701748     A.U. after   11 cycles
 SCF Done:  E(RB3LYP) =  -625.399833683     A.U. after   11 cycles
 SCF Done:  E(RB3LYP) =  -625.401462087     A.U. after   10 cycles
 SCF Done:  E(RB3LYP) =  -625.401473686     A.U. after    8 cycles
 SCF Done:  E(RB3LYP) =  -625.401482104     A.U. after    9 cycles
 SCF Done:  E(RB3LYP) =  -625.401483993     A.U. after    8 cycles
 SCF Done:  E(RB3LYP) =  -625.401484385     A.U. after    7 cycles
 Optimization completed.
    -- Stationary point found.
 Normal termination of Gaussian 16 at Thu Dec 10 23:06:40 2020.

 --------------------------------------------------------------------
 #N Geom=AllCheck Guess=TCheck SCRF=Check GenChk RB3LYP/6-31G(d) Freq
 --------------------------------------------------------------------

 Structure from the checkpoint file:  "JID_6442.chk"
 ------------------------------
 CID_90707080_JID_6442_neutraal
 ------------------------------
 Charge =  0 Multiplicity = 1

 SCF Done:  E(RB3LYP) =  -625.401484385     A.U. after    1 cycles

  Exact polarizability: 228.475 -14.729 144.985  -7.541  -0.903 136.774
 Approx polarizability: 306.961 -30.692 213.129 -22.254   2.756 221.484

                      1                      2                      3
                      A                      A                      A
 Frequencies --     54.1728                81.2580                97.6925
 Red. masses --      2.9118                 2.9818                 3.0733
 Frc consts  --      0.0050                 0.0116                 0.0173
 IR Inten    --      0.0289                 0.0494                 0.0261

                      4                      5                      6
                      A                      A                      A
 Frequencies --    109.1323               134.4601               148.0220
 Red. masses --      2.5674                 2.2432                 2.6728
 Frc consts  --      0.0180                 0.0239                 0.0345
 IR Inten    --      0.1925                 0.1118                 0.1885

                      7                      8                      9
                      A                      A                      A
 Frequencies --    183.2976               197.6275               207.8484
 Red. masses --      3.5033                 2.6329                 2.0334
 Frc consts  --      0.0693                 0.0606                 0.0518
 IR Inten    --      0.2555                 0.7162                 0.1694

                     10                     11                     12
                      A                      A                      A
 Frequencies --    235.4428               250.4315               264.2297
 Red. masses --      1.4163                 1.8290                 1.9960
 Frc consts  --      0.0463                 0.0676                 0.0821
 IR Inten    --      0.2483                 0.3799                 0.1608

                     13                     14                     15
                      A                      A                      A
 Frequencies --    283.8488               289.5006               332.4186
 Red. masses --      2.2369                 2.4135                 2.1960
 Frc consts  --      0.1062                 0.1192                 0.1430
 IR Inten    --      0.2229                 4.3600                 0.3296

                     16                     17                     18
                      A                      A                      A
 Frequencies --    340.9600               376.3274               391.2419
 Red. masses --      2.6017                 2.2831                 3.0128
 Frc consts  --      0.1782                 0.1905                 0.2717
 IR Inten    --      0.2574                 0.5996                 0.3552

                     19                     20                     21
                      A                      A                      A
 Frequencies --    406.5581               431.8322               498.7499
 Red. masses --      2.4827                 2.4682                 2.6254
 Frc consts  --      0.2418                 0.2712                 0.3848
 IR Inten    --      0.3755                 4.1471                 1.0148

                     22                     23                     24
                      A                      A                      A
 Frequencies --    518.3101               538.2289               558.6139
 Red. masses --      2.3730                 3.1425                 2.1736
 Frc consts  --      0.3756                 0.5364                 0.3996
 IR Inten    --      1.6520                 2.6912                 6.7710

                     25                     26                     27
                      A                      A                      A
 Frequencies --    674.1969               707.4710               731.4218
 Red. masses --      3.8297                 2.2262                 1.8931
 Frc consts  --      1.0256                 0.6565                 0.5967
 IR Inten    --      0.4186                 1.2897                 2.5746

                     28                     29                     30
                      A                      A                      A
 Frequencies --    761.8433               776.9114               782.4721
 Red. masses --      1.8937                 1.4411                 1.7728
 Frc consts  --      0.6476                 0.5125                 0.6395
 IR Inten    --      0.8640                 9.3001                 2.4808

                     31                     32                     33
                      A                      A                      A
 Frequencies --    793.2255               837.2947               840.2784
 Red. masses --      1.9119                 2.3895                 1.6784
 Frc consts  --      0.7088                 0.9870                 0.6982
 IR Inten    --      0.2998                 3.9257                26.1969

                     34                     35                     36
                      A                      A                      A
 Frequencies --    866.1479               892.1510               901.1923
 Red. masses --      2.1220                 2.1868                 1.6976
 Frc consts  --      0.9379                 1.0255                 0.8123
 IR Inten    --      7.5937                 8.3512                 8.9522

                     37                     38                     39
                      A                      A                      A
 Frequencies --    926.9722               935.4021               956.2902
 Red. masses --      2.1656                 1.6794                 2.1854
 Frc consts  --      1.0964                 0.8658                 1.1775
 IR Inten    --      0.3622                 9.0522                 2.1440

                     40                     41                     42
                      A                      A                      A
 Frequencies --    970.5777               983.5575               995.1591
 Red. masses --      1.6485                 1.9109                 2.0576
 Frc consts  --      0.9150                 1.0891                 1.2006
 IR Inten    --      1.8671                 4.0584                 1.2423

                     43                     44                     45
                      A                      A                      A
 Frequencies --   1006.6661              1027.5139              1034.2758
 Red. masses --      2.4284                 1.2503                 2.1452
 Frc consts  --      1.4499                 0.7778                 1.3521
 IR Inten    --      4.4906                21.5488                 6.5857

                     46                     47                     48
                      A                      A                      A
 Frequencies --   1048.1361              1063.8881              1067.5505
 Red. masses --      1.6779                 1.9869                 2.4589
 Frc consts  --      1.0861                 1.3250                 1.6510
 IR Inten    --      8.0144                 5.2562                 3.7106

                     49                     50                     51
                      A                      A                      A
 Frequencies --   1090.6463              1109.1171              1118.2072
 Red. masses --      1.8286                 1.9258                 1.8554
 Frc consts  --      1.2815                 1.3957                 1.3669
 IR Inten    --      0.4310                 0.6187                 0.4704

                     52                     53                     54
                      A                      A                      A
 Frequencies --   1121.3370              1141.3349              1155.2682
 Red. masses --      2.0651                 2.5959                 1.8098
 Frc consts  --      1.5299                 1.9924                 1.4231
 IR Inten    --      3.1910                 3.0817                 0.0604

                     55                     56                     57
                      A                      A                      A
 Frequencies --   1187.5170              1191.2545              1213.7356
 Red. masses --      1.2669                 1.2957                 1.5027
 Frc consts  --      1.0526                 1.0833                 1.3043
 IR Inten    --      1.0455                 0.7490                 2.4691

                     58                     59                     60
                      A                      A                      A
 Frequencies --   1222.0265              1228.4262              1233.9615
 Red. masses --      1.3712                 1.4938                 1.3800
 Frc consts  --      1.2064                 1.3281                 1.2380
 IR Inten    --      1.2983                 4.0813                 1.0201

                     61                     62                     63
                      A                      A                      A
 Frequencies --   1247.4555              1283.4659              1296.2163
 Red. masses --      1.3693                 1.4271                 1.2946
 Frc consts  --      1.2554                 1.3851                 1.2816
 IR Inten    --      0.7664                 0.8265                 0.5371

                     64                     65                     66
                      A                      A                      A
 Frequencies --   1298.5740              1314.0279              1322.0734
 Red. masses --      1.2716                 1.2630                 1.3312
 Frc consts  --      1.2634                 1.2849                 1.3709
 IR Inten    --      1.4589                 3.2383                 6.5741

                     67                     68                     69
                      A                      A                      A
 Frequencies --   1326.8080              1342.7781              1346.8204
 Red. masses --      1.2231                 1.3217                 1.2155
 Frc consts  --      1.2686                 1.4040                 1.2991
 IR Inten    --      1.2836                 2.8284                 1.4706

                     70                     71                     72
                      A                      A                      A
 Frequencies --   1350.8876              1356.5403              1364.8880
 Red. masses --      1.2319                 1.2690                 1.3482
 Frc consts  --      1.3245                 1.3759                 1.4798
 IR Inten    --      2.8158                 0.0477                 4.7905

                     73                     74                     75
                      A                      A                      A
 Frequencies --   1371.8241              1387.0893              1393.0161
 Red. masses --      1.4078                 1.3939                 1.4233
 Frc consts  --      1.5609                 1.5801                 1.6272
 IR Inten    --      2.5296                 4.7921                 3.2489

                     76                     77                     78
                      A                      A                      A
 Frequencies --   1397.6181              1404.2065              1412.8117
 Red. masses --      1.2782                 1.3647                 1.4494
 Frc consts  --      1.4711                 1.5854                 1.7045
 IR Inten    --      8.7156                 4.4438                 1.6416

                     79                     80                     81
                      A                      A                      A
 Frequencies --   1416.4713              1421.4724              1438.9480
 Red. masses --      1.5388                 1.3775                 1.2554
 Frc consts  --      1.8190                 1.6399                 1.5315
 IR Inten    --      3.4558                 0.3247                 5.0156

                     82                     83                     84
                      A                      A                      A
 Frequencies --   1504.6589              1508.3230              1511.6085
 Red. masses --      1.0760                 1.0794                 1.0791
 Frc consts  --      1.4352                 1.4468                 1.4527
 IR Inten    --      0.9737                 0.8983                 2.2471

                     85                     86                     87
                      A                      A                      A
 Frequencies --   1516.1893              1518.1435              1522.4333
 Red. masses --      1.0831                 1.0952                 1.0824
 Frc consts  --      1.4670                 1.4873                 1.4781
 IR Inten    --      3.0458                 1.3850                 6.6147

                     88                     89                     90
                      A                      A                      A
 Frequencies --   1524.7090              1525.6335              1528.1954
 Red. masses --      1.0955                 1.0579                 1.0898
 Frc consts  --      1.5005                 1.4508                 1.4995
 IR Inten    --      0.6370                 9.1096                 2.6233

                     91                     92                     93
                      A                      A                      A
 Frequencies --   1531.8187              1539.7957              1696.8556
 Red. masses --      1.0495                 1.0868                 7.0665
 Frc consts  --      1.4509                 1.5182                11.9879
 IR Inten    --      2.6221                 4.1318                 0.2101

                     94                     95                     96
                      A                      A                      A
 Frequencies --   1724.0641              3014.3372              3016.2959
 Red. masses --      6.1530                 1.0656                 1.0669
 Frc consts  --     10.7757                 5.7049                 5.7190
 IR Inten    --      0.7767                25.6600                16.6088

                     97                     98                     99
                      A                      A                      A
 Frequencies --   3024.9821              3026.6683              3029.7391
 Red. masses --      1.0680                 1.0672                 1.0658
 Frc consts  --      5.7577                 5.7601                 5.7641
 IR Inten    --     31.0302                46.5175                57.5169

                    100                    101                    102
                      A                      A                      A
 Frequencies --   3036.3290              3038.7823              3040.1472
 Red. masses --      1.0665                 1.0619                 1.0384
 Frc consts  --      5.7933                 5.7774                 5.6547
 IR Inten    --     12.6429                37.5015                21.0881

                    103                    104                    105
                      A                      A                      A
 Frequencies --   3044.9621              3045.8885              3048.4901
 Red. masses --      1.0776                 1.0812                 1.0834
 Frc consts  --      5.8868                 5.9099                 5.9320
 IR Inten    --     45.6599                29.0612                21.0156

                    106                    107                    108
                      A                      A                      A
 Frequencies --   3055.6038              3060.9338              3071.4224
 Red. masses --      1.0977                 1.0933                 1.0757
 Frc consts  --      6.0383                 6.0352                 5.9786
 IR Inten    --     20.6540                42.7947                55.0175

                    109                    110                    111
                      A                      A                      A
 Frequencies --   3073.7023              3075.6938              3078.1617
 Red. masses --      1.0892                 1.0968                 1.0988
 Frc consts  --      6.0632                 6.1133                 6.1339
 IR Inten    --     27.1785                 7.3157                59.3164

                    112                    113                    114
                      A                      A                      A
 Frequencies --   3081.2682              3097.0890              3105.9368
 Red. masses --      1.0947                 1.0925                 1.1035
 Frc consts  --      6.1234                 6.1740                 6.2718
 IR Inten    --     42.3036                54.7072                38.4642

                    115                    116                    117
                      A                      A                      A
 Frequencies --   3109.1027              3110.9587              3130.8398
 Red. masses --      1.1028                 1.1030                 1.0881
 Frc consts  --      6.2807                 6.2893                 6.2841
 IR Inten    --     47.6751                56.3611                16.4086

                    118                    119                    120
                      A                      A                      A
 Frequencies --   3140.2487              3150.6977              3169.0797
 Red. masses --      1.0882                 1.0871                 1.0847
 Frc consts  --      6.3222                 6.3584                 6.4184
 IR Inten    --      5.9806                38.2498                21.7699

 - Thermochemistry -
 -------------------
 Temperature   298.150 Kelvin.  Pressure   1.00000 Atm.
 Atom     1 has atomic number  6 and mass  12.00000

 Molecular mass:   218.20345 amu.
 Principal axes and moments of inertia in atomic units:
                           1         2         3
     Eigenvalues --  1809.032965691.319876566.24483
           X            0.99999   0.00497   0.00063
           Y           -0.00496   0.99995  -0.00884
           Z           -0.00067   0.00883   0.99996
 This molecule is an asymmetric top.
 Rotational symmetry number  1.
 Warning -- assumption of classical behavior for rotation
           may cause significant error
 Rotational temperatures (Kelvin)      0.04788     0.01522     0.01319
 Rotational constants (GHZ):           0.99763     0.31710     0.27485
 Zero-point vibrational energy    1023090.7 (Joules/Mol)
                                  244.52456 (Kcal/Mol)
 Warning -- explicit consideration of  24 degrees of freedom as
           vibrations may cause significant error
 Vibrational temperatures:     77.94   116.91   140.56   157.02   193.46
          (Kelvin)            212.97   263.72   284.34   299.05   338.75
                              360.32   380.17   408.40   416.53   478.28
                              490.57   541.45   562.91   584.95   621.31
                              717.59   745.73   774.39   803.72   970.02
                             1017.89  1052.35  1096.12  1117.80  1125.80
                             1141.27  1204.68  1208.97  1246.19  1283.61
                             1296.61  1333.71  1345.83  1375.89  1396.44
                             1415.12  1431.81  1448.37  1478.36  1488.09
                             1508.03  1530.70  1535.97  1569.20  1595.77
                             1608.85  1613.35  1642.13  1662.17  1708.57
                             1713.95  1746.29  1758.22  1767.43  1775.40
                             1794.81  1846.62  1864.97  1868.36  1890.59
                             1902.17  1908.98  1931.96  1937.77  1943.63
                             1951.76  1963.77  1973.75  1995.71  2004.24
                             2010.86  2020.34  2032.72  2037.99  2045.18
                             2070.33  2164.87  2170.14  2174.87  2181.46
                             2184.27  2190.44  2193.72  2195.05  2198.73
                             2203.95  2215.42  2441.40  2480.54  4336.96
                             4339.78  4352.27  4354.70  4359.12  4368.60
                             4372.13  4374.09  4381.02  4382.35  4386.10
                             4396.33  4404.00  4419.09  4422.37  4425.24
                             4428.79  4433.26  4456.02  4468.75  4473.31
                             4475.98  4504.58  4518.12  4533.15  4559.60

 Zero-point correction=                           0.389675 (Hartree/Particle)
 Thermal correction to Energy=                    0.405620
 Thermal correction to Enthalpy=                  0.406564
 Thermal correction to Gibbs Free Energy=         0.347751
 Sum of electronic and zero-point Energies=           -625.011810
 Sum of electronic and thermal Energies=              -624.995864
 Sum of electronic and thermal Enthalpies=            -624.994920
 Sum of electronic and thermal Free Energies=         -625.053734

                     E (Thermal)             CV                S
                      KCal/Mol        Cal/Mol-Kelvin    Cal/Mol-Kelvin
 Total                  254.530             64.340            123.783
 Electronic               0.000              0.000              0.000
 Translational            0.889              2.981             42.044
 Rotational               0.889              2.981             32.580
 Vibrational            252.753             58.378             49.159
 Vibration     1          0.596              1.976              4.659
 Vibration     2          0.600              1.962              3.860
 Vibration     3          0.603              1.951              3.500
 Vibration     4          0.606              1.942              3.284
 Vibration     5          0.613              1.919              2.881
 Vibration     6          0.617              1.905              2.697
 Vibration     7          0.631              1.863              2.295
 Vibration     8          0.637              1.843              2.155
 Vibration     9          0.641              1.829              2.062
 Vibration    10          0.655              1.787              1.837
 Vibration    11          0.663              1.762              1.728
 Vibration    12          0.671              1.739              1.634
 Vibration    13          0.682              1.704              1.510
 Vibration    14          0.686              1.693              1.477
 Vibration    15          0.714              1.611              1.248
 Vibration    16          0.720              1.594              1.208
 Vibration    17          0.747              1.521              1.054
 Vibration    18          0.759              1.489              0.995
 Vibration    19          0.771              1.456              0.939
 Vibration    20          0.793              1.401              0.853
 Vibration    21          0.854              1.253              0.661
 Vibration    22          0.873              1.209              0.614
 Vibration    23          0.893              1.166              0.569
 Vibration    24          0.914              1.121              0.527

                           ! Non-Optimized Parameters !
 Normal termination of Gaussian 16 at Thu Dec 10 23:23:44 2020.

 ----------------------------------------------------------------------
 # B3LYP/6-311++G(d,p) empiricaldispersion=gd3bj scf=xqc pop=npa geom=c
 heck
 ----------------------------------------------------------------------

 --------------------------------------
 CID_90707080_JID_6442_Energie_neutraal
 --------------------------------------
 Structure from the checkpoint file:  "JID_6442.chk"
 Charge =  0 Multiplicity = 1

 SCF Done:  E(RB3LYP) =  -625.566661197     A.U. after   14 cycles
 Normal termination of Gaussian 16 at Thu Dec 10 23:31:55 2020.

 ----------------------------------------------------------------------
 # B3LYP/6-311++G(d,p) empiricaldispersion=gd3bj scf=xqc pop=npa geom=c
 heck
 ----------------------------------------------------------------------

 ------------------------------------
 CID_90707080_JID_6442_Energie_kation
 ------------------------------------
 Structure from the checkpoint file:  "JID_6442.chk"
 Charge =  1 Multiplicity = 2

 SCF Done:  E(UB3LYP) =  -625.299459025     A.U. after   17 cycles
 Normal termination of Gaussian 16 at Thu Dec 10 23:44:57 2020.
 Gaussian 16:  ES64L-G16RevA.03 25-Dec-2016

 ----------------------------------------------------------------------
 # B3LYP/6-311++G(d,p) empiricaldispersion=gd3bj scf=xqc pop=npa geom=c
 heck
 ----------------------------------------------------------------------

 -----------------------------------
 CID_90707080_JID_6442_Energie_anion
 -----------------------------------
 Structure from the checkpoint file:  "JID_6442.chk"
 Charge = -1 Multiplicity = 2

                         Standard orientation:
 ---------------------------------------------------------------------
 Center     Atomic      Atomic             Coordinates (Angstroms)
 Number     Number       Type             X           Y           Z
 ---------------------------------------------------------------------
      1          6           0       -4.299416   -0.763745   -0.796359
      2          6           0       -3.446080    0.290021   -0.084138
      3          6           0       -3.093720   -0.138037    1.365807
      4          6           0       -1.773718   -0.952561    1.262263
      5          6           0       -1.273567   -0.712900   -0.151603
      6          6           0       -0.213156   -1.280945   -0.754298
      7          6           0        0.915343   -1.806495   -0.010977
      8          6           0        2.165836   -1.800648   -0.504370
      9          6           0        3.384847   -1.582910    0.338671
     10          6           0        4.105466   -0.275928   -0.101943
     11          6           0        3.236750    0.941884   -0.491929
     12          6           0        2.474237    1.693587    0.630135
     13          6           0        0.948428    1.484732    0.719462
     14          6           0        0.146871    1.902412   -0.528244
     15          6           0       -1.388443    1.792274   -0.371881
     16          6           0       -2.057091    0.426844   -0.746844
     17          1           0       -3.779066   -1.728842   -0.830162
     18          1           0       -4.513512   -0.467616   -1.830062
     19          1           0       -5.255546   -0.914058   -0.281948
     20          1           0       -3.983178    1.247024   -0.086515
     21          1           0       -2.943510    0.744802    1.995346
     22          1           0       -3.902415   -0.717032    1.823605
     23          1           0       -1.938861   -2.022282    1.432519
     24          1           0       -1.050379   -0.629481    2.022808
     25          1           0       -0.024406   -1.037542   -1.799958
     26          1           0        0.785556   -1.904943    1.066899
     27          1           0        2.299419   -1.693077   -1.582459
     28          1           0        3.086020   -1.519196    1.392029
     29          1           0        4.112432   -2.404466    0.263499
     30          1           0        4.814486    0.016374    0.684488
     31          1           0        4.715856   -0.519267   -0.982459
     32          1           0        3.920690    1.653782   -0.970951
     33          1           0        2.536203    0.642366   -1.278217
     34          1           0        2.913475    1.434264    1.603535
     35          1           0        2.654499    2.770059    0.505037
     36          1           0        0.581777    2.077977    1.569944
     37          1           0        0.737448    0.443382    0.961411
     38          1           0        0.468724    1.317032   -1.397873
     39          1           0        0.396369    2.947771   -0.758676
     40          1           0       -1.873566    2.559537   -0.989144
     41          1           0       -1.647413    2.039369    0.665741
     42          1           0       -2.106634    0.358553   -1.840942
 ---------------------------------------------------------------------

 SCF Done:  E(UB3LYP) =  -625.552352023     A.U. after   33 cycles
 SCF Done:  E(UB3LYP) =  -625.552352023     a.u. after    1 cycles

 The electronic state is 2-A.
 Alpha  occ. eigenvalues --  -10.07061 -10.06693 -10.06597 -10.06548 -10.06538
 Alpha  occ. eigenvalues --  -10.06511 -10.06158 -10.06132 -10.05885 -10.05855
 Alpha  occ. eigenvalues --  -10.05782 -10.05608 -10.05550 -10.05337 -10.05142
 Alpha  occ. eigenvalues --  -10.04850  -0.75252  -0.71270  -0.69166  -0.67546
 Alpha  occ. eigenvalues --   -0.64758  -0.63044  -0.61874  -0.57482  -0.56348
 Alpha  occ. eigenvalues --   -0.53246  -0.49931  -0.49070  -0.45945  -0.44786
 Alpha  occ. eigenvalues --   -0.43563  -0.41732  -0.38121  -0.37106  -0.36620
 Alpha  occ. eigenvalues --   -0.35854  -0.34345  -0.32776  -0.32029  -0.31595
 Alpha  occ. eigenvalues --   -0.31301  -0.30213  -0.29918  -0.29007  -0.28249
 Alpha  occ. eigenvalues --   -0.26680  -0.26347  -0.25291  -0.25277  -0.24429
 Alpha  occ. eigenvalues --   -0.23727  -0.23189  -0.22545  -0.22517  -0.21562
 Alpha  occ. eigenvalues --   -0.21205  -0.20601  -0.20451  -0.19875  -0.18002
 Alpha  occ. eigenvalues --   -0.09816   0.04551
 Alpha virt. eigenvalues --    0.06258   0.06913   0.07229   0.07806   0.08294
 Alpha virt. eigenvalues --    0.08702   0.08759   0.09754   0.09877   0.10318
 Alpha virt. eigenvalues --    0.10818   0.11070   0.11279   0.11688   0.12910

  Beta  occ. eigenvalues --  -10.07052 -10.06701 -10.06589 -10.06553 -10.06541
  Beta  occ. eigenvalues --  -10.06482 -10.06150 -10.06106 -10.05869 -10.05839
  Beta  occ. eigenvalues --  -10.05771 -10.05587 -10.05549 -10.05190 -10.05011
  Beta  occ. eigenvalues --  -10.04835  -0.75140  -0.71174  -0.69096  -0.67482
  Beta  occ. eigenvalues --   -0.64681  -0.62970  -0.61819  -0.57416  -0.56283
  Beta  occ. eigenvalues --   -0.53180  -0.49882  -0.48986  -0.45876  -0.44738
  Beta  occ. eigenvalues --   -0.43470  -0.41615  -0.38039  -0.37024  -0.36575
  Beta  occ. eigenvalues --   -0.35812  -0.34288  -0.32724  -0.31959  -0.31546
  Beta  occ. eigenvalues --   -0.31261  -0.30164  -0.29862  -0.28933  -0.28208
  Beta  occ. eigenvalues --   -0.26615  -0.26289  -0.25230  -0.25214  -0.24369
  Beta  occ. eigenvalues --   -0.23683  -0.23141  -0.22499  -0.22472  -0.21524
  Beta  occ. eigenvalues --   -0.21152  -0.20569  -0.20373  -0.19813  -0.17774
  Beta  occ. eigenvalues --   -0.09169
  Beta virt. eigenvalues --    0.06529   0.06971   0.07453   0.07822   0.08324
  Beta virt. eigenvalues --    0.08756   0.08870   0.08948   0.10005   0.10050
  Beta virt. eigenvalues --    0.10612   0.11035   0.11281   0.11482   0.11800

 Mulliken charges and spin densities:
               1          2
     1  C    0.202445  -0.937844
     2  C   -1.849710   1.972265
     3  C    0.842899  -1.503323
     4  C   -1.457544   1.062300
     5  C    0.466047   0.215391
     6  C    0.069507  -0.432941
     7  C    0.391153  -0.662292
     8  C   -0.276310   0.375511
     9  C   -0.401270   0.124828
    10  C    0.419286  -1.084428
    11  C   -0.136080   0.389881
    12  C    0.418001  -1.169577
    13  C   -0.031847   0.083938
    14  C    0.674035  -0.899293
    15  C   -1.542279   1.320857
    16  C    1.810637  -2.092729
    17  H    0.049334   0.118347
    18  H   -0.122089   0.251324
    19  H   -0.080899   0.202628
    20  H   -0.077701   0.282701
    21  H    0.084578   0.042572
    22  H    0.050094   0.116152
    23  H   -0.076736   0.269479
    24  H    0.115175   0.049011
    25  H   -0.060303   0.212247
    26  H    0.077546   0.027262
    27  H    0.045866   0.078247
    28  H    0.096394   0.038613
    29  H    0.013628   0.145108
    30  H   -0.248014   0.388106
    31  H   -0.102941   0.244269
    32  H   -0.362896   0.545056
    33  H    0.185962  -0.101981
    34  H    0.088432   0.057425
    35  H   -0.010547   0.136881
    36  H    0.130287   0.030965
    37  H    0.110431  -0.228932
    38  H   -0.035703   0.161640
    39  H   -0.026859   0.197592
    40  H   -0.511421   0.679496
    41  H    0.036506   0.093633
    42  H    0.032905   0.199615
 Sum of Mulliken charges =  -1.00000   1.00000

 Dipole moment (field-independent basis, Debye):
    X=             -0.9986    Y=             -0.6289    Z=              2.8971  Tot=              3.1282
 Quadrupole moment (field-independent basis, Debye-Ang):
   XX=           -191.4148   YY=           -149.2354   ZZ=           -130.1197
   XY=             -2.8628   XZ=             -3.0695   YZ=              4.8731

 Summary of Natural Population Analysis:

                                       Natural Population
                Natural  -----------------------------------------------
    Atom  No    Charge         Core      Valence    Rydberg      Total
 -----------------------------------------------------------------------
      C    1   -0.28256      0.99965     2.27802    0.00488     3.28256
      C    2   -0.10789      0.99960     2.09744    0.01085     3.10789
      C    3   -0.18839      0.99963     2.18044    0.00832     3.18839
      C    4   -0.21512      0.99959     2.20760    0.00793     3.21512
      C    5    0.03149      0.99950     1.95724    0.01177     2.96851
      C    6   -0.11876      0.99940     2.10906    0.01031     3.11876
      C    7   -0.10713      0.99946     2.09849    0.00918     3.10713
      C    8   -0.06371      0.99952     2.05530    0.00889     3.06371
      C    9   -0.20624      0.99961     2.19720    0.00942     3.20624
      C   10   -0.18047      0.99962     2.17229    0.00855     3.18047
      C   11   -0.19572      0.99962     2.18722    0.00888     3.19572
      C   12   -0.18739      0.99963     2.17905    0.00871     3.18739
      C   13   -0.18940      0.99961     2.18277    0.00702     3.18940
      C   14   -0.19338      0.99962     2.18523    0.00853     3.19338
      C   15   -0.18107      0.99961     2.17170    0.00977     3.18107
      C   16   -0.11918      0.99953     2.10719    0.01246     3.11918
      H   17    0.10050      0.00000     0.39842    0.00107     0.39950
      H   18    0.09868      0.00000     0.40034    0.00098     0.40132
      H   19    0.09548      0.00000     0.40362    0.00090     0.40452
      H   20    0.09500      0.00000     0.40360    0.00140     0.40500
      H   21    0.09578      0.00000     0.40315    0.00107     0.40422
      H   22    0.09765      0.00000     0.40147    0.00088     0.40235
      H   23    0.10665      0.00000     0.39226    0.00109     0.39335
      H   24    0.10207      0.00000     0.39670    0.00124     0.39793
      H   25    0.09425      0.00000     0.40434    0.00140     0.40575
      H   26    0.09011      0.00000     0.40836    0.00153     0.40989
      H   27    0.08500      0.00000     0.41349    0.00151     0.41500
      H   28    0.09325      0.00000     0.40568    0.00107     0.40675
      H   29    0.09889      0.00000     0.39998    0.00113     0.40111
      H   30    0.09469      0.00000     0.40394    0.00137     0.40531
      H   31    0.09390      0.00000     0.40489    0.00121     0.40610
      H   32    0.09731      0.00000     0.40150    0.00119     0.40269
      H   33    0.09905      0.00000     0.39958    0.00137     0.40095
      H   34    0.09296      0.00000     0.40604    0.00100     0.40704
      H   35    0.09308      0.00000     0.40588    0.00104     0.40692
      H   36    0.08892      0.00000     0.41001    0.00107     0.41108
      H   37    0.10251      0.00000     0.39552    0.00197     0.39749
      H   38    0.09826      0.00000     0.40038    0.00135     0.40174
      H   39    0.09499      0.00000     0.40390    0.00110     0.40501
      H   40    0.10076      0.00000     0.39767    0.00158     0.39924
      H   41    0.09100      0.00000     0.40751    0.00150     0.40900
      H   42    0.10418      0.00000     0.39401    0.00181     0.39582
 =======================================================================
   * Total *   -0.00000     15.99319    44.82849    0.17831    61.00000

 Normal termination of Gaussian 16 at Fri Dec 11 00:10:32 2020.
