 Gaussian 16, Revision A.03,

 -----------------------------------------------------------
 # opt freq B3LYP/6-31G(d) empiricaldispersion=gd3bj scf=xqc
 -----------------------------------------------------------

 ------------------------------
 CID_81773082_JID_4364_neutraal
 ------------------------------
 Symbolic Z-matrix:
 Charge =  0 Multiplicity = 1

 SCF Done:  E(RB3LYP) =  -650.601019076     A.U. after   15 cycles
 SCF Done:  E(RB3LYP) =  -650.621564777     A.U. after   12 cycles
 SCF Done:  E(RB3LYP) =  -650.621105829     A.U. after   14 cycles
 SCF Done:  E(RB3LYP) =  -650.622284905     A.U. after   12 cycles
 SCF Done:  E(RB3LYP) =  -650.625450449     A.U. after   13 cycles
 SCF Done:  E(RB3LYP) =  -650.619222193     A.U. after   15 cycles
 SCF Done:  E(RB3LYP) =  -650.626128367     A.U. after   13 cycles
 SCF Done:  E(RB3LYP) =  -650.627462709     A.U. after   12 cycles
 SCF Done:  E(RB3LYP) =  -650.625674340     A.U. after   14 cycles
 SCF Done:  E(RB3LYP) =  -650.626962782     A.U. after   12 cycles
 SCF Done:  E(RB3LYP) =  -650.628961632     A.U. after   11 cycles
 SCF Done:  E(RB3LYP) =  -650.628987561     A.U. after   10 cycles
 SCF Done:  E(RB3LYP) =  -650.628997643     A.U. after   10 cycles
 SCF Done:  E(RB3LYP) =  -650.628998628     A.U. after    8 cycles
 SCF Done:  E(RB3LYP) =  -650.628998787     A.U. after    7 cycles
 Optimization completed.
    -- Stationary point found.
 Normal termination of Gaussian 16 at Thu Dec 10 09:33:10 2020.

 --------------------------------------------------------------------
 #N Geom=AllCheck Guess=TCheck SCRF=Check GenChk RB3LYP/6-31G(d) Freq
 --------------------------------------------------------------------

 Structure from the checkpoint file:  "JID_4364.chk"
 ------------------------------
 CID_81773082_JID_4364_neutraal
 ------------------------------
 Charge =  0 Multiplicity = 1

 SCF Done:  E(RB3LYP) =  -650.628998787     A.U. after    1 cycles

  Exact polarizability: 136.450 -13.273 118.510  -0.260  -0.351  94.020
 Approx polarizability: 184.183 -31.065 177.598  -7.489   3.033 147.488

                      1                      2                      3
                      A                      A                      A
 Frequencies --     36.8391                52.3322                62.8265
 Red. masses --      3.7809                 5.5852                 4.9262
 Frc consts  --      0.0030                 0.0090                 0.0115
 IR Inten    --      0.0866                 3.5139                 0.3507

                      4                      5                      6
                      A                      A                      A
 Frequencies --     94.4933               146.1805               146.6621
 Red. masses --      3.5449                 4.2490                 4.0516
 Frc consts  --      0.0186                 0.0535                 0.0513
 IR Inten    --      0.3488                 2.2762                 1.3880

                      7                      8                      9
                      A                      A                      A
 Frequencies --    163.9363               220.7610               247.0765
 Red. masses --      4.7173                 1.2574                 2.2134
 Frc consts  --      0.0747                 0.0361                 0.0796
 IR Inten    --      3.0629                82.0630                 8.6814

                     10                     11                     12
                      A                      A                      A
 Frequencies --    262.4320               291.7831               318.7512
 Red. masses --      3.6857                 1.5966                 1.8548
 Frc consts  --      0.1496                 0.0801                 0.1110
 IR Inten    --      3.4310                33.4289                12.5713

                     13                     14                     15
                      A                      A                      A
 Frequencies --    344.3904               361.3967               385.0601
 Red. masses --      2.4600                 3.0019                 3.3333
 Frc consts  --      0.1719                 0.2310                 0.2912
 IR Inten    --     21.3732                 1.7917                16.8434

                     16                     17                     18
                      A                      A                      A
 Frequencies --    398.1500               409.4795               458.6392
 Red. masses --      2.2602                 2.4390                 3.0045
 Frc consts  --      0.2111                 0.2409                 0.3724
 IR Inten    --      5.9612                 5.3980                14.5424

                     19                     20                     21
                      A                      A                      A
 Frequencies --    488.5269               509.0642               529.3567
 Red. masses --      3.4191                 6.3438                 4.3128
 Frc consts  --      0.4808                 0.9686                 0.7121
 IR Inten    --      7.8093                 3.7573                 5.4979

                     22                     23                     24
                      A                      A                      A
 Frequencies --    594.1489               625.9291               630.3453
 Red. masses --      1.2023                 1.2153                 3.9727
 Frc consts  --      0.2501                 0.2805                 0.9300
 IR Inten    --     43.8654                57.4424                 8.9737

                     25                     26                     27
                      A                      A                      A
 Frequencies --    687.1374               736.4574               766.8473
 Red. masses --      1.9839                 3.2356                 4.7455
 Frc consts  --      0.5519                 1.0340                 1.6442
 IR Inten    --      5.4949                 4.2552                 6.1381

                     28                     29                     30
                      A                      A                      A
 Frequencies --    808.1039               813.4836               891.2658
 Red. masses --      1.5947                 3.2976                 2.9782
 Frc consts  --      0.6136                 1.2857                 1.3938
 IR Inten    --      1.1325                17.2940                10.7516

                     31                     32                     33
                      A                      A                      A
 Frequencies --    925.2157               945.6364               964.8757
 Red. masses --      2.3175                 2.2689                 2.3026
 Frc consts  --      1.1689                 1.1954                 1.2630
 IR Inten    --     45.3936                85.8182                17.7013

                     34                     35                     36
                      A                      A                      A
 Frequencies --    990.0880              1011.9774              1013.7216
 Red. masses --      2.9332                 2.2962                 1.6223
 Frc consts  --      1.6941                 1.3855                 0.9823
 IR Inten    --     38.3754                18.5584                 8.5441

                     37                     38                     39
                      A                      A                      A
 Frequencies --   1021.9996              1046.3739              1048.8015
 Red. masses --      2.5969                 2.3128                 2.1308
 Frc consts  --      1.5981                 1.4920                 1.3809
 IR Inten    --    108.8967                10.9435                10.9549

                     40                     41                     42
                      A                      A                      A
 Frequencies --   1114.5949              1127.5121              1143.0452
 Red. masses --      1.5547                 1.9829                 1.9152
 Frc consts  --      1.1380                 1.4852                 1.4743
 IR Inten    --      8.1233                74.9662                18.8672

                     43                     44                     45
                      A                      A                      A
 Frequencies --   1175.1280              1198.6178              1213.9802
 Red. masses --      2.1605                 1.2830                 1.2449
 Frc consts  --      1.7578                 1.0860                 1.0810
 IR Inten    --      1.5887                10.9460               106.5136

                     46                     47                     48
                      A                      A                      A
 Frequencies --   1229.1298              1252.1447              1283.6591
 Red. masses --      1.2444                 1.3260                 1.4364
 Frc consts  --      1.1076                 1.2249                 1.3945
 IR Inten    --     31.9668                 5.6243                13.7897

                     49                     50                     51
                      A                      A                      A
 Frequencies --   1294.8381              1314.3907              1347.2851
 Red. masses --      2.2445                 1.4488                 1.4710
 Frc consts  --      2.2172                 1.4747                 1.5732
 IR Inten    --     64.1442                 3.0594                 7.0480

                     52                     53                     54
                      A                      A                      A
 Frequencies --   1364.5815              1367.3857              1379.9408
 Red. masses --      1.4126                 1.3488                 1.3946
 Frc consts  --      1.5498                 1.4859                 1.5647
 IR Inten    --     10.8567                 1.2506                 1.7728

                     55                     56                     57
                      A                      A                      A
 Frequencies --   1402.4170              1406.9647              1419.4376
 Red. masses --      1.3780                 1.4928                 1.4281
 Frc consts  --      1.5968                 1.7410                 1.6953
 IR Inten    --      2.7975                 4.5013                52.0359

                     58                     59                     60
                      A                      A                      A
 Frequencies --   1435.1477              1445.3857              1492.3603
 Red. masses --      1.3602                 1.2464                 2.0101
 Frc consts  --      1.6506                 1.5342                 2.6377
 IR Inten    --     28.3270                57.7079                63.7111

                     61                     62                     63
                      A                      A                      A
 Frequencies --   1496.3247              1500.7831              1509.8483
 Red. masses --      1.1814                 1.1171                 1.0953
 Frc consts  --      1.5585                 1.4824                 1.4711
 IR Inten    --     12.5965                20.5385                10.8465

                     64                     65                     66
                      A                      A                      A
 Frequencies --   1522.3151              1531.8404              1709.6962
 Red. masses --      1.0875                 1.1052                 1.1033
 Frc consts  --      1.4849                 1.5280                 1.9001
 IR Inten    --      3.0456                17.2874                43.6645

                     67                     68                     69
                      A                      A                      A
 Frequencies --   1732.4099              2238.5337              2991.1313
 Red. masses --      8.5962                 5.9939                 1.0742
 Frc consts  --     15.2004                17.6966                 5.6623
 IR Inten    --    256.8231                 3.7237                12.0427

                     70                     71                     72
                      A                      A                      A
 Frequencies --   2995.0603              3050.5084              3058.9472
 Red. masses --      1.0747                 1.0607                 1.0614
 Frc consts  --      5.6798                 5.8153                 5.8517
 IR Inten    --    105.4593                 7.3070                17.2883

                     73                     74                     75
                      A                      A                      A
 Frequencies --   3068.1525              3090.6987              3094.7386
 Red. masses --      1.0616                 1.0852                 1.0989
 Frc consts  --      5.8878                 6.1074                 6.2011
 IR Inten    --     10.0679                53.2039                 3.2497

                     76                     77                     78
                      A                      A                      A
 Frequencies --   3108.0447              3118.7198              3119.7882
 Red. masses --      1.1042                 1.1017                 1.0904
 Frc consts  --      6.2847                 6.3132                 6.2529
 IR Inten    --     29.2909                 8.5569                37.6657

                     79                     80                     81
                      A                      A                      A
 Frequencies --   3174.6024              3184.1554              3447.5497
 Red. masses --      1.0890                 1.0875                 1.0503
 Frc consts  --      6.4663                 6.4961                 7.3550
 IR Inten    --      3.6828                10.9881                 3.9889

                     82                     83                     84
                      A                      A                      A
 Frequencies --   3494.7588              3530.9639              3746.9199
 Red. masses --      1.1596                 1.0904                 1.0655
 Frc consts  --      8.3444                 8.0099                 8.8137
 IR Inten    --     55.3357                 3.0329                 4.3374

 - Thermochemistry -
 -------------------
 Temperature   298.150 Kelvin.  Pressure   1.00000 Atm.
 Atom     1 has atomic number  6 and mass  12.00000

 Molecular mass:   196.12118 amu.
 Principal axes and moments of inertia in atomic units:
                           1         2         3
     Eigenvalues --  1649.504173821.071884677.88084
           X            0.99996  -0.00310   0.00859
           Y            0.00314   0.99999  -0.00448
           Z           -0.00858   0.00451   0.99995
 This molecule is an asymmetric top.
 Rotational symmetry number  1.
 Warning -- assumption of classical behavior for rotation
           may cause significant error
 Rotational temperatures (Kelvin)      0.05251     0.02267     0.01852
 Rotational constants (GHZ):           1.09411     0.47231     0.38580
 Zero-point vibrational energy     678133.0 (Joules/Mol)
                                  162.07768 (Kcal/Mol)
 Warning -- explicit consideration of  22 degrees of freedom as
           vibrations may cause significant error
 Vibrational temperatures:     53.00    75.29    90.39   135.95   210.32
          (Kelvin)            211.01   235.87   317.63   355.49   377.58
                              419.81   458.61   495.50   519.97   554.02
                              572.85   589.15   659.88   702.88   732.43
                              761.63   854.85   900.57   906.93   988.64
                             1059.60  1103.32  1162.68  1170.42  1282.33
                             1331.18  1360.56  1388.24  1424.52  1456.01
                             1458.52  1470.43  1505.50  1508.99  1603.65
                             1622.24  1644.59  1690.75  1724.54  1746.65
                             1768.44  1801.56  1846.90  1862.98  1891.12
                             1938.44  1963.33  1967.36  1985.43  2017.77
                             2024.31  2042.25  2064.86  2079.59  2147.17
                             2152.88  2159.29  2172.33  2190.27  2203.98
                             2459.87  2492.55  3220.75  4303.57  4309.22
                             4389.00  4401.14  4414.39  4446.83  4452.64
                             4471.78  4487.14  4488.68  4567.54  4581.29
                             4960.26  5028.18  5080.27  5390.98

 Zero-point correction=                           0.258287 (Hartree/Particle)
 Thermal correction to Energy=                    0.272750
 Thermal correction to Enthalpy=                  0.273694
 Thermal correction to Gibbs Free Energy=         0.216808
 Sum of electronic and zero-point Energies=           -650.370712
 Sum of electronic and thermal Energies=              -650.356249
 Sum of electronic and thermal Enthalpies=            -650.355304
 Sum of electronic and thermal Free Energies=         -650.412190

                     E (Thermal)             CV                S
                      KCal/Mol        Cal/Mol-Kelvin    Cal/Mol-Kelvin
 Total                  171.153             55.007            119.727
 Electronic               0.000              0.000              0.000
 Translational            0.889              2.981             41.726
 Rotational               0.889              2.981             31.756
 Vibrational            169.376             49.046             46.245
 Vibration     1          0.594              1.982              5.422
 Vibration     2          0.596              1.977              4.727
 Vibration     3          0.597              1.972              4.366
 Vibration     4          0.603              1.953              3.565
 Vibration     5          0.617              1.907              2.721
 Vibration     6          0.617              1.906              2.715
 Vibration     7          0.623              1.887              2.504
 Vibration     8          0.647              1.809              1.953
 Vibration     9          0.661              1.768              1.751
 Vibration    10          0.670              1.742              1.646
 Vibration    11          0.687              1.689              1.464
 Vibration    12          0.705              1.638              1.317
 Vibration    13          0.723              1.587              1.192
 Vibration    14          0.736              1.552              1.116
 Vibration    15          0.754              1.502              1.019
 Vibration    16          0.764              1.474              0.969
 Vibration    17          0.774              1.450              0.928
 Vibration    18          0.817              1.342              0.770
 Vibration    19          0.844              1.275              0.687
 Vibration    20          0.864              1.230              0.636
 Vibration    21          0.884              1.185              0.589
 Vibration    22          0.952              1.044              0.460

 Optimization completed.
    -- Stationary point found.
 Normal termination of Gaussian 16 at Thu Dec 10 09:42:58 2020.

 ----------------------------------------------------------------------
 # B3LYP/6-311++G(d,p) empiricaldispersion=gd3bj scf=xqc pop=npa geom=c
 heck
 ----------------------------------------------------------------------

 --------------------------------------
 CID_81773082_JID_4364_Energie_neutraal
 --------------------------------------
 Structure from the checkpoint file:  "JID_4364.chk"
 Charge =  0 Multiplicity = 1

 SCF Done:  E(RB3LYP) =  -650.833157368     A.U. after   15 cycles
 Normal termination of Gaussian 16 at Thu Dec 10 09:47:38 2020.

 ----------------------------------------------------------------------
 # B3LYP/6-311++G(d,p) empiricaldispersion=gd3bj scf=xqc pop=npa geom=c
 heck
 ----------------------------------------------------------------------

 ------------------------------------
 CID_81773082_JID_4364_Energie_kation
 ------------------------------------
 Structure from the checkpoint file:  "JID_4364.chk"
 Charge =  1 Multiplicity = 2

 SCF Done:  E(UB3LYP) =  -650.514744119     A.U. after   29 cycles
 Normal termination of Gaussian 16 at Thu Dec 10 10:00:16 2020.
 Gaussian 16:  ES64L-G16RevA.03 25-Dec-2016

 ----------------------------------------------------------------------
 # B3LYP/6-311++G(d,p) empiricaldispersion=gd3bj scf=xqc pop=npa geom=c
 heck
 ----------------------------------------------------------------------

 -----------------------------------
 CID_81773082_JID_4364_Energie_anion
 -----------------------------------
 Structure from the checkpoint file:  "JID_4364.chk"
 Charge = -1 Multiplicity = 2

                         Standard orientation:
 ---------------------------------------------------------------------
 Center     Atomic      Atomic             Coordinates (Angstroms)
 Number     Number       Type             X           Y           Z
 ---------------------------------------------------------------------
      1          6           0        1.193773    2.966268   -0.591927
      2          6           0        1.907906    2.000878   -0.460868
      3          6           0        2.792587    0.852201   -0.287006
      4          6           0        2.213913   -0.277686    0.598243
      5          6           0        1.052317   -0.973840   -0.146622
      6          8           0        1.350276   -1.793769   -1.017576
      7          7           0       -0.246574   -0.703036    0.179349
      8          6           0       -0.717651    0.313299    1.119329
      9          6           0       -1.736490    1.248663    0.455011
     10          6           0       -2.885676    0.481094   -0.209800
     11          6           0       -2.317437   -0.571323   -1.171556
     12          6           0       -1.308178   -1.480499   -0.466359
     13          8           0       -3.769823   -0.097596    0.753556
     14          7           0        3.293969   -1.228942    0.863785
     15          1           0        0.577005    3.827209   -0.713718
     16          1           0        3.041470    0.418465   -1.264336
     17          1           0        3.735419    1.168440    0.173306
     18          1           0        1.903622    0.145874    1.555111
     19          1           0        0.120145    0.904536    1.481359
     20          1           0       -1.171209   -0.186745    1.990552
     21          1           0       -1.209160    1.838861   -0.301888
     22          1           0       -2.140676    1.936348    1.206026
     23          1           0       -3.516779    1.183051   -0.763722
     24          1           0       -3.135403   -1.173510   -1.581878
     25          1           0       -1.815413   -0.067380   -2.006410
     26          1           0       -0.829319   -2.166982   -1.162534
     27          1           0       -1.813029   -2.085901    0.304123
     28          1           0       -3.276174   -0.764771    1.254483
     29          1           0        2.990567   -1.879119    1.588420
     30          1           0        3.393164   -1.797946    0.020661
 ---------------------------------------------------------------------

 SCF Done:  E(UB3LYP) =  -650.823114635     A.U. after   33 cycles
 SCF Done:  E(UB3LYP) =  -650.823114635     a.u. after    1 cycles

 The electronic state is 2-A.
 Alpha  occ. eigenvalues --  -19.02175 -18.98860 -14.24833 -14.20172 -10.17130
 Alpha  occ. eigenvalues --  -10.12556 -10.12145 -10.10929 -10.10692 -10.10368
 Alpha  occ. eigenvalues --  -10.08933 -10.07573 -10.07562 -10.07100  -0.94277
 Alpha  occ. eigenvalues --   -0.92527  -0.84354  -0.80124  -0.70456  -0.69484
 Alpha  occ. eigenvalues --   -0.67161  -0.63619  -0.59514  -0.55684  -0.53538
 Alpha  occ. eigenvalues --   -0.49440  -0.45640  -0.44415  -0.43571  -0.40716
 Alpha  occ. eigenvalues --   -0.39628  -0.37690  -0.37064  -0.36570  -0.35652
 Alpha  occ. eigenvalues --   -0.35074  -0.34034  -0.32578  -0.31790  -0.29942
 Alpha  occ. eigenvalues --   -0.28997  -0.28206  -0.27431  -0.26742  -0.25830
 Alpha  occ. eigenvalues --   -0.24897  -0.22691  -0.18964  -0.18830  -0.17775
 Alpha  occ. eigenvalues --   -0.17277  -0.15528  -0.14585   0.04281
 Alpha virt. eigenvalues --    0.06159   0.07363   0.07965   0.08602   0.08950
 Alpha virt. eigenvalues --    0.09682   0.09937   0.10201   0.10788   0.11435
 Alpha virt. eigenvalues --    0.11930   0.12183   0.12695   0.13131   0.13152

  Beta  occ. eigenvalues --  -19.02138 -18.98832 -14.24844 -14.20146 -10.17109
  Beta  occ. eigenvalues --  -10.12548 -10.12130 -10.10888 -10.10683 -10.10335
  Beta  occ. eigenvalues --  -10.08935 -10.07563 -10.07536 -10.07087  -0.94232
  Beta  occ. eigenvalues --   -0.92451  -0.84337  -0.80077  -0.70429  -0.69447
  Beta  occ. eigenvalues --   -0.67114  -0.63584  -0.59454  -0.55635  -0.53485
  Beta  occ. eigenvalues --   -0.49392  -0.45576  -0.44357  -0.43532  -0.40665
  Beta  occ. eigenvalues --   -0.39574  -0.37633  -0.37011  -0.36527  -0.35621
  Beta  occ. eigenvalues --   -0.35049  -0.34007  -0.32532  -0.31749  -0.29904
  Beta  occ. eigenvalues --   -0.28963  -0.28163  -0.27388  -0.26686  -0.25752
  Beta  occ. eigenvalues --   -0.24867  -0.22653  -0.18937  -0.18811  -0.17741
  Beta  occ. eigenvalues --   -0.17248  -0.15499  -0.14539
  Beta virt. eigenvalues --    0.06626   0.07469   0.07719   0.08473   0.09091
  Beta virt. eigenvalues --    0.09396   0.09950   0.10292   0.10431   0.11073
  Beta virt. eigenvalues --    0.11603   0.12129   0.12293   0.12803   0.13424

 Mulliken charges and spin densities:
               1          2
     1  C   -0.453534  -0.013891
     2  C    2.176455  -1.580778
     3  C   -1.931423   1.144483
     4  C    1.435403  -1.607461
     5  C   -0.822431   0.511970
     6  O   -0.351291   0.019013
     7  N   -0.000112   0.172295
     8  C    0.594810  -0.777764
     9  C    0.012547  -0.437283
    10  C   -0.040205  -0.160654
    11  C    0.187199  -0.576657
    12  C    0.210981  -0.399249
    13  O   -0.151779  -0.018913
    14  N   -0.302524   0.071152
    15  H   -0.832284   1.028204
    16  H    0.154652   0.036127
    17  H    0.155459   0.050877
    18  H   -0.420175   0.677376
    19  H    0.425121  -0.375626
    20  H   -0.910497   1.125237
    21  H    0.609230  -0.536185
    22  H   -0.330504   0.547683
    23  H   -0.240756   0.458857
    24  H    0.089528   0.104252
    25  H    0.006631   0.140170
    26  H    0.141065   0.054826
    27  H   -0.652931   0.840243
    28  H    0.154407   0.084075
    29  H   -0.061826   0.311445
    30  H    0.148784   0.106178
 Sum of Mulliken charges =  -1.00000   1.00000

 Dipole moment (field-independent basis, Debye):
    X=              1.9637    Y=              0.3020    Z=             -4.2323  Tot=              4.6755
 Quadrupole moment (field-independent basis, Debye-Ang):
   XX=           -144.0494   YY=           -134.9419   ZZ=           -124.4053
   XY=              1.2095   XZ=              4.5691   YZ=              4.2959

 Summary of Natural Population Analysis:

                                       Natural Population
                Natural  -----------------------------------------------
    Atom  No    Charge         Core      Valence    Rydberg      Total
 -----------------------------------------------------------------------
      C    1   -0.12360      0.99927     2.12050    0.00384     3.12360
      C    2    0.00018      0.99937     1.99289    0.00755     2.99982
      C    3   -0.23352      0.99954     2.22461    0.00937     3.23352
      C    4   -0.04046      0.99957     2.02800    0.01289     3.04046
      C    5    0.34468      0.99961     1.63136    0.02436     2.65532
      O    6   -0.33989      0.99988     3.33492    0.00509     4.33989
      N    7   -0.25479      0.99964     2.74038    0.01478     3.75479
      C    8   -0.08625      0.99959     2.07398    0.01269     3.08625
      C    9   -0.20694      0.99959     2.19846    0.00888     3.20694
      C   10    0.06487      0.99955     1.92157    0.01401     2.93513
      C   11   -0.20497      0.99960     2.19845    0.00692     3.20497
      C   12   -0.09223      0.99959     2.08050    0.01213     3.09223
      O   13   -0.37362      0.99990     3.36717    0.00654     4.37362
      N   14   -0.41833      0.99977     2.90866    0.00989     3.91833
      H   15    0.11425      0.00000     0.38392    0.00183     0.38575
      H   16    0.11652      0.00000     0.38219    0.00129     0.38348
      H   17    0.11956      0.00000     0.37896    0.00147     0.38044
      H   18    0.10120      0.00000     0.39648    0.00232     0.39880
      H   19    0.10772      0.00000     0.39013    0.00215     0.39228
      H   20    0.09648      0.00000     0.39877    0.00476     0.40352
      H   21    0.10432      0.00000     0.39386    0.00182     0.39568
      H   22    0.10678      0.00000     0.39179    0.00143     0.39322
      H   23    0.08917      0.00000     0.40960    0.00123     0.41083
      H   24    0.10420      0.00000     0.39482    0.00099     0.39580
      H   25    0.10119      0.00000     0.39748    0.00133     0.39881
      H   26    0.11942      0.00000     0.37935    0.00123     0.38058
      H   27    0.09303      0.00000     0.40461    0.00235     0.40697
      H   28    0.22997      0.00000     0.26512    0.00491     0.27003
      H   29    0.17951      0.00000     0.31850    0.00200     0.32049
      H   30    0.18156      0.00000     0.31626    0.00219     0.31844
 =======================================================================
   * Total *   -0.00000     13.99448    38.82329    0.18223    53.00000

 Normal termination of Gaussian 16 at Thu Dec 10 10:14:47 2020.
