 Gaussian 16, Revision A.03,

 -----------------------------------------------------------
 # opt freq B3LYP/6-31G(d) empiricaldispersion=gd3bj scf=xqc
 -----------------------------------------------------------

 -------------------------------
 CID_130496236_JID_3726_neutraal
 -------------------------------
 Symbolic Z-matrix:
 Charge =  0 Multiplicity = 1

 SCF Done:  E(RB3LYP) =  -592.697089159     A.U. after   14 cycles
 SCF Done:  E(RB3LYP) =  -592.701170680     A.U. after   12 cycles
 SCF Done:  E(RB3LYP) =  -592.702215040     A.U. after   11 cycles
 SCF Done:  E(RB3LYP) =  -592.702681091     A.U. after   12 cycles
 SCF Done:  E(RB3LYP) =  -592.702796017     A.U. after   11 cycles
 SCF Done:  E(RB3LYP) =  -592.702875003     A.U. after   11 cycles
 SCF Done:  E(RB3LYP) =  -592.702915561     A.U. after   10 cycles
 SCF Done:  E(RB3LYP) =  -592.702929120     A.U. after    9 cycles
 SCF Done:  E(RB3LYP) =  -592.702932880     A.U. after    8 cycles
 SCF Done:  E(RB3LYP) =  -592.702938825     A.U. after   10 cycles
 SCF Done:  E(RB3LYP) =  -592.702941665     A.U. after    9 cycles
 SCF Done:  E(RB3LYP) =  -592.702944200     A.U. after    9 cycles
 SCF Done:  E(RB3LYP) =  -592.702946210     A.U. after    9 cycles
 SCF Done:  E(RB3LYP) =  -592.702946448     A.U. after    7 cycles
 SCF Done:  E(RB3LYP) =  -592.702946498     A.U. after    6 cycles
 Optimization completed.
    -- Stationary point found.
 Normal termination of Gaussian 16 at Mon Dec 14 16:35:54 2020.

 --------------------------------------------------------------------
 #N Geom=AllCheck Guess=TCheck SCRF=Check GenChk RB3LYP/6-31G(d) Freq
 --------------------------------------------------------------------

 Structure from the checkpoint file:  "JID_3726.chk"
 -------------------------------
 CID_130496236_JID_3726_neutraal
 -------------------------------
 Charge =  0 Multiplicity = 1

 SCF Done:  E(RB3LYP) =  -592.702946498     A.U. after    1 cycles

  Exact polarizability: 162.708  -1.512 107.053  -2.788   5.847  84.361
 Approx polarizability: 199.804  -1.357 169.685  -0.163  17.344 125.535

                      1                      2                      3
                      A                      A                      A
 Frequencies --     33.3591                46.0430                68.6241
 Red. masses --      3.3602                 2.9089                 3.4086
 Frc consts  --      0.0022                 0.0036                 0.0095
 IR Inten    --      0.3473                 0.7624                 1.3223

                      4                      5                      6
                      A                      A                      A
 Frequencies --     73.4782               110.0244               176.9498
 Red. masses --      4.1365                 3.8986                 2.3255
 Frc consts  --      0.0132                 0.0278                 0.0429
 IR Inten    --      2.1459                 2.2086                 1.8871

                      7                      8                      9
                      A                      A                      A
 Frequencies --    197.8566               217.8715               230.9171
 Red. masses --      3.2139                 1.0867                 1.4580
 Frc consts  --      0.0741                 0.0304                 0.0458
 IR Inten    --      1.9117                 0.3881                 1.4736

                     10                     11                     12
                      A                      A                      A
 Frequencies --    270.1114               289.6052               320.3080
 Red. masses --      1.3196                 1.5919                 3.0540
 Frc consts  --      0.0567                 0.0787                 0.1846
 IR Inten    --      0.8719                 0.9105                 5.6226

                     13                     14                     15
                      A                      A                      A
 Frequencies --    350.2600               373.1389               400.5521
 Red. masses --      2.5123                 2.6573                 2.8337
 Frc consts  --      0.1816                 0.2180                 0.2679
 IR Inten    --      1.4864                 1.1630                 0.9963

                     16                     17                     18
                      A                      A                      A
 Frequencies --    415.0813               451.8686               476.2203
 Red. masses --      2.3836                 2.7304                 2.0984
 Frc consts  --      0.2420                 0.3285                 0.2804
 IR Inten    --      1.1688                 4.4750                 6.9903

                     19                     20                     21
                      A                      A                      A
 Frequencies --    531.0362               565.3391               618.2368
 Red. masses --      1.6973                 1.6105                 5.4653
 Frc consts  --      0.2820                 0.3033                 1.2308
 IR Inten    --     60.1948               176.2223                 1.7953

                     22                     23                     24
                      A                      A                      A
 Frequencies --    648.4687               712.5023               723.5226
 Red. masses --      3.6934                 2.0413                 3.5702
 Frc consts  --      0.9151                 0.6106                 1.1012
 IR Inten    --     51.0141                29.7149                26.5142

                     25                     26                     27
                      A                      A                      A
 Frequencies --    727.7550               761.6866               781.1771
 Red. masses --      3.2762                 1.2569                 3.9712
 Frc consts  --      1.0223                 0.4296                 1.4278
 IR Inten    --      0.7677                25.1793                15.0332

                     28                     29                     30
                      A                      A                      A
 Frequencies --    806.6546               831.2823               903.6797
 Red. masses --      1.1647                 1.2670                 1.9394
 Frc consts  --      0.4465                 0.5159                 0.9331
 IR Inten    --      0.8670                 0.3944                 9.1690

                     31                     32                     33
                      A                      A                      A
 Frequencies --    933.8559               960.2353               968.4764
 Red. masses --      2.0365                 1.6966                 2.4719
 Frc consts  --      1.0464                 0.9217                 1.3660
 IR Inten    --     13.6078                 9.8105                13.6787

                     34                     35                     36
                      A                      A                      A
 Frequencies --   1011.1648              1012.9767              1027.3032
 Red. masses --      2.3599                 2.1687                 4.4872
 Frc consts  --      1.4216                 1.3111                 2.7901
 IR Inten    --     13.6225                 8.7849                 5.5966

                     37                     38                     39
                      A                      A                      A
 Frequencies --   1038.6104              1070.4462              1108.8439
 Red. masses --      1.4513                 1.3781                 1.7871
 Frc consts  --      0.9224                 0.9304                 1.2946
 IR Inten    --      3.5838                15.8711                58.4329

                     40                     41                     42
                      A                      A                      A
 Frequencies --   1118.1867              1137.3334              1161.7820
 Red. masses --      1.9894                 1.7209                 1.7761
 Frc consts  --      1.4655                 1.3115                 1.4124
 IR Inten    --      6.8118                 0.7830                28.5133

                     43                     44                     45
                      A                      A                      A
 Frequencies --   1220.4043              1255.2700              1273.3082
 Red. masses --      2.0175                 1.8097                 2.5114
 Frc consts  --      1.7704                 1.6801                 2.3990
 IR Inten    --     83.2245                 5.4360                14.8475

                     46                     47                     48
                      A                      A                      A
 Frequencies --   1285.2701              1327.6306              1354.2559
 Red. masses --      2.2062                 1.6321                 1.5225
 Frc consts  --      2.1473                 1.6949                 1.6452
 IR Inten    --     17.9566                14.9028                74.9005

                     49                     50                     51
                      A                      A                      A
 Frequencies --   1368.6797              1387.8771              1408.8060
 Red. masses --      1.6552                 2.3092                 1.3364
 Frc consts  --      1.8269                 2.6207                 1.5628
 IR Inten    --     12.0295                12.7981                17.7055

                     52                     53                     54
                      A                      A                      A
 Frequencies --   1414.7224              1435.8579              1436.8433
 Red. masses --      1.2817                 1.2818                 1.4463
 Frc consts  --      1.5114                 1.5571                 1.7593
 IR Inten    --      9.9237                12.7481                39.5280

                     55                     56                     57
                      A                      A                      A
 Frequencies --   1445.6366              1476.3022              1493.5975
 Red. masses --      1.3740                 2.5215                 1.5326
 Frc consts  --      1.6918                 3.2378                 2.0145
 IR Inten    --     14.7672                12.2861                32.7092

                     58                     59                     60
                      A                      A                      A
 Frequencies --   1504.7822              1511.3596              1515.5765
 Red. masses --      1.3663                 1.0871                 1.1948
 Frc consts  --      1.8229                 1.4630                 1.6169
 IR Inten    --      7.7001                 6.0621                 2.8890

                     61                     62                     63
                      A                      A                      A
 Frequencies --   1518.2676              1521.9029              1528.9645
 Red. masses --      1.0630                 1.0781                 1.0788
 Frc consts  --      1.4437                 1.4712                 1.4858
 IR Inten    --      7.8163                 5.0295                 1.9401

                     64                     65                     66
                      A                      A                      A
 Frequencies --   1537.9000              1542.2809              1550.1810
 Red. masses --      1.0676                 1.0617                 3.3642
 Frc consts  --      1.4878                 1.4880                 4.7631
 IR Inten    --      1.9526                 5.6323                85.7940

                     67                     68                     69
                      A                      A                      A
 Frequencies --   1618.5622              3042.7222              3047.1404
 Red. masses --      4.4000                 1.0526                 1.0400
 Frc consts  --      6.7914                 5.7417                 5.6893
 IR Inten    --    286.8513                29.7554                20.2816

                     70                     71                     72
                      A                      A                      A
 Frequencies --   3057.7831              3060.2159              3071.6943
 Red. masses --      1.0369                 1.0358                 1.0600
 Frc consts  --      5.7123                 5.7151                 5.8929
 IR Inten    --     31.9474                22.2802                37.0040

                     73                     74                     75
                      A                      A                      A
 Frequencies --   3094.7650              3112.9453              3114.3321
 Red. masses --      1.1072                 1.1016                 1.1046
 Frc consts  --      6.2480                 6.2895                 6.3124
 IR Inten    --     18.2784                29.4778                 5.7778

                     76                     77                     78
                      A                      A                      A
 Frequencies --   3126.4244              3130.6827              3130.8564
 Red. masses --      1.1023                 1.1033                 1.1030
 Frc consts  --      6.3484                 6.3711                 6.3702
 IR Inten    --     25.5446                41.5598                15.2467

                     79                     80                     81
                      A                      A                      A
 Frequencies --   3134.5283              3151.8270              3266.0098
 Red. masses --      1.1020                 1.1033                 1.0940
 Frc consts  --      6.3792                 6.4574                 6.8757
 IR Inten    --     44.6754                20.6130                 2.9805

                     82                     83                     84
                      A                      A                      A
 Frequencies --   3296.9727              3580.7748              3687.6623
 Red. masses --      1.1012                 1.0752                 1.0649
 Frc consts  --      7.0528                 8.1229                 8.5320
 IR Inten    --      0.5939                13.8010                30.8253

 - Thermochemistry -
 -------------------
 Temperature   298.150 Kelvin.  Pressure   1.00000 Atm.
 Atom     1 has atomic number  6 and mass  12.00000

 Molecular mass:   183.13716 amu.
 Principal axes and moments of inertia in atomic units:
                           1         2         3
     Eigenvalues --   799.341535368.280185612.52160
           X            0.99996   0.00004  -0.00852
           Y           -0.00046   0.99881  -0.04873
           Z            0.00851   0.04873   0.99878
 This molecule is an asymmetric top.
 Rotational symmetry number  1.
 Warning -- assumption of classical behavior for rotation
           may cause significant error
 Rotational temperatures (Kelvin)      0.10836     0.01613     0.01543
 Rotational constants (GHZ):           2.25778     0.33619     0.32156
 Zero-point vibrational energy     692066.0 (Joules/Mol)
                                  165.40775 (Kcal/Mol)
 Warning -- explicit consideration of  21 degrees of freedom as
           vibrations may cause significant error
 Vibrational temperatures:     48.00    66.25    98.73   105.72   158.30
          (Kelvin)            254.59   284.67   313.47   332.24   388.63
                              416.68   460.85   503.95   536.86   576.31
                              597.21   650.14   685.17   764.04   813.40
                              889.50   933.00  1025.13  1040.99  1047.08
                             1095.90  1123.94  1160.60  1196.03  1300.19
                             1343.61  1381.56  1393.42  1454.84  1457.45
                             1478.06  1494.33  1540.13  1595.38  1608.82
                             1636.37  1671.55  1755.89  1806.05  1832.01
                             1849.22  1910.16  1948.47  1969.22  1996.85
                             2026.96  2035.47  2065.88  2067.30  2079.95
                             2124.07  2148.95  2165.05  2174.51  2180.58
                             2184.45  2189.68  2199.84  2212.70  2219.00
                             2230.36  2328.75  4377.80  4384.16  4399.47
                             4402.97  4419.48  4452.68  4478.83  4480.83
                             4498.23  4504.35  4504.60  4509.89  4534.78
                             4699.06  4743.61  5151.94  5305.72

 Zero-point correction=                           0.263594 (Hartree/Particle)
 Thermal correction to Energy=                    0.277654
 Thermal correction to Enthalpy=                  0.278598
 Thermal correction to Gibbs Free Energy=         0.222216
 Sum of electronic and zero-point Energies=           -592.439352
 Sum of electronic and thermal Energies=              -592.425292
 Sum of electronic and thermal Enthalpies=            -592.424348
 Sum of electronic and thermal Free Energies=         -592.480730

                     E (Thermal)             CV                S
                      KCal/Mol        Cal/Mol-Kelvin    Cal/Mol-Kelvin
 Total                  174.231             53.061            118.666
 Electronic               0.000              0.000              0.000
 Translational            0.889              2.981             41.522
 Rotational               0.889              2.981             31.555
 Vibrational            172.453             47.099             45.589
 Vibration     1          0.594              1.983              5.619
 Vibration     2          0.595              1.979              4.980
 Vibration     3          0.598              1.969              4.192
 Vibration     4          0.599              1.967              4.058
 Vibration     5          0.606              1.941              3.268
 Vibration     6          0.628              1.871              2.360
 Vibration     7          0.637              1.843              2.153
 Vibration     8          0.646              1.814              1.977
 Vibration     9          0.653              1.794              1.872
 Vibration    10          0.674              1.728              1.595
 Vibration    11          0.686              1.693              1.476
 Vibration    12          0.706              1.635              1.309
 Vibration    13          0.727              1.575              1.165
 Vibration    14          0.745              1.527              1.067
 Vibration    15          0.766              1.469              0.961
 Vibration    16          0.778              1.437              0.909
 Vibration    17          0.811              1.357              0.790
 Vibration    18          0.833              1.303              0.720
 Vibration    19          0.886              1.181              0.585
 Vibration    20          0.921              1.106              0.513
 Vibration    21          0.978              0.993              0.419

                           ! Non-Optimized Parameters !
 Normal termination of Gaussian 16 at Mon Dec 14 16:43:14 2020.

 ----------------------------------------------------------------------
 # B3LYP/6-311++G(d,p) empiricaldispersion=gd3bj scf=xqc pop=npa geom=c
 heck
 ----------------------------------------------------------------------

 ---------------------------------------
 CID_130496236_JID_3726_Energie_neutraal
 ---------------------------------------
 Structure from the checkpoint file:  "JID_3726.chk"
 Charge =  0 Multiplicity = 1

 SCF Done:  E(RB3LYP) =  -592.879680876     A.U. after   14 cycles
 Normal termination of Gaussian 16 at Mon Dec 14 16:46:40 2020.

 ----------------------------------------------------------------------
 # B3LYP/6-311++G(d,p) empiricaldispersion=gd3bj scf=xqc pop=npa geom=c
 heck
 ----------------------------------------------------------------------

 -------------------------------------
 CID_130496236_JID_3726_Energie_kation
 -------------------------------------
 Structure from the checkpoint file:  "JID_3726.chk"
 Charge =  1 Multiplicity = 2

 SCF Done:  E(UB3LYP) =  -592.602493138     A.U. after   22 cycles
 Normal termination of Gaussian 16 at Mon Dec 14 16:54:19 2020.
 Gaussian 16:  ES64L-G16RevA.03 25-Dec-2016

 ----------------------------------------------------------------------
 # B3LYP/6-311++G(d,p) empiricaldispersion=gd3bj scf=xqc pop=npa geom=c
 heck
 ----------------------------------------------------------------------

 ------------------------------------
 CID_130496236_JID_3726_Energie_anion
 ------------------------------------
 Structure from the checkpoint file:  "JID_3726.chk"
 Charge = -1 Multiplicity = 2

                         Standard orientation:
 ---------------------------------------------------------------------
 Center     Atomic      Atomic             Coordinates (Angstroms)
 Number     Number       Type             X           Y           Z
 ---------------------------------------------------------------------
      1          6           0       -4.504700   -0.896987    0.768588
      2          6           0       -4.040253    0.044845   -0.341617
      3          7           0       -2.619222    0.330182   -0.261712
      4          6           0       -2.008997    1.471463    0.141205
      5          6           0       -0.646487    1.234238    0.143789
      6          6           0       -0.532601   -0.114325   -0.283670
      7          7           0       -1.724775   -0.661693   -0.531980
      8          7           0        0.632182   -0.874276   -0.413199
      9          6           0        1.831422   -0.241361   -0.973114
     10          6           0        2.913733   -0.043002    0.109976
     11          6           0        3.481714   -1.393486    0.562228
     12          6           0        4.013218    0.880960   -0.402943
     13          8           0        2.317035    0.624461    1.227595
     14          1           0       -3.944776   -1.834687    0.719252
     15          1           0       -5.572320   -1.117377    0.660040
     16          1           0       -4.339238   -0.446971    1.753047
     17          1           0       -4.240423   -0.393004   -1.325087
     18          1           0       -4.562796    1.005066   -0.289824
     19          1           0       -2.579535    2.353912    0.395190
     20          1           0        0.151060    1.901983    0.429887
     21          1           0        0.419754   -1.783298   -0.805830
     22          1           0        2.227617   -0.859278   -1.788070
     23          1           0        1.566291    0.734592   -1.395917
     24          1           0        4.011649   -1.899683   -0.253662
     25          1           0        4.179331   -1.245447    1.392224
     26          1           0        2.672482   -2.048887    0.903916
     27          1           0        3.595189    1.858711   -0.663926
     28          1           0        4.773955    1.029735    0.369662
     29          1           0        4.497717    0.457566   -1.289758
     30          1           0        1.548179    0.077829    1.469677
 ---------------------------------------------------------------------

 SCF Done:  E(UB3LYP) =  -592.865226641     A.U. after   31 cycles

 The electronic state is 2-A.
 Alpha  occ. eigenvalues --  -19.02150 -14.28441 -14.22612 -14.21858 -10.13338
 Alpha  occ. eigenvalues --  -10.12535 -10.11666 -10.10692 -10.10602 -10.06926
 Alpha  occ. eigenvalues --  -10.06799 -10.06395 -10.06124  -0.94811  -0.92943
 Alpha  occ. eigenvalues --   -0.83403  -0.73970  -0.69321  -0.68756  -0.63893
 Alpha  occ. eigenvalues --   -0.60111  -0.59061  -0.54594  -0.49892  -0.47769
 Alpha  occ. eigenvalues --   -0.47044  -0.43281  -0.41030  -0.40083  -0.37766
 Alpha  occ. eigenvalues --   -0.36425  -0.35845  -0.35302  -0.32847  -0.32485
 Alpha  occ. eigenvalues --   -0.31887  -0.30374  -0.29670  -0.29188  -0.28410
 Alpha  occ. eigenvalues --   -0.28364  -0.27108  -0.26659  -0.26063  -0.23449
 Alpha  occ. eigenvalues --   -0.21139  -0.19890  -0.17878  -0.14961  -0.11204
 Alpha  occ. eigenvalues --    0.04255
 Alpha virt. eigenvalues --    0.05483   0.07361   0.07891   0.08113   0.08531
 Alpha virt. eigenvalues --    0.09008   0.10263   0.10441   0.10675   0.10802
 Alpha virt. eigenvalues --    0.10896   0.11372   0.11862   0.13048   0.13354

  Beta  occ. eigenvalues --  -19.02140 -14.28445 -14.22597 -14.21848 -10.13336
  Beta  occ. eigenvalues --  -10.12536 -10.11636 -10.10669 -10.10582 -10.06897
  Beta  occ. eigenvalues --  -10.06777 -10.06367 -10.06116  -0.94802  -0.92922
  Beta  occ. eigenvalues --   -0.83383  -0.73947  -0.69294  -0.68731  -0.63858
  Beta  occ. eigenvalues --   -0.60065  -0.59018  -0.54533  -0.49855  -0.47728
  Beta  occ. eigenvalues --   -0.47008  -0.43232  -0.41005  -0.40039  -0.37740
  Beta  occ. eigenvalues --   -0.36397  -0.35807  -0.35275  -0.32819  -0.32461
  Beta  occ. eigenvalues --   -0.31850  -0.30344  -0.29631  -0.29149  -0.28377
  Beta  occ. eigenvalues --   -0.28326  -0.27078  -0.26629  -0.26031  -0.23426
  Beta  occ. eigenvalues --   -0.21115  -0.19866  -0.17861  -0.14936  -0.11180
  Beta virt. eigenvalues --    0.06376   0.06915   0.07931   0.08436   0.08572
  Beta virt. eigenvalues --    0.08862   0.09622   0.10541   0.10689   0.10887
  Beta virt. eigenvalues --    0.11118   0.11256   0.11457   0.12232   0.13312

 Mulliken charges and spin densities:
               1          2
     1  C    0.725574  -1.207788
     2  C    0.065241  -0.233626
     3  N    0.359295  -0.076090
     4  C   -0.225705  -0.117734
     5  C    0.912517  -0.724669
     6  C    0.049525  -0.517336
     7  N   -0.577196   0.300754
     8  N   -0.213698   0.037101
     9  C    0.465881  -0.966452
    10  C   -1.320289   1.377455
    11  C    0.673101  -1.146836
    12  C    0.358512  -0.777061
    13  O   -0.118353  -0.026536
    14  H    0.031847   0.131847
    15  H   -0.338229   0.470407
    16  H   -0.082011   0.222202
    17  H   -0.096693   0.257905
    18  H   -0.653197   0.811106
    19  H   -0.750714   0.912570
    20  H    0.095607   0.113015
    21  H    0.090466   0.203172
    22  H   -0.425700   0.628669
    23  H    0.190551  -0.019230
    24  H   -0.245678   0.396886
    25  H   -0.035437   0.184138
    26  H    0.029772   0.109466
    27  H   -0.000525   0.140705
    28  H   -0.008577   0.163448
    29  H   -0.153980   0.300319
    30  H    0.198094   0.052194
 Sum of Mulliken charges =  -1.00000   1.00000

 Dipole moment (field-independent basis, Debye):
    X=              3.3894    Y=             -0.4343    Z=              0.7070  Tot=              3.4895
 Quadrupole moment (field-independent basis, Debye-Ang):
   XX=           -189.0696   YY=           -118.4896   ZZ=           -111.8270
   XY=             12.3654   XZ=              6.0405   YZ=             -5.2919

 Summary of Natural Population Analysis:

                                       Natural Population
                Natural  -----------------------------------------------
    Atom  No    Charge         Core      Valence    Rydberg      Total
 -----------------------------------------------------------------------
      C    1   -0.28953      0.99966     2.28451    0.00536     3.28953
      C    2   -0.07978      0.99962     2.06859    0.01157     3.07978
      N    3   -0.11160      0.99966     2.59786    0.01408     3.61160
      C    4    0.00572      0.99956     1.98305    0.01166     2.99428
      C    5   -0.18922      0.99951     2.18170    0.00801     3.18922
      C    6    0.16891      0.99956     1.81619    0.01534     2.83109
      N    7   -0.18395      0.99969     2.67340    0.01086     3.68395
      N    8   -0.33728      0.99968     2.82623    0.01138     3.83728
      C    9   -0.09546      0.99955     2.08371    0.01221     3.09546
      C   10    0.11888      0.99956     1.86598    0.01558     2.88112
      C   11   -0.29949      0.99961     2.29283    0.00704     3.29949
      C   12   -0.29128      0.99961     2.28450    0.00717     3.29128
      O   13   -0.38056      0.99989     3.37411    0.00655     4.38056
      H   14    0.10452      0.00000     0.39423    0.00126     0.39548
      H   15    0.10106      0.00000     0.39747    0.00148     0.39894
      H   16    0.09919      0.00000     0.39971    0.00111     0.40081
      H   17    0.09877      0.00000     0.39978    0.00144     0.40123
      H   18    0.10202      0.00000     0.39458    0.00340     0.39798
      H   19    0.10543      0.00000     0.39300    0.00157     0.39457
      H   20    0.11743      0.00000     0.38154    0.00104     0.38257
      H   21    0.19211      0.00000     0.30523    0.00267     0.30789
      H   22    0.09962      0.00000     0.39871    0.00167     0.40038
      H   23    0.09712      0.00000     0.40117    0.00170     0.40288
      H   24    0.10180      0.00000     0.39674    0.00147     0.39820
      H   25    0.10161      0.00000     0.39748    0.00091     0.39839
      H   26    0.10238      0.00000     0.39631    0.00130     0.39762
      H   27    0.10220      0.00000     0.39681    0.00099     0.39780
      H   28    0.10283      0.00000     0.39635    0.00082     0.39717
      H   29    0.10234      0.00000     0.39651    0.00115     0.39766
      H   30    0.23420      0.00000     0.26280    0.00299     0.26580
 =======================================================================
   * Total *    0.00000     12.99516    36.84107    0.16377    50.00000

 Normal termination of Gaussian 16 at Mon Dec 14 17:04:59 2020.
