 Gaussian 16, Revision A.03,

 -----------------------------------------------------------
 # opt freq B3LYP/6-31G(d) empiricaldispersion=gd3bj scf=xqc
 -----------------------------------------------------------

 ------------------------------
 CID_66274130_JID_5359_neutraal
 ------------------------------
 Symbolic Z-matrix:
 Charge =  0 Multiplicity = 1

 SCF Done:  E(RB3LYP) =  -656.492765621     A.U. after   12 cycles
 SCF Done:  E(RB3LYP) =  -656.497182164     A.U. after   10 cycles
 SCF Done:  E(RB3LYP) =  -656.497781306     A.U. after   10 cycles
 SCF Done:  E(RB3LYP) =  -656.498038180     A.U. after   10 cycles
 SCF Done:  E(RB3LYP) =  -656.498095488     A.U. after   10 cycles
 SCF Done:  E(RB3LYP) =  -656.498123858     A.U. after    9 cycles
 SCF Done:  E(RB3LYP) =  -656.498134551     A.U. after    8 cycles
 SCF Done:  E(RB3LYP) =  -656.498140583     A.U. after    8 cycles
 SCF Done:  E(RB3LYP) =  -656.498143991     A.U. after    9 cycles
 SCF Done:  E(RB3LYP) =  -656.498148904     A.U. after    9 cycles
 SCF Done:  E(RB3LYP) =  -656.498150852     A.U. after    9 cycles
 SCF Done:  E(RB3LYP) =  -656.498150763     A.U. after    7 cycles
 Optimization completed.
    -- Stationary point found.
 Normal termination of Gaussian 16 at Thu Dec 10 15:44:44 2020.

 --------------------------------------------------------------------
 #N Geom=AllCheck Guess=TCheck SCRF=Check GenChk RB3LYP/6-31G(d) Freq
 --------------------------------------------------------------------

 Structure from the checkpoint file:  "JID_5359.chk"
 ------------------------------
 CID_66274130_JID_5359_neutraal
 ------------------------------
 Charge =  0 Multiplicity = 1

 SCF Done:  E(RB3LYP) =  -656.498150763     A.U. after    1 cycles

  Exact polarizability: 161.107   1.802 131.760  -0.768   3.262 125.713
 Approx polarizability: 195.515   2.554 193.638   0.423   7.513 187.645

                      1                      2                      3
                      A                      A                      A
 Frequencies --     38.2339                59.8982                77.0758
 Red. masses --      3.9319                 3.5041                 2.9406
 Frc consts  --      0.0034                 0.0074                 0.0103
 IR Inten    --      1.9639                 0.3223                 0.1016

                      4                      5                      6
                      A                      A                      A
 Frequencies --     91.6696               150.1400               180.5915
 Red. masses --      2.9763                 2.7960                 2.3022
 Frc consts  --      0.0147                 0.0371                 0.0442
 IR Inten    --      2.8449                 1.6156                 0.7761

                      7                      8                      9
                      A                      A                      A
 Frequencies --    196.8659               220.7150               236.3358
 Red. masses --      2.4349                 2.3340                 1.6268
 Frc consts  --      0.0556                 0.0670                 0.0535
 IR Inten    --      0.3859                 0.2516                 0.1371

                     10                     11                     12
                      A                      A                      A
 Frequencies --    244.1611               277.6975               296.7796
 Red. masses --      1.1559                 1.7506                 2.2793
 Frc consts  --      0.0406                 0.0795                 0.1183
 IR Inten    --      0.0580                 0.3692                 1.5482

                     13                     14                     15
                      A                      A                      A
 Frequencies --    320.1828               344.1597               359.6763
 Red. masses --      2.3839                 1.7943                 2.2869
 Frc consts  --      0.1440                 0.1252                 0.1743
 IR Inten    --      1.5471                 5.6537                 1.0308

                     16                     17                     18
                      A                      A                      A
 Frequencies --    381.7552               394.1823               407.1945
 Red. masses --      3.3651                 3.1957                 2.3583
 Frc consts  --      0.2889                 0.2926                 0.2304
 IR Inten    --      3.3481                 1.5903                 1.2334

                     19                     20                     21
                      A                      A                      A
 Frequencies --    436.2620               453.9842               473.1480
 Red. masses --      2.7873                 2.9244                 2.6427
 Frc consts  --      0.3126                 0.3551                 0.3486
 IR Inten    --      3.1962                 0.9807                 1.1100

                     22                     23                     24
                      A                      A                      A
 Frequencies --    516.9288               545.1461               572.9832
 Red. masses --      2.4512                 2.1710                 2.0921
 Frc consts  --      0.3859                 0.3801                 0.4047
 IR Inten    --      2.8338                 2.3351                 1.7261

                     25                     26                     27
                      A                      A                      A
 Frequencies --    663.0066               767.8632               786.4632
 Red. masses --      2.7986                 2.5715                 2.1711
 Frc consts  --      0.7248                 0.8933                 0.7912
 IR Inten    --      0.3832                 5.3674                 8.4815

                     28                     29                     30
                      A                      A                      A
 Frequencies --    805.4301               842.1382               868.6410
 Red. masses --      1.8022                 2.6682                 2.0276
 Frc consts  --      0.6888                 1.1149                 0.9014
 IR Inten    --    154.7336                 4.6678                 3.4363

                     31                     32                     33
                      A                      A                      A
 Frequencies --    877.6355               904.1885               912.4733
 Red. masses --      2.2484                 1.7133                 1.4128
 Frc consts  --      1.0204                 0.8253                 0.6930
 IR Inten    --      0.8638                 3.6073                 2.6693

                     34                     35                     36
                      A                      A                      A
 Frequencies --    939.3334               949.9952               966.3516
 Red. masses --      1.8422                 1.8278                 1.6210
 Frc consts  --      0.9577                 0.9719                 0.8919
 IR Inten    --      0.5564                 6.1310                14.7377

                     37                     38                     39
                      A                      A                      A
 Frequencies --    994.7289               995.2548              1002.4018
 Red. masses --      1.7940                 2.3574                 1.5478
 Frc consts  --      1.0459                 1.3758                 0.9163
 IR Inten    --      3.7925                13.4885                14.0586

                     40                     41                     42
                      A                      A                      A
 Frequencies --   1024.8990              1043.9927              1068.6845
 Red. masses --      1.9054                 2.3580                 3.0045
 Frc consts  --      1.1792                 1.5142                 2.0217
 IR Inten    --      5.0661                 4.9748                 7.2056

                     43                     44                     45
                      A                      A                      A
 Frequencies --   1091.3748              1116.5916              1121.7845
 Red. masses --      2.3185                 2.1500                 2.0876
 Frc consts  --      1.6271                 1.5793                 1.5478
 IR Inten    --     10.5942                31.7370                18.3270

                     46                     47                     48
                      A                      A                      A
 Frequencies --   1134.5344              1137.6097              1153.8425
 Red. masses --      1.9583                 2.2482                 2.4113
 Frc consts  --      1.4851                 1.7143                 1.8914
 IR Inten    --      8.5515                22.9038                59.9627

                     49                     50                     51
                      A                      A                      A
 Frequencies --   1163.4559              1169.9004              1182.9592
 Red. masses --      2.3489                 2.4050                 2.4109
 Frc consts  --      1.8734                 1.9394                 1.9878
 IR Inten    --      5.3357                52.7262                35.3692

                     52                     53                     54
                      A                      A                      A
 Frequencies --   1202.2217              1211.8743              1226.5532
 Red. masses --      2.0579                 1.7762                 2.4759
 Frc consts  --      1.7525                 1.5369                 2.1946
 IR Inten    --     32.2180                 3.2069                30.5306

                     55                     56                     57
                      A                      A                      A
 Frequencies --   1255.1610              1280.9164              1297.6058
 Red. masses --      1.5238                 1.2401                 1.3315
 Frc consts  --      1.4144                 1.1988                 1.3209
 IR Inten    --     38.3034                 2.8007                16.6249

                     58                     59                     60
                      A                      A                      A
 Frequencies --   1326.4370              1327.1019              1332.4654
 Red. masses --      1.2771                 1.2552                 1.2810
 Frc consts  --      1.3239                 1.3025                 1.3400
 IR Inten    --     15.6499                16.1210                 0.1566

                     61                     62                     63
                      A                      A                      A
 Frequencies --   1339.1933              1366.4625              1372.3847
 Red. masses --      1.2259                 1.3316                 1.3715
 Frc consts  --      1.2953                 1.4649                 1.5220
 IR Inten    --      9.3401                 6.7809                 4.8235

                     64                     65                     66
                      A                      A                      A
 Frequencies --   1375.4811              1384.8767              1395.5247
 Red. masses --      1.2927                 1.3592                 1.3404
 Frc consts  --      1.4410                 1.5359                 1.5381
 IR Inten    --      2.1956                 0.8274                 2.3483

                     67                     68                     69
                      A                      A                      A
 Frequencies --   1401.1207              1407.2117              1410.1797
 Red. masses --      1.4453                 1.3063                 1.4504
 Frc consts  --      1.6718                 1.5241                 1.6994
 IR Inten    --      2.9708                10.8600                 5.7440

                     70                     71                     72
                      A                      A                      A
 Frequencies --   1413.0418              1433.6570              1437.1917
 Red. masses --      1.2785                 1.3279                 1.2872
 Frc consts  --      1.5041                 1.6080                 1.5665
 IR Inten    --      7.2971                19.4907                14.4275

                     73                     74                     75
                      A                      A                      A
 Frequencies --   1441.6491              1450.0972              1450.9669
 Red. masses --      1.2643                 1.2980                 1.3812
 Frc consts  --      1.5482                 1.6081                 1.7133
 IR Inten    --      9.4815                 0.4944                 6.7723

                     76                     77                     78
                      A                      A                      A
 Frequencies --   1498.0718              1500.6626              1507.7763
 Red. masses --      1.0956                 1.1047                 1.0837
 Frc consts  --      1.4486                 1.4657                 1.4515
 IR Inten    --      6.8770                 3.4353                 6.1788

                     79                     80                     81
                      A                      A                      A
 Frequencies --   1510.8056              1515.8353              1517.9687
 Red. masses --      1.0998                 1.1389                 1.0632
 Frc consts  --      1.4790                 1.5418                 1.4435
 IR Inten    --      3.3104                 7.1473                 4.7991

                     82                     83                     84
                      A                      A                      A
 Frequencies --   1519.5872              1527.2106              1530.4620
 Red. masses --      1.0953                 1.0781                 1.0504
 Frc consts  --      1.4902                 1.4815                 1.4495
 IR Inten    --      1.8798                 3.7278                 4.1881

                     85                     86                     87
                      A                      A                      A
 Frequencies --   1532.7496              1532.9707              1545.2758
 Red. masses --      1.0502                 1.0930                 1.0879
 Frc consts  --      1.4537                 1.5134                 1.5305
 IR Inten    --      9.4242                 0.2981                 2.1383

                     88                     89                     90
                      A                      A                      A
 Frequencies --   2909.7812              2953.2267              2977.2285
 Red. masses --      1.0736                 1.0718                 1.0732
 Frc consts  --      5.3558                 5.5075                 5.6050
 IR Inten    --     55.7446                19.3988                95.6144

                     91                     92                     93
                      A                      A                      A
 Frequencies --   3006.0116              3006.6541              3009.0766
 Red. masses --      1.0762                 1.0829                 1.0722
 Frc consts  --      5.7298                 5.7676                 5.7200
 IR Inten    --      3.8939                44.6067                13.5345

                     94                     95                     96
                      A                      A                      A
 Frequencies --   3021.6808              3028.4455              3041.0040
 Red. masses --      1.0797                 1.0668                 1.0674
 Frc consts  --      5.8083                 5.7645                 5.8159
 IR Inten    --     26.1113                26.7027                56.0383

                     97                     98                     99
                      A                      A                      A
 Frequencies --   3042.9645              3043.8321              3053.0750
 Red. masses --      1.0415                 1.0633                 1.0361
 Frc consts  --      5.6821                 5.8040                 5.6903
 IR Inten    --     50.1801                 4.1022                21.6881

                    100                    101                    102
                      A                      A                      A
 Frequencies --   3057.7954              3085.9200              3086.9933
 Red. masses --      1.0965                 1.0898                 1.1002
 Frc consts  --      6.0405                 6.1143                 6.1772
 IR Inten    --     67.6606                81.1309                39.9812

                    103                    104                    105
                      A                      A                      A
 Frequencies --   3095.8443              3097.3330              3099.7100
 Red. masses --      1.0920                 1.0924                 1.0911
 Frc consts  --      6.1661                 6.1746                 6.1768
 IR Inten    --     23.2381                11.5452                32.1629

                    106                    107                    108
                      A                      A                      A
 Frequencies --   3102.2337              3106.3890              3121.2079
 Red. masses --      1.1005                 1.0986                 1.1024
 Frc consts  --      6.2398                 6.2460                 6.3273
 IR Inten    --     37.4558                53.0996                38.5409

                    109                    110                    111
                      A                      A                      A
 Frequencies --   3129.6564              3138.7213              3464.9430
 Red. masses --      1.0992                 1.1018                 1.0735
 Frc consts  --      6.3432                 6.3952                 7.5935
 IR Inten    --     38.5372                24.3421                 2.8518

 - Thermochemistry -
 -------------------
 Temperature   298.150 Kelvin.  Pressure   1.00000 Atm.
 Atom     1 has atomic number  6 and mass  12.00000

 Molecular mass:   212.18886 amu.
 Principal axes and moments of inertia in atomic units:
                           1         2         3
     Eigenvalues --  1641.873825639.624075759.90154
           X            0.99998  -0.00163  -0.00641
           Y            0.00183   0.99950   0.03167
           Z            0.00636  -0.03168   0.99948
 This molecule is an asymmetric top.
 Rotational symmetry number  1.
 Warning -- assumption of classical behavior for rotation
           may cause significant error
 Rotational temperatures (Kelvin)      0.05275     0.01536     0.01504
 Rotational constants (GHZ):           1.09920     0.32001     0.31333
 Zero-point vibrational energy     947560.7 (Joules/Mol)
                                  226.47245 (Kcal/Mol)
 Warning -- explicit consideration of  24 degrees of freedom as
           vibrations may cause significant error
 Vibrational temperatures:     55.01    86.18   110.89   131.89   216.02
          (Kelvin)            259.83   283.25   317.56   340.03   351.29
                              399.54   427.00   460.67   495.17   517.49
                              549.26   567.14   585.86   627.68   653.18
                              680.75   743.75   784.34   824.40   953.92
                             1104.78  1131.55  1158.83  1211.65  1249.78
                             1262.72  1300.93  1312.85  1351.49  1366.83
                             1390.36  1431.19  1431.95  1442.23  1474.60
                             1502.07  1537.60  1570.24  1606.53  1614.00
                             1632.34  1636.77  1660.12  1673.95  1683.23
                             1702.01  1729.73  1743.62  1764.74  1805.90
                             1842.95  1866.97  1908.45  1909.40  1917.12
                             1926.80  1966.03  1974.56  1979.01  1992.53
                             2007.85  2015.90  2024.66  2028.93  2033.05
                             2062.71  2067.80  2074.21  2086.37  2087.62
                             2155.39  2159.12  2169.35  2173.71  2180.95
                             2184.02  2186.35  2197.32  2201.99  2205.28
                             2205.60  2223.31  4186.53  4249.03  4283.57
                             4324.98  4325.90  4329.39  4347.52  4357.26
                             4375.33  4378.15  4379.40  4392.69  4399.49
                             4439.95  4441.49  4454.23  4456.37  4459.79
                             4463.42  4469.40  4490.72  4502.88  4515.92
                             4985.28

 Zero-point correction=                           0.360907 (Hartree/Particle)
 Thermal correction to Energy=                    0.376042
 Thermal correction to Enthalpy=                  0.376986
 Thermal correction to Gibbs Free Energy=         0.319128
 Sum of electronic and zero-point Energies=           -656.137244
 Sum of electronic and thermal Energies=              -656.122109
 Sum of electronic and thermal Enthalpies=            -656.121165
 Sum of electronic and thermal Free Energies=         -656.179023

                     E (Thermal)             CV                S
                      KCal/Mol        Cal/Mol-Kelvin    Cal/Mol-Kelvin
 Total                  235.970             60.035            121.773
 Electronic               0.000              0.000              0.000
 Translational            0.889              2.981             41.960
 Rotational               0.889              2.981             32.345
 Vibrational            234.192             54.073             47.468
 Vibration     1          0.594              1.982              5.349
 Vibration     2          0.597              1.973              4.461
 Vibration     3          0.599              1.964              3.964
 Vibration     4          0.602              1.955              3.624
 Vibration     5          0.618              1.903              2.670
 Vibration     6          0.630              1.866              2.322
 Vibration     7          0.636              1.844              2.162
 Vibration     8          0.647              1.810              1.953
 Vibration     9          0.655              1.785              1.830
 Vibration    10          0.659              1.772              1.772
 Vibration    11          0.679              1.715              1.548
 Vibration    12          0.690              1.680              1.435
 Vibration    13          0.706              1.635              1.309
 Vibration    14          0.723              1.587              1.193
 Vibration    15          0.734              1.555              1.124
 Vibration    16          0.751              1.509              1.032
 Vibration    17          0.761              1.483              0.984
 Vibration    18          0.772              1.455              0.937
 Vibration    19          0.797              1.391              0.838
 Vibration    20          0.812              1.352              0.784
 Vibration    21          0.830              1.310              0.729
 Vibration    22          0.872              1.212              0.617
 Vibration    23          0.900              1.150              0.554
 Vibration    24          0.929              1.090              0.499

 Optimization completed.
    -- Stationary point found.
 Normal termination of Gaussian 16 at Thu Dec 10 15:58:33 2020.

 ----------------------------------------------------------------------
 # B3LYP/6-311++G(d,p) empiricaldispersion=gd3bj scf=xqc pop=npa geom=c
 heck
 ----------------------------------------------------------------------

 --------------------------------------
 CID_66274130_JID_5359_Energie_neutraal
 --------------------------------------
 Structure from the checkpoint file:  "JID_5359.chk"
 Charge =  0 Multiplicity = 1

 SCF Done:  E(RB3LYP) =  -656.682698085     A.U. after   14 cycles
 Normal termination of Gaussian 16 at Thu Dec 10 16:04:54 2020.

 ----------------------------------------------------------------------
 # B3LYP/6-311++G(d,p) empiricaldispersion=gd3bj scf=xqc pop=npa geom=c
 heck
 ----------------------------------------------------------------------

 ------------------------------------
 CID_66274130_JID_5359_Energie_kation
 ------------------------------------
 Structure from the checkpoint file:  "JID_5359.chk"
 Charge =  1 Multiplicity = 2

 SCF Done:  E(UB3LYP) =  -656.413731241     A.U. after   22 cycles
 Normal termination of Gaussian 16 at Thu Dec 10 16:16:55 2020.
 Gaussian 16:  ES64L-G16RevA.03 25-Dec-2016

 ----------------------------------------------------------------------
 # B3LYP/6-311++G(d,p) empiricaldispersion=gd3bj scf=xqc pop=npa geom=c
 heck
 ----------------------------------------------------------------------

 -----------------------------------
 CID_66274130_JID_5359_Energie_anion
 -----------------------------------
 Structure from the checkpoint file:  "JID_5359.chk"
 Charge = -1 Multiplicity = 2

                         Standard orientation:
 ---------------------------------------------------------------------
 Center     Atomic      Atomic             Coordinates (Angstroms)
 Number     Number       Type             X           Y           Z
 ---------------------------------------------------------------------
      1          6           0       -1.349614   -0.920708    2.180310
      2          6           0       -1.937585   -0.115002    1.018968
      3          6           0       -3.396032   -0.524563    0.745586
      4          6           0       -3.990057    0.244010   -0.441294
      5          7           0       -3.198049    0.132794   -1.667988
      6          6           0       -1.801816    0.505971   -1.442253
      7          6           0       -1.110122   -0.246183   -0.282676
      8          7           0        0.302282    0.152930   -0.211051
      9          6           0        0.563538    1.442551    0.407197
     10          6           0        1.930386    2.028797    0.038074
     11          6           0        3.122974    1.265149    0.621103
     12          8           0        3.554144    0.119741   -0.094228
     13          6           0        2.582815   -0.772143   -0.648751
     14          6           0        1.266553   -0.883837    0.138591
     15          6           0        3.288984   -2.120827   -0.745427
     16          1           0       -1.993145   -0.850597    3.065346
     17          1           0       -1.263920   -1.982315    1.915930
     18          1           0       -0.354039   -0.566316    2.462562
     19          1           0       -1.945838    0.947951    1.304690
     20          1           0       -3.432538   -1.603948    0.530661
     21          1           0       -4.002634   -0.365272    1.647998
     22          1           0       -4.056079    1.311830   -0.187896
     23          1           0       -5.010343   -0.095266   -0.653826
     24          1           0       -3.231737   -0.833819   -1.992400
     25          1           0       -1.780564    1.586570   -1.246245
     26          1           0       -1.229007    0.339486   -2.359947
     27          1           0       -1.111336   -1.310533   -0.558431
     28          1           0       -0.214690    2.140958    0.085749
     29          1           0        0.505921    1.393778    1.513716
     30          1           0        1.968626    3.049584    0.441387
     31          1           0        2.029587    2.106697   -1.050747
     32          1           0        2.894078    1.001528    1.668168
     33          1           0        4.002785    1.917027    0.642485
     34          1           0        2.312261   -0.424021   -1.657324
     35          1           0        1.496264   -0.923606    1.219278
     36          1           0        0.818832   -1.848958   -0.116059
     37          1           0        2.693347   -2.833665   -1.326293
     38          1           0        4.260491   -1.997672   -1.232377
     39          1           0        3.460749   -2.536722    0.254094
 ---------------------------------------------------------------------

 SCF Done:  E(UB3LYP) =  -656.667563611     A.U. after   30 cycles

 The electronic state is 2-A.
 Alpha  occ. eigenvalues --  -19.02330 -14.20639 -14.19929 -10.12387 -10.12041
 Alpha  occ. eigenvalues --  -10.09892 -10.09886 -10.09843 -10.09336 -10.08961
 Alpha  occ. eigenvalues --  -10.07530 -10.07509 -10.06708 -10.06622 -10.06093
 Alpha  occ. eigenvalues --   -0.93622  -0.83473  -0.80935  -0.70405  -0.70321
 Alpha  occ. eigenvalues --   -0.66678  -0.63655  -0.60927  -0.59909  -0.56295
 Alpha  occ. eigenvalues --   -0.52461  -0.51461  -0.49492  -0.46992  -0.45757
 Alpha  occ. eigenvalues --   -0.41720  -0.40609  -0.39369  -0.38531  -0.36538
 Alpha  occ. eigenvalues --   -0.35520  -0.35137  -0.34456  -0.32955  -0.32176
 Alpha  occ. eigenvalues --   -0.31391  -0.30989  -0.30858  -0.29606  -0.29142
 Alpha  occ. eigenvalues --   -0.28401  -0.27370  -0.26371  -0.26208  -0.25702
 Alpha  occ. eigenvalues --   -0.24750  -0.24572  -0.24283  -0.22672  -0.22155
 Alpha  occ. eigenvalues --   -0.21086  -0.15947  -0.13619  -0.10856   0.04338
 Alpha virt. eigenvalues --    0.05974   0.06570   0.07084   0.07922   0.08212
 Alpha virt. eigenvalues --    0.08860   0.09313   0.09737   0.10188   0.10642
 Alpha virt. eigenvalues --    0.11006   0.11317   0.11999   0.12293   0.12760

  Beta  occ. eigenvalues --  -19.02330 -14.20629 -14.19912 -10.12383 -10.12027
  Beta  occ. eigenvalues --  -10.09880 -10.09874 -10.09831 -10.09322 -10.08954
  Beta  occ. eigenvalues --  -10.07514 -10.07504 -10.06689 -10.06599 -10.06070
  Beta  occ. eigenvalues --   -0.93617  -0.83448  -0.80903  -0.70379  -0.70298
  Beta  occ. eigenvalues --   -0.66651  -0.63626  -0.60894  -0.59871  -0.56257
  Beta  occ. eigenvalues --   -0.52418  -0.51408  -0.49441  -0.46955  -0.45711
  Beta  occ. eigenvalues --   -0.41706  -0.40572  -0.39341  -0.38494  -0.36518
  Beta  occ. eigenvalues --   -0.35481  -0.35101  -0.34430  -0.32930  -0.32149
  Beta  occ. eigenvalues --   -0.31371  -0.30954  -0.30820  -0.29577  -0.29111
  Beta  occ. eigenvalues --   -0.28375  -0.27340  -0.26347  -0.26180  -0.25667
  Beta  occ. eigenvalues --   -0.24709  -0.24533  -0.24249  -0.22639  -0.22126
  Beta  occ. eigenvalues --   -0.21072  -0.15937  -0.13580  -0.10808
  Beta virt. eigenvalues --    0.06428   0.07045   0.07122   0.07496   0.08328
  Beta virt. eigenvalues --    0.08677   0.09130   0.09773   0.10004   0.10584
  Beta virt. eigenvalues --    0.11026   0.11362   0.11541   0.12079   0.12654

 Mulliken charges and spin densities:
               1          2
     1  C    0.991295  -1.603479
     2  C   -0.486394   1.494339
     3  C   -0.131432  -0.265555
     4  C    0.123461  -0.725084
     5  N   -0.146058   0.157737
     6  C    1.298881  -1.717921
     7  C   -1.523724   0.162827
     8  N    0.375954   0.112381
     9  C    0.282200  -0.527849
    10  C   -0.066275  -0.129635
    11  C    0.325386  -0.620862
    12  O   -0.102670   0.027666
    13  C   -1.550301   1.223786
    14  C    0.305529  -0.449024
    15  C    1.087488  -1.716835
    16  H   -0.249954   0.408120
    17  H   -0.030341   0.182261
    18  H   -0.310432   0.440928
    19  H   -0.091688   0.244731
    20  H   -0.189174   0.350263
    21  H   -0.118759   0.259305
    22  H    0.093695   0.048637
    23  H   -0.368269   0.551782
    24  H   -0.000759   0.228460
    25  H    0.131301   0.025000
    26  H    0.101654   0.100024
    27  H   -0.412756   0.548730
    28  H   -0.098931   0.235064
    29  H    0.121541   0.024069
    30  H   -0.600894   0.770699
    31  H    0.222312  -0.065209
    32  H   -0.068451   0.192627
    33  H   -0.180984   0.371240
    34  H    0.057666   0.106094
    35  H    0.444422  -0.281446
    36  H   -0.048902   0.210614
    37  H   -0.161083   0.302643
    38  H    0.028295   0.117752
    39  H   -0.052851   0.205121
 Sum of Mulliken charges =  -1.00000   1.00000

 Dipole moment (field-independent basis, Debye):
    X=              1.9599    Y=              1.1331    Z=             -0.8036  Tot=              2.4023
 Quadrupole moment (field-independent basis, Debye-Ang):
   XX=           -177.7070   YY=           -145.4948   ZZ=           -138.4512
   XY=             -8.0273   XZ=             -3.6356   YZ=             -4.7487

 Summary of Natural Population Analysis:

                                       Natural Population
                Natural  -----------------------------------------------
    Atom  No    Charge         Core      Valence    Rydberg      Total
 -----------------------------------------------------------------------
      C    1   -0.28414      0.99965     2.27831    0.00619     3.28414
      C    2   -0.12024      0.99957     2.11124    0.00943     3.12024
      C    3   -0.19629      0.99961     2.18766    0.00901     3.19629
      C    4   -0.08726      0.99963     2.07574    0.01190     3.08726
      N    5   -0.33597      0.99976     2.82375    0.01246     3.83597
      C    6   -0.08852      0.99959     2.07634    0.01258     3.08852
      C    7   -0.00297      0.99954     1.98920    0.01423     3.00297
      N    8   -0.28762      0.99969     2.77379    0.01414     3.78762
      C    9   -0.08280      0.99960     2.07167    0.01153     3.08280
      C   10   -0.21028      0.99962     2.20248    0.00818     3.21028
      C   11   -0.00794      0.99957     1.99550    0.01288     3.00794
      O   12   -0.30974      0.99988     3.30005    0.00981     4.30974
      C   13    0.06202      0.99955     1.92509    0.01335     2.93798
      C   14   -0.09776      0.99958     2.08752    0.01067     3.09776
      C   15   -0.28882      0.99964     2.28306    0.00612     3.28882
      H   16    0.09974      0.00000     0.39930    0.00096     0.40026
      H   17    0.09819      0.00000     0.40053    0.00128     0.40181
      H   18    0.09932      0.00000     0.39932    0.00136     0.40068
      H   19    0.09343      0.00000     0.40438    0.00219     0.40657
      H   20    0.09498      0.00000     0.40307    0.00194     0.40502
      H   21    0.09959      0.00000     0.39916    0.00126     0.40041
      H   22    0.08676      0.00000     0.41192    0.00132     0.41324
      H   23    0.09554      0.00000     0.40349    0.00098     0.40446
      H   24    0.16992      0.00000     0.32738    0.00271     0.33008
      H   25    0.08757      0.00000     0.41091    0.00153     0.41243
      H   26    0.09867      0.00000     0.40001    0.00132     0.40133
      H   27    0.09400      0.00000     0.40344    0.00257     0.40600
      H   28    0.09781      0.00000     0.40055    0.00164     0.40219
      H   29    0.07966      0.00000     0.41857    0.00178     0.42034
      H   30    0.10444      0.00000     0.39418    0.00138     0.39556
      H   31    0.10010      0.00000     0.39851    0.00139     0.39990
      H   32    0.07652      0.00000     0.42194    0.00154     0.42348
      H   33    0.09048      0.00000     0.40829    0.00123     0.40952
      H   34    0.08080      0.00000     0.41674    0.00247     0.41920
      H   35    0.08580      0.00000     0.41270    0.00150     0.41420
      H   36    0.10453      0.00000     0.39356    0.00191     0.39547
      H   37    0.09937      0.00000     0.39974    0.00089     0.40063
      H   38    0.10280      0.00000     0.39616    0.00104     0.39720
      H   39    0.09831      0.00000     0.40056    0.00113     0.40169
 =======================================================================
   * Total *   -0.00000     14.99447    43.80574    0.19979    59.00000

 Normal termination of Gaussian 16 at Thu Dec 10 16:33:01 2020.
