 Gaussian 16, Revision A.03,

 -----------------------------------------------------------
 # opt freq B3LYP/6-31G(d) empiricaldispersion=gd3bj scf=xqc
 -----------------------------------------------------------

 ----------------------------
 CID_5320191_JID_374_neutraal
 ----------------------------
 Symbolic Z-matrix:
 Charge =  0 Multiplicity = 1

 SCF Done:  E(RB3LYP) =  -427.799808893     A.U. after   13 cycles
 SCF Done:  E(RB3LYP) =  -427.802763724     A.U. after   11 cycles
 SCF Done:  E(RB3LYP) =  -427.803005110     A.U. after   11 cycles
 SCF Done:  E(RB3LYP) =  -427.803023994     A.U. after   10 cycles
 SCF Done:  E(RB3LYP) =  -427.803026450     A.U. after    9 cycles
 SCF Done:  E(RB3LYP) =  -427.803027092     A.U. after    7 cycles
 SCF Done:  E(RB3LYP) =  -427.803027343     A.U. after    7 cycles
 SCF Done:  E(RB3LYP) =  -427.803027398     A.U. after    6 cycles
 Optimization completed.
    -- Stationary point found.

 1\1\GINC-NODE361\FOpt\RB3LYP\6-31G(d)\C9H16O1\VSC10255\08-Dec-2020\0\\
 # opt freq B3LYP/6-31G(d) empiricaldispersion=gd3bj scf=xqc\\CID_53201
 91_JID_374_neutraal\\0,1\C,0.9161542406,-0.0252460721,-0.0230431442\C,
 0.6271760272,-0.6369292751,1.3572220126\C,1.0577306817,0.2618007031,2.
 4821423698\C,0.2452300041,0.7997202906,3.394718765\C,0.680212694,1.732
 6909272,4.4900935061\C,0.1720198902,3.1855544708,4.3034397442\C,-1.325
 5286973,3.2939711202,4.2726019399\C,-2.0722369176,3.9027986972,5.19803
 92751\C,-3.5712575391,3.967172798,5.1648018068\O,-4.1595008843,3.37137

 Normal termination of Gaussian 16 at Tue Dec  8 10:28:04 2020.

 --------------------------------------------------------------------
 #N Geom=AllCheck Guess=TCheck SCRF=Check GenChk RB3LYP/6-31G(d) Freq
 --------------------------------------------------------------------

 Structure from the checkpoint file:  "JID_374.chk"
 ----------------------------
 CID_5320191_JID_374_neutraal
 ----------------------------
 Charge =  0 Multiplicity = 1

 SCF Done:  E(RB3LYP) =  -427.803027398     A.U. after    1 cycles

  Exact polarizability: 145.754   1.321  90.410  -4.423   0.781  73.465
 Approx polarizability: 188.233  -0.431 123.411 -10.204   2.376 103.227

                      1                      2                      3
                      A                      A                      A
 Frequencies --     24.2563                30.9453                73.1602
 Red. masses --      4.0623                 2.9025                 3.3360
 Frc consts  --      0.0014                 0.0016                 0.0105
 IR Inten    --      0.2277                 0.5546                 1.0300

                      4                      5                      6
                      A                      A                      A
 Frequencies --     94.3213               118.2635               142.9070
 Red. masses --      2.3103                 2.7260                 2.4704
 Frc consts  --      0.0121                 0.0225                 0.0297
 IR Inten    --      0.1617                 1.1559                 1.8269

                      7                      8                      9
                      A                      A                      A
 Frequencies --    155.4965               204.2839               246.4136
 Red. masses --      2.1716                 1.6854                 1.7752
 Frc consts  --      0.0309                 0.0414                 0.0635
 IR Inten    --      1.8902                 1.7130                 4.9547

                     10                     11                     12
                      A                      A                      A
 Frequencies --    283.9641               319.6184               368.9482
 Red. masses --      1.6035                 3.2558                 1.1960
 Frc consts  --      0.0762                 0.1960                 0.0959
 IR Inten    --      0.8844                 0.6320                97.1578

                     13                     14                     15
                      A                      A                      A
 Frequencies --    406.9382               444.4385               474.2995
 Red. masses --      2.3757                 2.6799                 2.4120
 Frc consts  --      0.2318                 0.3119                 0.3197
 IR Inten    --      1.4794                30.1053                 0.8607

                     16                     17                     18
                      A                      A                      A
 Frequencies --    502.8834               540.4353               781.7333
 Red. masses --      2.2011                 2.7982                 1.3339
 Frc consts  --      0.3280                 0.4815                 0.4803
 IR Inten    --      1.7797                 4.2523                 0.7125

                     19                     20                     21
                      A                      A                      A
 Frequencies --    808.6982               829.2150               856.7773
 Red. masses --      1.3842                 1.6595                 1.8083
 Frc consts  --      0.5334                 0.6723                 0.7821
 IR Inten    --      9.0307                 4.4084                 3.2375

                     22                     23                     24
                      A                      A                      A
 Frequencies --    907.6399               915.6594               955.0759
 Red. masses --      2.3397                 1.8246                 1.7270
 Frc consts  --      1.1356                 0.9013                 0.9281
 IR Inten    --      4.3492                 2.1124                23.2262

                     25                     26                     27
                      A                      A                      A
 Frequencies --    998.8219              1014.4892              1030.7407
 Red. masses --      1.5611                 1.1357                 1.3154
 Frc consts  --      0.9176                 0.6887                 0.8234
 IR Inten    --      4.6679                69.2981                 1.3060

                     28                     29                     30
                      A                      A                      A
 Frequencies --   1042.9815              1045.7111              1093.5043
 Red. masses --      1.7728                 3.8795                 2.2043
 Frc consts  --      1.1362                 2.4995                 1.5529
 IR Inten    --     16.5199                61.2964                 5.1624

                     31                     32                     33
                      A                      A                      A
 Frequencies --   1105.0635              1115.1814              1131.6671
 Red. masses --      3.0233                 2.2860                 2.0713
 Frc consts  --      2.1752                 1.6750                 1.5629
 IR Inten    --     12.9784                 1.1748                13.4964

                     34                     35                     36
                      A                      A                      A
 Frequencies --   1154.3488              1194.1073              1228.6456
 Red. masses --      1.6001                 1.1798                 1.3113
 Frc consts  --      1.2563                 0.9911                 1.1662
 IR Inten    --      3.6900                 6.1699                 3.3189

                     37                     38                     39
                      A                      A                      A
 Frequencies --   1257.3336              1294.4027              1324.7386
 Red. masses --      1.2760                 1.1980                 1.2587
 Frc consts  --      1.1885                 1.1826                 1.3015
 IR Inten    --      2.1672                 0.1390                 6.3008

                     40                     41                     42
                      A                      A                      A
 Frequencies --   1336.6215              1341.2935              1343.3268
 Red. masses --      1.2935                 1.2836                 1.2077
 Frc consts  --      1.3615                 1.3606                 1.2840
 IR Inten    --      0.1450                 7.1889                 7.7363

                     43                     44                     45
                      A                      A                      A
 Frequencies --   1364.5659              1375.5785              1391.8732
 Red. masses --      1.3251                 1.3566                 1.3042
 Frc consts  --      1.4537                 1.5125                 1.4886
 IR Inten    --      1.9676                 5.1019                 7.1278

                     46                     47                     48
                      A                      A                      A
 Frequencies --   1408.9667              1436.1002              1437.9061
 Red. masses --      1.3800                 1.2254                 1.2721
 Frc consts  --      1.6141                 1.4890                 1.5496
 IR Inten    --      6.1367                 0.9256                94.5428

                     49                     50                     51
                      A                      A                      A
 Frequencies --   1510.6355              1512.1197              1514.5104
 Red. masses --      1.1001                 1.0732                 1.1063
 Frc consts  --      1.4792                 1.4458                 1.4951
 IR Inten    --      9.2956                 2.5997                 2.4348

                     52                     53                     54
                      A                      A                      A
 Frequencies --   1527.7962              1532.0022              1537.1659
 Red. masses --      1.0408                 1.0936                 1.0676
 Frc consts  --      1.4314                 1.5123                 1.4863
 IR Inten    --      5.2760                 1.2697                 2.8580

                     55                     56                     57
                      A                      A                      A
 Frequencies --   1752.5562              1758.3298              2997.1501
 Red. masses --      6.0060                 6.0555                 1.0703
 Frc consts  --     10.8687                11.0307                 5.6648
 IR Inten    --      4.2762                 0.3865                57.7487

                     58                     59                     60
                      A                      A                      A
 Frequencies --   3022.0492              3028.0425              3032.3194
 Red. masses --      1.0649                 1.0648                 1.0598
 Frc consts  --      5.7302                 5.7524                 5.7413
 IR Inten    --     38.2666                22.5212                30.9262

                     61                     62                     63
                      A                      A                      A
 Frequencies --   3046.8765              3068.2070              3077.0732
 Red. masses --      1.0350                 1.0967                 1.0967
 Frc consts  --      5.6611                 6.0828                 6.1181
 IR Inten    --     34.3678                12.8575                25.6822

                     64                     65                     66
                      A                      A                      A
 Frequencies --   3081.2813              3081.8426              3113.4066
 Red. masses --      1.0938                 1.1027                 1.1015
 Frc consts  --      6.1186                 6.1708                 6.2910
 IR Inten    --     49.1217                23.6682                27.1023

                     67                     68                     69
                      A                      A                      A
 Frequencies --   3120.8674              3125.1051              3134.9231
 Red. masses --      1.1022                 1.0912                 1.0881
 Frc consts  --      6.3250                 6.2788                 6.3004
 IR Inten    --     40.5614                33.0557                15.4585

                     70                     71                     72
                      A                      A                      A
 Frequencies --   3143.8029              3151.3010              3732.8506
 Red. masses --      1.0888                 1.0877                 1.0661
 Frc consts  --      6.3406                 6.3643                 8.7524
 IR Inten    --     31.7704                38.6220                 6.9063

 - Thermochemistry -
 -------------------
 Temperature   298.150 Kelvin.  Pressure   1.00000 Atm.
 Atom     1 has atomic number  6 and mass  12.00000

 Molecular mass:   140.12012 amu.
 Principal axes and moments of inertia in atomic units:
                           1         2         3
     Eigenvalues --   736.210414615.708874879.17259
           X            0.99995   0.00952  -0.00115
           Y           -0.00954   0.99974  -0.02087
           Z            0.00095   0.02088   0.99978
 This molecule is an asymmetric top.
 Rotational symmetry number  1.
 Warning -- assumption of classical behavior for rotation
           may cause significant error
 Rotational temperatures (Kelvin)      0.11765     0.01877     0.01775
 Rotational constants (GHZ):           2.45139     0.39100     0.36989
 Zero-point vibrational energy     613424.4 (Joules/Mol)
                                  146.61196 (Kcal/Mol)
 Warning -- explicit consideration of  17 degrees of freedom as
           vibrations may cause significant error
 Vibrational temperatures:     34.90    44.52   105.26   135.71   170.15
          (Kelvin)            205.61   223.72   293.92   354.53   408.56
                              459.86   530.83   585.49   639.45   682.41
                              723.54   777.57  1124.74  1163.54  1193.06
                             1232.71  1305.89  1317.43  1374.14  1437.08
                             1459.62  1483.01  1500.62  1504.55  1573.31
                             1589.94  1604.50  1628.22  1660.85  1718.05
                             1767.75  1809.02  1862.36  1906.00  1923.10
                             1929.82  1932.75  1963.31  1979.15  2002.60
                             2027.19  2066.23  2068.83  2173.47  2175.60
                             2179.04  2198.16  2204.21  2211.64  2521.54
                             2529.84  4312.23  4348.05  4356.68  4362.83
                             4383.78  4414.47  4427.22  4433.28  4434.08
                             4479.50  4490.23  4496.33  4510.46  4523.23
                             4534.02  5370.74

 Zero-point correction=                           0.233641 (Hartree/Particle)
 Thermal correction to Energy=                    0.246111
 Thermal correction to Enthalpy=                  0.247055
 Thermal correction to Gibbs Free Energy=         0.192994
 Sum of electronic and zero-point Energies=           -427.569386
 Sum of electronic and thermal Energies=              -427.556916
 Sum of electronic and thermal Enthalpies=            -427.555972
 Sum of electronic and thermal Free Energies=         -427.610033

                     E (Thermal)             CV                S
                      KCal/Mol        Cal/Mol-Kelvin    Cal/Mol-Kelvin
 Total                  154.437             43.907            113.781
 Electronic               0.000              0.000              0.000
 Translational            0.889              2.981             40.724
 Rotational               0.889              2.981             31.184
 Vibrational            152.660             37.946             41.873
 Vibration     1          0.593              1.985              6.251
 Vibration     2          0.594              1.984              5.768
 Vibration     3          0.599              1.967              4.066
 Vibration     4          0.603              1.953              3.568
 Vibration     5          0.608              1.934              3.129
 Vibration     6          0.616              1.910              2.765
 Vibration     7          0.620              1.897              2.604
 Vibration     8          0.640              1.834              2.094
 Vibration     9          0.661              1.769              1.756
 Vibration    10          0.682              1.703              1.510
 Vibration    11          0.706              1.636              1.312
 Vibration    12          0.741              1.536              1.084
 Vibration    13          0.772              1.455              0.937
 Vibration    14          0.804              1.373              0.813
 Vibration    15          0.831              1.307              0.726
 Vibration    16          0.858              1.244              0.651
 Vibration    17          0.896              1.161              0.564

                           ! Non-Optimized Parameters !

 1\1\GINC-NODE361\Freq\RB3LYP\6-31G(d)\C9H16O1\VSC10255\08-Dec-2020\0\\
 #N Geom=AllCheck Guess=TCheck SCRF=Check GenChk RB3LYP/6-31G(d) Freq\\
 CID_5320191_JID_374_neutraal\\0,1\C,0.9161542406,-0.0252460721,-0.0230
 431442\C,0.6271760272,-0.6369292751,1.3572220126\C,1.0577306817,0.2618
 007031,2.4821423698\C,0.2452300041,0.7997202906,3.394718765\C,0.680212
 694,1.7326909272,4.4900935061\C,0.1720198902,3.1855544708,4.3034397442
 \C,-1.3255286973,3.2939711202,4.2726019399\C,-2.0722369176,3.902798697
 2,5.1980392751\C,-3.5712575391,3.967172798,5.1648018068\O,-4.159500884

 Normal termination of Gaussian 16 at Tue Dec  8 10:31:41 2020.

 ----------------------------------------------------------------------
 # B3LYP/6-311++G(d,p) empiricaldispersion=gd3bj scf=xqc pop=npa geom=c
 heck
 ----------------------------------------------------------------------

 ------------------------------------
 CID_5320191_JID_374_Energie_neutraal
 ------------------------------------
 Structure from the checkpoint file:  "JID_374.chk"
 Charge =  0 Multiplicity = 1

 SCF Done:  E(RB3LYP) =  -427.938333235     A.U. after   13 cycles
 Normal termination of Gaussian 16 at Tue Dec  8 10:33:49 2020.

 ----------------------------------------------------------------------
 # B3LYP/6-311++G(d,p) empiricaldispersion=gd3bj scf=xqc pop=npa geom=c
 heck
 ----------------------------------------------------------------------

 ----------------------------------
 CID_5320191_JID_374_Energie_kation
 ----------------------------------
 Structure from the checkpoint file:  "JID_374.chk"
 Charge =  1 Multiplicity = 2

 SCF Done:  E(UB3LYP) =  -427.623954239     A.U. after   20 cycles
 Normal termination of Gaussian 16 at Tue Dec  8 10:38:51 2020.
 Gaussian 16:  ES64L-G16RevA.03 25-Dec-2016

 ---------------------------------
 CID_5320191_JID_374_Energie_anion
 ---------------------------------
 Structure from the checkpoint file:  "JID_374.chk"
 Charge = -1 Multiplicity = 2

                         Standard orientation:
 ---------------------------------------------------------------------
 Center     Atomic      Atomic             Coordinates (Angstroms)
 Number     Number       Type             X           Y           Z
 ---------------------------------------------------------------------
      1          6           0       -4.306324   -1.097702    0.807658
      2          6           0       -3.621283   -0.806203   -0.537163
      3          6           0       -2.698040    0.377329   -0.463601
      4          6           0       -1.378941    0.341197   -0.666046
      5          6           0       -0.457982    1.523222   -0.547125
      6          6           0        0.502444    1.439510    0.667160
      7          6           0        1.409071    0.242885    0.628779
      8          6           0        2.736048    0.287215    0.480978
      9          6           0        3.618395   -0.924644    0.409041
     10          8           0        4.348972   -0.984128   -0.817562
     11          1           0       -3.563852   -1.332411    1.578249
     12          1           0       -4.995671   -1.945414    0.725262
     13          1           0       -4.881022   -0.230106    1.153117
     14          1           0       -3.061524   -1.689949   -0.868482
     15          1           0       -4.395541   -0.622861   -1.296707
     16          1           0       -3.164326    1.330507   -0.202593
     17          1           0       -0.915864   -0.612836   -0.923442
     18          1           0        0.150566    1.616036   -1.457652
     19          1           0       -1.050318    2.442548   -0.461151
     20          1           0        1.104266    2.355625    0.708567
     21          1           0       -0.107374    1.409574    1.580890
     22          1           0        0.927301   -0.731966    0.722472
     23          1           0        3.241934    1.248162    0.377360
     24          1           0        4.385617   -0.897592    1.191457
     25          1           0        3.019604   -1.836535    0.566350
     26          1           0        3.694091   -0.926616   -1.531281
 ---------------------------------------------------------------------

 SCF Done:  E(UB3LYP) =  -427.920898318     A.U. after   33 cycles
 SCF Done:  E(UB3LYP) =  -427.920898318     a.u. after    1 cycles

 The electronic state is 2-A.
 Alpha  occ. eigenvalues --  -19.02582 -10.12354 -10.08197 -10.08166 -10.07794
 Alpha  occ. eigenvalues --  -10.07650 -10.06835 -10.06806 -10.06681 -10.05703
 Alpha  occ. eigenvalues --   -0.92536  -0.72607  -0.70079  -0.66744  -0.62393
 Alpha  occ. eigenvalues --   -0.57869  -0.53517  -0.49981  -0.46896  -0.44509
 Alpha  occ. eigenvalues --   -0.41432  -0.37719  -0.36710  -0.35453  -0.34431
 Alpha  occ. eigenvalues --   -0.32946  -0.32632  -0.29875  -0.29611  -0.28392
 Alpha  occ. eigenvalues --   -0.27391  -0.26240  -0.25598  -0.23948  -0.23314
 Alpha  occ. eigenvalues --   -0.22697  -0.19030  -0.16675  -0.14750   0.04709
 Alpha virt. eigenvalues --    0.06335   0.06896   0.07756   0.08476   0.08625
 Alpha virt. eigenvalues --    0.08928   0.09525   0.10357   0.10725   0.10868
 Alpha virt. eigenvalues --    0.11328   0.11602   0.12425   0.13108   0.13549

  Beta  occ. eigenvalues --  -19.02548 -10.12335 -10.08181 -10.08154 -10.07781
  Beta  occ. eigenvalues --  -10.07650 -10.06826 -10.06785 -10.06667 -10.05662
  Beta  occ. eigenvalues --   -0.92465  -0.72579  -0.70049  -0.66708  -0.62350
  Beta  occ. eigenvalues --   -0.57811  -0.53455  -0.49910  -0.46843  -0.44452
  Beta  occ. eigenvalues --   -0.41367  -0.37689  -0.36676  -0.35409  -0.34387
  Beta  occ. eigenvalues --   -0.32908  -0.32591  -0.29834  -0.29568  -0.28345
  Beta  occ. eigenvalues --   -0.27337  -0.26196  -0.25559  -0.23906  -0.23286
  Beta  occ. eigenvalues --   -0.22660  -0.18993  -0.16629  -0.14717
  Beta virt. eigenvalues --    0.06823   0.07288   0.07352   0.08234   0.08926
  Beta virt. eigenvalues --    0.09061   0.09302   0.09898   0.10522   0.10930
  Beta virt. eigenvalues --    0.11192   0.11837   0.12005   0.12725   0.13388

 Mulliken charges and spin densities:
               1          2
     1  C    1.428725  -2.030039
     2  C   -0.128842  -0.180683
     3  C   -0.421941   0.368022
     4  C    0.162420  -0.088312
     5  C    0.695135  -1.045630
     6  C   -0.076202  -0.196556
     7  C    0.147203  -0.008114
     8  C   -0.947245   0.758669
     9  C    1.407391  -1.982510
    10  O   -0.297188   0.056161
    11  H   -0.160540   0.298550
    12  H   -0.433737   0.569524
    13  H   -0.280089   0.416527
    14  H   -0.252181   0.395060
    15  H   -0.210963   0.339381
    16  H   -0.459410   0.595247
    17  H   -0.470556   0.628881
    18  H   -0.247603   0.390933
    19  H    0.085039   0.057095
    20  H    0.071403   0.063445
    21  H   -0.064396   0.207600
    22  H    0.097756   0.037703
    23  H   -0.158630   0.310203
    24  H    0.034626   0.101149
    25  H   -0.435685   0.609438
    26  H   -0.084490   0.328256
 Sum of Mulliken charges =  -1.00000   1.00000

 Dipole moment (field-independent basis, Debye):
    X=              3.2340    Y=              4.3190    Z=              1.6760  Tot=              5.6499
 Quadrupole moment (field-independent basis, Debye-Ang):
   XX=           -166.2211   YY=           -100.0098   ZZ=            -96.1673
   XY=             -1.8708   XZ=             10.3400   YZ=             -0.3866

 Summary of Natural Population Analysis:

                                       Natural Population
                Natural  -----------------------------------------------
    Atom  No    Charge         Core      Valence    Rydberg      Total
 -----------------------------------------------------------------------
      C    1   -0.27878      0.99966     2.27486    0.00426     3.27878
      C    2   -0.20585      0.99963     2.19646    0.00976     3.20585
      C    3   -0.08376      0.99951     2.07471    0.00955     3.08376
      C    4   -0.09556      0.99950     2.08567    0.01039     3.09556
      C    5   -0.19647      0.99961     2.18862    0.00824     3.19647
      C    6   -0.19990      0.99961     2.19222    0.00807     3.19990
      C    7   -0.07887      0.99951     2.06862    0.01074     3.07887
      C    8   -0.11355      0.99951     2.10498    0.00906     3.11355
      C    9   -0.02589      0.99959     2.01171    0.01459     3.02589
      O   10   -0.36756      0.99990     3.36092    0.00674     4.36756
      H   11    0.09691      0.00000     0.40137    0.00172     0.40309
      H   12    0.09915      0.00000     0.39882    0.00203     0.40085
      H   13    0.09465      0.00000     0.40331    0.00204     0.40535
      H   14    0.09823      0.00000     0.40011    0.00165     0.40177
      H   15    0.09842      0.00000     0.40015    0.00144     0.40158
      H   16    0.08774      0.00000     0.41083    0.00142     0.41226
      H   17    0.09332      0.00000     0.40460    0.00208     0.40668
      H   18    0.10026      0.00000     0.39812    0.00162     0.39974
      H   19    0.09709      0.00000     0.40141    0.00150     0.40291
      H   20    0.09621      0.00000     0.40236    0.00142     0.40379
      H   21    0.10158      0.00000     0.39690    0.00152     0.39842
      H   22    0.09498      0.00000     0.40312    0.00190     0.40502
      H   23    0.09144      0.00000     0.40717    0.00139     0.40856
      H   24    0.08590      0.00000     0.41280    0.00129     0.41410
      H   25    0.08015      0.00000     0.41801    0.00184     0.41985
      H   26    0.23017      0.00000     0.26398    0.00585     0.26983
 =======================================================================
   * Total *    0.00000      9.99602    28.88185    0.12213    39.00000

 Normal termination of Gaussian 16 at Tue Dec  8 10:49:18 2020.
