 Gaussian 16, Revision A.03,

 -----------------------------------------------------------
 # opt freq B3LYP/6-31G(d) empiricaldispersion=gd3bj scf=xqc
 -----------------------------------------------------------

 ------------------------------
 CID_88241788_JID_6797_neutraal
 ------------------------------
 Symbolic Z-matrix:
 Charge =  0 Multiplicity = 1

 SCF Done:  E(RB3LYP) =  -1031.44085220     A.U. after   14 cycles
 SCF Done:  E(RB3LYP) =  -1031.44828914     A.U. after   12 cycles
 SCF Done:  E(RB3LYP) =  -1031.44948394     A.U. after   12 cycles
 SCF Done:  E(RB3LYP) =  -1031.45007950     A.U. after   12 cycles
 SCF Done:  E(RB3LYP) =  -1031.45033458     A.U. after   12 cycles
 SCF Done:  E(RB3LYP) =  -1031.45051162     A.U. after   12 cycles
 SCF Done:  E(RB3LYP) =  -1031.45066420     A.U. after   11 cycles
 SCF Done:  E(RB3LYP) =  -1031.45075355     A.U. after   10 cycles
 SCF Done:  E(RB3LYP) =  -1031.45081595     A.U. after   11 cycles
 SCF Done:  E(RB3LYP) =  -1031.45085872     A.U. after   11 cycles
 SCF Done:  E(RB3LYP) =  -1031.45291072     A.U. after    9 cycles
 SCF Done:  E(RB3LYP) =  -1031.45291377     A.U. after    9 cycles
 SCF Done:  E(RB3LYP) =  -1031.45291468     A.U. after    8 cycles
 SCF Done:  E(RB3LYP) =  -1031.45291496     A.U. after    8 cycles
 SCF Done:  E(RB3LYP) =  -1031.45291502     A.U. after    7 cycles
 Optimization completed.
    -- Stationary point found.
 Normal termination of Gaussian 16 at Fri Dec 11 01:09:36 2020.

 --------------------------------------------------------------------
 #N Geom=AllCheck Guess=TCheck SCRF=Check GenChk RB3LYP/6-31G(d) Freq
 --------------------------------------------------------------------

 Structure from the checkpoint file:  "JID_6797.chk"
 ------------------------------
 CID_88241788_JID_6797_neutraal
 ------------------------------
 Charge =  0 Multiplicity = 1

 SCF Done:  E(RB3LYP) =  -1031.45291502     A.U. after    1 cycles

  Exact polarizability: 143.460  -0.405 193.788 -42.509   0.762 119.274
 Approx polarizability: 224.818  -3.302 350.424 -93.018   1.142 211.091

                      1                      2                      3
                      A                      A                      A
 Frequencies --     33.2464                39.2855                46.0393
 Red. masses --      5.9560                 5.7117                 4.6596
 Frc consts  --      0.0039                 0.0052                 0.0058
 IR Inten    --      2.0832                 0.0981                 0.4808

                      4                      5                      6
                      A                      A                      A
 Frequencies --     50.4012                86.5226               112.5300
 Red. masses --      4.3490                 6.8460                 4.8176
 Frc consts  --      0.0065                 0.0302                 0.0359
 IR Inten    --      0.4515                 9.7395                 3.5057

                      7                      8                      9
                      A                      A                      A
 Frequencies --    153.8042               186.7351               197.3489
 Red. masses --      2.5834                 4.5126                 3.4580
 Frc consts  --      0.0360                 0.0927                 0.0793
 IR Inten    --      3.2561                 0.4505                 0.8909

                     10                     11                     12
                      A                      A                      A
 Frequencies --    205.1536               335.3077               365.3765
 Red. masses --      3.1175                 6.8856                 3.8559
 Frc consts  --      0.0773                 0.4561                 0.3033
 IR Inten    --      6.0307                 1.0682                 1.2275

                     13                     14                     15
                      A                      A                      A
 Frequencies --    399.6806               481.8908               497.3374
 Red. masses --      3.2578                 3.4013                 2.6076
 Frc consts  --      0.3066                 0.4654                 0.3800
 IR Inten    --      0.0811                 0.4342                26.1305

                     16                     17                     18
                      A                      A                      A
 Frequencies --    515.9611               519.9553               522.8669
 Red. masses --      2.9513                 6.9802                 6.5105
 Frc consts  --      0.4629                 1.1119                 1.0487
 IR Inten    --     66.9019                 0.7633                 1.0341

                     19                     20                     21
                      A                      A                      A
 Frequencies --    572.0665               633.6383               635.8093
 Red. masses --      1.7507                 3.6722                 6.3978
 Frc consts  --      0.3376                 0.8687                 1.5238
 IR Inten    --    116.5341                 0.1510                 2.1206

                     22                     23                     24
                      A                      A                      A
 Frequencies --    646.7015               728.7709               740.5012
 Red. masses --      8.9360                 2.8040                 1.1483
 Frc consts  --      2.2019                 0.8774                 0.3710
 IR Inten    --      4.4342                11.6988                 1.0022

                     25                     26                     27
                      A                      A                      A
 Frequencies --    780.6830               784.9481               809.5249
 Red. masses --      4.5177                 3.3555                 1.5637
 Frc consts  --      1.6223                 1.2181                 0.6038
 IR Inten    --      0.5227                 0.3774                87.8730

                     28                     29                     30
                      A                      A                      A
 Frequencies --    811.8704               858.9684               885.6370
 Red. masses --      3.5152                 1.2665                 1.5884
 Frc consts  --      1.3651                 0.5506                 0.7340
 IR Inten    --     20.2986                 0.8266                 3.2635

                     31                     32                     33
                      A                      A                      A
 Frequencies --    903.4826               928.1927               951.8566
 Red. masses --      1.6565                 5.2899                 3.4165
 Frc consts  --      0.7967                 2.6852                 1.8238
 IR Inten    --      2.1961                 6.4800                 0.0596

                     34                     35                     36
                      A                      A                      A
 Frequencies --    957.2198               973.2456               979.6017
 Red. masses --      1.4886                 1.3635                 2.5731
 Frc consts  --      0.8036                 0.7609                 1.4548
 IR Inten    --      0.3534                11.1892                30.0614

                     37                     38                     39
                      A                      A                      A
 Frequencies --    992.1630              1001.3903              1010.4345
 Red. masses --      1.2633                 1.2896                 4.4222
 Frc consts  --      0.7327                 0.7619                 2.6602
 IR Inten    --      0.6357                 4.1792                17.6268

                     40                     41                     42
                      A                      A                      A
 Frequencies --   1046.6095              1057.8584              1078.3473
 Red. masses --      2.6341                 2.1567                 3.1094
 Frc consts  --      1.7000                 1.4220                 2.1303
 IR Inten    --      3.1666                 0.2292                16.2879

                     43                     44                     45
                      A                      A                      A
 Frequencies --   1146.9937              1159.0030              1182.3678
 Red. masses --      1.5852                 1.7495                 1.2763
 Frc consts  --      1.2287                 1.3846                 1.0513
 IR Inten    --      7.4433                 5.3620                 0.3149

                     46                     47                     48
                      A                      A                      A
 Frequencies --   1188.6409              1196.2873              1213.6220
 Red. masses --      1.2312                 1.0843                 3.2621
 Frc consts  --      1.0249                 0.9143                 2.8309
 IR Inten    --      0.2136                 1.2709               214.7122

                     49                     50                     51
                      A                      A                      A
 Frequencies --   1233.0570              1246.5955              1262.2968
 Red. masses --      1.1425                 2.1213                 1.2329
 Frc consts  --      1.0234                 1.9422                 1.1575
 IR Inten    --      7.7940                 1.3205                13.3584

                     52                     53                     54
                      A                      A                      A
 Frequencies --   1281.8338              1294.1882              1304.0948
 Red. masses --      1.5641                 1.7806                 1.7914
 Frc consts  --      1.5142                 1.7571                 1.7950
 IR Inten    --      0.0872               101.7471                 8.5156

                     55                     56                     57
                      A                      A                      A
 Frequencies --   1371.6562              1413.4472              1420.1036
 Red. masses --      1.5267                 3.6288                 8.3977
 Frc consts  --      1.6924                 4.2714                 9.9782
 IR Inten    --    120.7587                 2.3457                 0.0838

                     58                     59                     60
                      A                      A                      A
 Frequencies --   1432.4773              1434.4135              1506.5028
 Red. masses --      1.5917                 1.6809                 2.3915
 Frc consts  --      1.9244                 2.0377                 3.1979
 IR Inten    --      4.2394                20.8309                 0.1743

                     61                     62                     63
                      A                      A                      A
 Frequencies --   1511.3564              1526.8311              1540.4446
 Red. masses --      1.8800                 1.9264                 1.1513
 Frc consts  --      2.5301                 2.6460                 1.6097
 IR Inten    --      0.6371               204.5800                23.7560

                     64                     65                     66
                      A                      A                      A
 Frequencies --   1565.3869              1567.2459              1630.8503
 Red. masses --      1.2050                 3.1773                 6.6998
 Frc consts  --      1.7397                 4.5981                10.4988
 IR Inten    --     31.8931                 8.5114                 0.1695

                     67                     68                     69
                      A                      A                      A
 Frequencies --   1658.4750              1688.6239              3081.2011
 Red. masses --      4.8413                 5.9269                 1.0593
 Frc consts  --      7.8456                 9.9573                 5.9254
 IR Inten    --      4.9788                 0.0134                19.6063

                     70                     71                     72
                      A                      A                      A
 Frequencies --   3085.8256              3125.3217              3159.1706
 Red. masses --      1.0640                 1.1072                 1.1059
 Frc consts  --      5.9697                 6.3721                 6.5032
 IR Inten    --     51.9287                10.6372                17.2758

                     73                     74                     75
                      A                      A                      A
 Frequencies --   3178.3439              3181.0689              3192.7462
 Red. masses --      1.0867                 1.0863                 1.0888
 Frc consts  --      6.4681                 6.4767                 6.5395
 IR Inten    --      0.4967                 3.7428                 0.5931

                     76                     77                     78
                      A                      A                      A
 Frequencies --   3193.6616              3204.0732              3205.6899
 Red. masses --      1.0891                 1.0927                 1.0931
 Frc consts  --      6.5450                 6.6093                 6.6183
 IR Inten    --     25.5995                19.4661                15.0675

                     79                     80                     81
                      A                      A                      A
 Frequencies --   3213.9746              3216.1605              3632.8444
 Red. masses --      1.0971                 1.0963                 1.0786
 Frc consts  --      6.6767                 6.6813                 8.3871
 IR Inten    --     24.5678                 2.1715                54.7948

 - Thermochemistry -
 -------------------
 Temperature   298.150 Kelvin.  Pressure   1.00000 Atm.
 Atom     1 has atomic number  6 and mass  12.00000

 Molecular mass:   231.07179 amu.
 Principal axes and moments of inertia in atomic units:
                           1         2         3
     Eigenvalues --  2641.708154316.727665369.46683
           X            0.99969   0.02465  -0.00263
           Y           -0.02465   0.99970   0.00020
           Z            0.00264  -0.00014   1.00000
 This molecule is an asymmetric top.
 Rotational symmetry number  1.
 Warning -- assumption of classical behavior for rotation
           may cause significant error
 Rotational temperatures (Kelvin)      0.03279     0.02006     0.01613
 Rotational constants (GHZ):           0.68317     0.41808     0.33611
 Zero-point vibrational energy     617068.8 (Joules/Mol)
                                  147.48298 (Kcal/Mol)
 Warning -- explicit consideration of  19 degrees of freedom as
           vibrations may cause significant error
 Vibrational temperatures:     47.83    56.52    66.24    72.52   124.49
          (Kelvin)            161.91   221.29   268.67   283.94   295.17
                              482.43   525.70   575.05   693.33   715.56
                              742.35   748.10   752.29   823.08   911.66
                              914.79   930.46  1048.54  1065.42  1123.23
                             1129.37  1164.73  1168.10  1235.86  1274.23
                             1299.91  1335.46  1369.51  1377.23  1400.28
                             1409.43  1427.50  1440.78  1453.79  1505.84
                             1522.02  1551.50  1650.27  1667.55  1701.16
                             1710.19  1721.19  1746.13  1774.09  1793.57
                             1816.16  1844.27  1862.05  1876.30  1973.51
                             2033.64  2043.21  2061.02  2063.80  2167.52
                             2174.50  2196.77  2216.36  2252.24  2254.92
                             2346.43  2386.18  2429.55  4433.16  4439.81
                             4496.64  4545.34  4572.93  4576.85  4593.65
                             4594.97  4609.95  4612.27  4624.19  4627.34
                             5226.85

 Zero-point correction=                           0.235029 (Hartree/Particle)
 Thermal correction to Energy=                    0.249154
 Thermal correction to Enthalpy=                  0.250098
 Thermal correction to Gibbs Free Energy=         0.191584
 Sum of electronic and zero-point Energies=          -1031.217886
 Sum of electronic and thermal Energies=             -1031.203761
 Sum of electronic and thermal Enthalpies=           -1031.202817
 Sum of electronic and thermal Free Energies=        -1031.261331

                     E (Thermal)             CV                S
                      KCal/Mol        Cal/Mol-Kelvin    Cal/Mol-Kelvin
 Total                  156.347             53.195            123.153
 Electronic               0.000              0.000              0.000
 Translational            0.889              2.981             42.215
 Rotational               0.889              2.981             32.482
 Vibrational            154.569             47.233             48.457
 Vibration     1          0.594              1.983              5.626
 Vibration     2          0.594              1.981              5.295
 Vibration     3          0.595              1.979              4.981
 Vibration     4          0.595              1.977              4.802
 Vibration     5          0.601              1.959              3.737
 Vibration     6          0.607              1.939              3.225
 Vibration     7          0.619              1.898              2.625
 Vibration     8          0.632              1.858              2.260
 Vibration     9          0.637              1.844              2.158
 Vibration    10          0.640              1.833              2.086
 Vibration    11          0.716              1.605              1.234
 Vibration    12          0.739              1.544              1.099
 Vibration    13          0.766              1.471              0.964
 Vibration    14          0.838              1.290              0.705
 Vibration    15          0.853              1.256              0.665
 Vibration    16          0.871              1.215              0.619
 Vibration    17          0.875              1.206              0.610
 Vibration    18          0.878              1.199              0.603
 Vibration    19          0.928              1.092              0.500

                           ! Non-Optimized Parameters !
 Normal termination of Gaussian 16 at Fri Dec 11 01:20:13 2020.

 ----------------------------------------------------------------------
 # B3LYP/6-311++G(d,p) empiricaldispersion=gd3bj scf=xqc pop=npa geom=c
 heck
 ----------------------------------------------------------------------

 --------------------------------------
 CID_88241788_JID_6797_Energie_neutraal
 --------------------------------------
 Structure from the checkpoint file:  "JID_6797.chk"
 Charge =  0 Multiplicity = 1

 SCF Done:  E(RB3LYP) =  -1031.64674964     A.U. after   14 cycles
 Normal termination of Gaussian 16 at Fri Dec 11 01:23:59 2020.

 ----------------------------------------------------------------------
 # B3LYP/6-311++G(d,p) empiricaldispersion=gd3bj scf=xqc pop=npa geom=c
 heck
 ----------------------------------------------------------------------

 ------------------------------------
 CID_88241788_JID_6797_Energie_kation
 ------------------------------------
 Structure from the checkpoint file:  "JID_6797.chk"
 Charge =  1 Multiplicity = 2

 SCF Done:  E(UB3LYP) =  -1031.36326755     A.U. after   26 cycles
 Normal termination of Gaussian 16 at Fri Dec 11 01:33:14 2020.
 Gaussian 16:  ES64L-G16RevA.03 25-Dec-2016

 ----------------------------------------------------------------------
 # B3LYP/6-311++G(d,p) empiricaldispersion=gd3bj scf=xqc pop=npa geom=c
 heck
 ----------------------------------------------------------------------

 -----------------------------------
 CID_88241788_JID_6797_Energie_anion
 -----------------------------------
 Structure from the checkpoint file:  "JID_6797.chk"
 Charge = -1 Multiplicity = 2

                         Standard orientation:
 ---------------------------------------------------------------------
 Center     Atomic      Atomic             Coordinates (Angstroms)
 Number     Number       Type             X           Y           Z
 ---------------------------------------------------------------------
      1          6           0       -0.928018   -0.763500   -1.798536
      2          6           0       -1.991405   -1.708650   -1.213892
      3          8           0       -2.602359   -0.959946   -0.138271
      4          6           0       -2.253713    0.341351   -0.225975
      5         16           0       -2.808355    1.498595    0.820842
      6          7           0       -1.409410    0.508821   -1.274803
      7          6           0        2.794968    1.923598   -0.778002
      8          6           0        1.747722    2.473946    0.003041
      9          6           0        0.947333    1.657084    0.770130
     10          6           0        1.148284    0.249882    0.780694
     11          6           0        0.310957   -0.623165    1.525278
     12          6           0        0.499566   -1.986397    1.478875
     13          6           0        1.542951   -2.538961    0.695844
     14          6           0        2.376436   -1.717576   -0.030553
     15          6           0        2.201908   -0.307565   -0.014874
     16          6           0        3.017372    0.565780   -0.783477
     17          1           0       -0.922635   -0.770230   -2.892385
     18          1           0        0.076795   -0.993863   -1.432078
     19          1           0       -2.774242   -1.957853   -1.936858
     20          1           0       -1.570825   -2.621298   -0.790294
     21          1           0       -0.840047    1.344158   -1.295219
     22          1           0        3.422037    2.580410   -1.374151
     23          1           0        1.580525    3.547235   -0.002409
     24          1           0        0.131102    2.069598    1.355494
     25          1           0       -0.497686   -0.196251    2.110491
     26          1           0       -0.154327   -2.642738    2.045647
     27          1           0        1.685401   -3.615777    0.672804
     28          1           0        3.178721   -2.138044   -0.631980
     29          1           0        3.817440    0.140001   -1.384064
 ---------------------------------------------------------------------

 SCF Done:  E(UB3LYP) =  -1031.65102645     A.U. after   33 cycles
 SCF Done:  E(UB3LYP) =  -1031.65102645     a.u. after    1 cycles

 The electronic state is 2-A.
 Alpha  occ. eigenvalues --  -88.68014 -19.06285 -14.24084 -10.19043 -10.13529
 Alpha  occ. eigenvalues --  -10.11380 -10.04268 -10.04007 -10.03280 -10.03219
 Alpha  occ. eigenvalues --  -10.03080 -10.02922 -10.02371 -10.02274 -10.01880
 Alpha  occ. eigenvalues --  -10.01665  -7.76813  -5.73229  -5.72655  -5.72325
 Alpha  occ. eigenvalues --   -1.00051  -0.83175  -0.73169  -0.69351  -0.67940
 Alpha  occ. eigenvalues --   -0.63100  -0.59994  -0.59477  -0.57783  -0.55269
 Alpha  occ. eigenvalues --   -0.50221  -0.48599  -0.47040  -0.45505  -0.41746
 Alpha  occ. eigenvalues --   -0.41308  -0.37477  -0.37242  -0.36867  -0.35439
 Alpha  occ. eigenvalues --   -0.32168  -0.31543  -0.30766  -0.30156  -0.28900
 Alpha  occ. eigenvalues --   -0.27586  -0.27458  -0.27039  -0.26370  -0.25790
 Alpha  occ. eigenvalues --   -0.25200  -0.23014  -0.19896  -0.19699  -0.19176
 Alpha  occ. eigenvalues --   -0.17698  -0.15113  -0.11761  -0.11363  -0.10613
 Alpha  occ. eigenvalues --   -0.08765   0.04772
 Alpha virt. eigenvalues --    0.06758   0.08623   0.08740   0.09149   0.09721
 Alpha virt. eigenvalues --    0.10494   0.10924   0.11306   0.11543   0.12222
 Alpha virt. eigenvalues --    0.12867   0.13275   0.13434   0.13999   0.15043

  Beta  occ. eigenvalues --  -88.68011 -19.06256 -14.24076 -10.18964 -10.13510
  Beta  occ. eigenvalues --  -10.11378 -10.04338 -10.04076 -10.03230 -10.03151
  Beta  occ. eigenvalues --  -10.03022 -10.02870 -10.02108 -10.01989 -10.01622
  Beta  occ. eigenvalues --  -10.01385  -7.76811  -5.73231  -5.72645  -5.72323
  Beta  occ. eigenvalues --   -0.99986  -0.83139  -0.72897  -0.69288  -0.67559
  Beta  occ. eigenvalues --   -0.62607  -0.59791  -0.59437  -0.57301  -0.55235
  Beta  occ. eigenvalues --   -0.50164  -0.47999  -0.46955  -0.45159  -0.41698
  Beta  occ. eigenvalues --   -0.41241  -0.37301  -0.36913  -0.36805  -0.35293
  Beta  occ. eigenvalues --   -0.32130  -0.31479  -0.30589  -0.30066  -0.28691
  Beta  occ. eigenvalues --   -0.27411  -0.27297  -0.26979  -0.26236  -0.25734
  Beta  occ. eigenvalues --   -0.24498  -0.22853  -0.19732  -0.19089  -0.18707
  Beta  occ. eigenvalues --   -0.17433  -0.13850  -0.11657  -0.10744  -0.10576
  Beta  occ. eigenvalues --   -0.07112
  Beta virt. eigenvalues --    0.07020   0.08612   0.08804   0.09146   0.09717
  Beta virt. eigenvalues --    0.10229   0.10586   0.10989   0.11235   0.11590
  Beta virt. eigenvalues --    0.12263   0.12971   0.13248   0.13889   0.13995

 Mulliken charges and spin densities:
               1          2
     1  C   -0.105601   0.017653
     2  C   -0.087836  -0.355134
     3  O    0.066474   0.017917
     4  C   -0.024860   0.034093
     5  S   -0.585460  -0.001138
     6  N    0.045531   0.017617
     7  C   -0.411400   0.063396
     8  C   -0.602616   0.057202
     9  C   -0.325724   0.182665
    10  C    0.224419  -0.022268
    11  C    0.036344   0.140196
    12  C   -0.410931   0.084265
    13  C   -0.429139  -0.010374
    14  C   -0.047906   0.109039
    15  C    0.395743   0.027313
    16  C   -0.233539   0.191670
    17  H    0.070208   0.090796
    18  H    0.312265  -0.053792
    19  H   -0.037724   0.202491
    20  H    0.008141   0.190486
    21  H    0.284040   0.004730
    22  H    0.107860  -0.001963
    23  H    0.125585  -0.004560
    24  H    0.096599  -0.009641
    25  H    0.139928  -0.011860
    26  H    0.114959   0.013985
    27  H    0.068210   0.045020
    28  H    0.109938  -0.014701
    29  H    0.096492  -0.005105
 Sum of Mulliken charges =  -1.00000   1.00000

 Dipole moment (field-independent basis, Debye):
    X=              0.1195    Y=             -1.3300    Z=             -3.6644  Tot=              3.9001
 Quadrupole moment (field-independent basis, Debye-Ang):
   XX=           -148.2086   YY=           -126.3808   ZZ=           -116.2921
   XY=              3.0385   XZ=              0.7930   YZ=             -0.2428

 Summary of Natural Population Analysis:

                                       Natural Population
                Natural  -----------------------------------------------
    Atom  No    Charge         Core      Valence    Rydberg      Total
 -----------------------------------------------------------------------
      C    1   -0.10511      0.99964     2.09521    0.01027     3.10511
      C    2   -0.01676      0.99959     2.00525    0.01192     3.01676
      O    3   -0.26668      0.99985     3.25646    0.01038     4.26668
      C    4    0.22146      0.99967     1.75490    0.02397     2.77854
      S    5   -0.12237      4.99953     3.10845    0.01440     8.12237
      N    6   -0.31772      0.99963     2.80749    0.01060     3.81772
      C    7   -0.10132      0.99957     2.09237    0.00937     3.10132
      C    8   -0.10635      0.99957     2.09752    0.00926     3.10635
      C    9   -0.05875      0.99953     2.05036    0.00886     3.05875
      C   10   -0.04536      0.99948     2.03562    0.01025     3.04536
      C   11   -0.05330      0.99954     2.04327    0.01050     3.05330
      C   12   -0.10696      0.99957     2.09637    0.01102     3.10696
      C   13   -0.10775      0.99957     2.09662    0.01156     3.10775
      C   14   -0.05455      0.99953     2.04678    0.00824     3.05455
      C   15   -0.04803      0.99949     2.03810    0.01044     3.04803
      C   16   -0.05450      0.99953     2.04669    0.00828     3.05450
      H   17    0.09303      0.00000     0.40594    0.00103     0.40697
      H   18    0.11426      0.00000     0.38405    0.00169     0.38574
      H   19    0.08431      0.00000     0.41449    0.00120     0.41569
      H   20    0.10210      0.00000     0.39669    0.00121     0.39790
      H   21    0.21339      0.00000     0.28522    0.00139     0.28661
      H   22    0.08891      0.00000     0.41010    0.00099     0.41109
      H   23    0.09088      0.00000     0.40818    0.00094     0.40912
      H   24    0.10043      0.00000     0.39809    0.00147     0.39957
      H   25    0.09936      0.00000     0.39919    0.00144     0.40064
      H   26    0.09321      0.00000     0.40595    0.00084     0.40679
      H   27    0.09114      0.00000     0.40806    0.00080     0.40886
      H   28    0.08654      0.00000     0.41183    0.00163     0.41346
      H   29    0.08651      0.00000     0.41201    0.00148     0.41349
 =======================================================================
   * Total *   -0.00000     19.99329    40.81127    0.19544    61.00000

 Normal termination of Gaussian 16 at Fri Dec 11 01:44:47 2020.
