 Gaussian 16, Revision A.03,

 -----------------------------------------------------------
 # opt freq B3LYP/6-31G(d) empiricaldispersion=gd3bj scf=xqc
 -----------------------------------------------------------

 -------------------------------
 CID_112619544_JID_6174_neutraal
 -------------------------------
 Symbolic Z-matrix:
 Charge =  0 Multiplicity = 1

 SCF Done:  E(RB3LYP) =  -884.007930518     A.U. after   16 cycles
 SCF Done:  E(RB3LYP) =  -884.015491325     A.U. after   13 cycles
 SCF Done:  E(RB3LYP) =  -884.016248464     A.U. after   12 cycles
 SCF Done:  E(RB3LYP) =  -884.015803885     A.U. after   13 cycles
 SCF Done:  E(RB3LYP) =  -884.016310491     A.U. after   11 cycles
 SCF Done:  E(RB3LYP) =  -884.016350255     A.U. after   10 cycles
 SCF Done:  E(RB3LYP) =  -884.016352606     A.U. after   10 cycles
 SCF Done:  E(RB3LYP) =  -884.016354430     A.U. after    9 cycles
 SCF Done:  E(RB3LYP) =  -884.016354388     A.U. after    9 cycles
 SCF Done:  E(RB3LYP) =  -884.016354934     A.U. after    8 cycles
 SCF Done:  E(RB3LYP) =  -884.016354996     A.U. after    8 cycles
 SCF Done:  E(RB3LYP) =  -884.016355024     A.U. after    8 cycles
 Optimization completed.
    -- Stationary point found.
 Normal termination of Gaussian 16 at Thu Dec 10 21:08:22 2020.

 --------------------------------------------------------------------
 #N Geom=AllCheck Guess=TCheck SCRF=Check GenChk RB3LYP/6-31G(d) Freq
 --------------------------------------------------------------------

 Structure from the checkpoint file:  "JID_6174.chk"
 -------------------------------
 CID_112619544_JID_6174_neutraal
 -------------------------------
 Charge =  0 Multiplicity = 1

 SCF Done:  E(RB3LYP) =  -884.016355024     A.U. after    1 cycles

  Exact polarizability: 219.530  -7.708 112.019  -0.000  -0.001  42.249
 Approx polarizability: 311.067 -25.720 235.570  -0.000  -0.003  67.436

                      1                      2                      3
                      A                      A                      A
 Frequencies --     33.1606                47.2409                65.4887
 Red. masses --      8.6407                13.8802                10.0560
 Frc consts  --      0.0056                 0.0183                 0.0254
 IR Inten    --      0.0665                 0.6952                 0.5264

                      4                      5                      6
                      A                      A                      A
 Frequencies --     67.3514               110.1871               150.9603
 Red. masses --     13.1388                 8.1165                10.2686
 Frc consts  --      0.0351                 0.0581                 0.1379
 IR Inten    --      1.0961                 0.0044                 1.2673

                      7                      8                      9
                      A                      A                      A
 Frequencies --    154.8028               221.9400               243.2494
 Red. masses --     10.0963                 7.8630                 9.1662
 Frc consts  --      0.1426                 0.2282                 0.3196
 IR Inten    --      0.0132                 0.3331                 0.4845

                     10                     11                     12
                      A                      A                      A
 Frequencies --    282.0298               353.2904               428.0569
 Red. masses --     13.7304                 7.9717                 9.0093
 Frc consts  --      0.6435                 0.5862                 0.9726
 IR Inten    --      0.3533                 1.7802                 6.0843

                     13                     14                     15
                      A                      A                      A
 Frequencies --    446.8571               491.0596               527.3227
 Red. masses --     11.3792                 7.1693                11.2352
 Frc consts  --      1.3388                 1.0186                 1.8407
 IR Inten    --      0.4422                 3.0894                 1.6337

                     16                     17                     18
                      A                      A                      A
 Frequencies --    579.1600               596.7053               598.6301
 Red. masses --      1.7115                 4.8666                 9.6519
 Frc consts  --      0.3382                 1.0209                 2.0379
 IR Inten    --     35.0471                 4.9218                 0.4597

                     19                     20                     21
                      A                      A                      A
 Frequencies --    660.4557               674.5964               712.1536
 Red. masses --      7.0198                 2.9964                 4.1597
 Frc consts  --      1.8041                 0.8034                 1.2430
 IR Inten    --      5.9530                76.9516               104.3629

                     22                     23                     24
                      A                      A                      A
 Frequencies --    730.2931               746.7648               775.0194
 Red. masses --      7.6275                 7.5069                 9.7146
 Frc consts  --      2.3968                 2.4665                 3.4379
 IR Inten    --     22.9226                26.3000                 4.2543

                     25                     26                     27
                      A                      A                      A
 Frequencies --    824.7037               831.5359               910.7627
 Red. masses --     12.4624                 1.3293                 1.3739
 Frc consts  --      4.9940                 0.5415                 0.6714
 IR Inten    --     46.0377                34.2146                 0.4911

                     28                     29                     30
                      A                      A                      A
 Frequencies --    934.3149               992.2894               998.5657
 Red. masses --      8.2392                 7.2495                12.5412
 Frc consts  --      4.2376                 4.2057                 7.3679
 IR Inten    --     14.3264                17.1055                 5.4657

                     31                     32                     33
                      A                      A                      A
 Frequencies --   1008.4854              1050.6320              1063.3217
 Red. masses --     11.1330                 1.3576                 6.5795
 Frc consts  --      6.6712                 0.8829                 4.3830
 IR Inten    --      7.5578                17.1874                68.7686

                     34                     35                     36
                      A                      A                      A
 Frequencies --   1147.6517              1182.6470              1217.2403
 Red. masses --      5.5842                 3.4169                 2.2724
 Frc consts  --      4.3335                 2.8157                 1.9838
 IR Inten    --     82.1185               218.4633                18.1094

                     37                     38                     39
                      A                      A                      A
 Frequencies --   1251.4506              1284.7539              1356.4541
 Red. masses --      4.3079                 4.4335                 4.1581
 Frc consts  --      3.9750                 4.3116                 4.5077
 IR Inten    --     32.0439                 2.2858                11.5899

                     40                     41                     42
                      A                      A                      A
 Frequencies --   1394.7678              1410.0613              1448.1928
 Red. masses --     10.0128                 3.7042                 7.6376
 Frc consts  --     11.4764                 4.3393                 9.4375
 IR Inten    --    659.6144                50.1700                14.4754

                     43                     44                     45
                      A                      A                      A
 Frequencies --   1474.7206              1580.2088              1585.7236
 Red. masses --      7.3004                11.4096                 8.0120
 Frc consts  --      9.3545                16.7861                11.8699
 IR Inten    --    111.4283                49.3554                10.3862

                     46                     47                     48
                      A                      A                      A
 Frequencies --   1647.2024              1665.9381              1855.4617
 Red. masses --     14.0096                 9.0925                10.8016
 Frc consts  --     22.3959                14.8679                21.9101
 IR Inten    --    197.2816                36.5282               370.5193

                     49                     50                     51
                      A                      A                      A
 Frequencies --   3289.1392              3312.3573              3690.8068
 Red. masses --      1.0962                 1.1004                 1.0642
 Frc consts  --      6.9872                 7.1135                 8.5413
 IR Inten    --      0.6918                 6.1689               110.0136

 - Thermochemistry -
 -------------------
 Temperature   298.150 Kelvin.  Pressure   1.00000 Atm.
 Atom     1 has atomic number  6 and mass  12.00000

 Molecular mass:   225.00218 amu.
 Principal axes and moments of inertia in atomic units:
                           1         2         3
     Eigenvalues --   877.727188368.985299246.71244
           X            1.00000   0.00007   0.00000
           Y           -0.00007   1.00000  -0.00000
           Z           -0.00000   0.00000   1.00000
 This molecule is an asymmetric top.
 Rotational symmetry number  1.
 Warning -- assumption of classical behavior for rotation
           may cause significant error
 Rotational temperatures (Kelvin)      0.09868     0.01035     0.00937
 Rotational constants (GHZ):           2.05615     0.21565     0.19518
 Zero-point vibrational energy     299701.4 (Joules/Mol)
                                   71.63036 (Kcal/Mol)
 Warning -- explicit consideration of  18 degrees of freedom as
           vibrations may cause significant error
 Vibrational temperatures:     47.71    67.97    94.22    96.90   158.53
          (Kelvin)            217.20   222.73   319.32   349.98   405.78
                              508.31   615.88   642.93   706.53   758.70
                              833.28   858.53   861.30   950.25   970.59
                             1024.63  1050.73  1074.43  1115.08  1186.56
                             1196.39  1310.38  1344.27  1427.68  1436.71
                             1450.99  1511.63  1529.88  1651.21  1701.57
                             1751.34  1800.56  1848.47  1951.63  2006.76
                             2028.76  2083.63  2121.79  2273.57  2281.50
                             2369.96  2396.91  2669.60  4732.34  4765.74
                             5310.25

 Zero-point correction=                           0.114150 (Hartree/Particle)
 Thermal correction to Energy=                    0.126773
 Thermal correction to Enthalpy=                  0.127717
 Thermal correction to Gibbs Free Energy=         0.072517
 Sum of electronic and zero-point Energies=           -883.902205
 Sum of electronic and thermal Energies=              -883.889582
 Sum of electronic and thermal Enthalpies=            -883.888638
 Sum of electronic and thermal Free Energies=         -883.943838

                     E (Thermal)             CV                S
                      KCal/Mol        Cal/Mol-Kelvin    Cal/Mol-Kelvin
 Total                   79.551             45.272            116.178
 Electronic               0.000              0.000              0.000
 Translational            0.889              2.981             42.135
 Rotational               0.889              2.981             32.585
 Vibrational             77.774             39.310             41.458
 Vibration     1          0.594              1.983              5.631
 Vibration     2          0.595              1.979              4.930
 Vibration     3          0.597              1.971              4.285
 Vibration     4          0.598              1.970              4.229
 Vibration     5          0.606              1.941              3.266
 Vibration     6          0.618              1.902              2.660
 Vibration     7          0.620              1.897              2.612
 Vibration     8          0.648              1.808              1.943
 Vibration     9          0.659              1.774              1.779
 Vibration    10          0.681              1.707              1.521
 Vibration    11          0.729              1.569              1.151
 Vibration    12          0.790              1.409              0.865
 Vibration    13          0.806              1.368              0.805
 Vibration    14          0.847              1.270              0.681
 Vibration    15          0.882              1.190              0.593
 Vibration    16          0.936              1.076              0.487
 Vibration    17          0.955              1.039              0.455
 Vibration    18          0.957              1.035              0.452

 Optimization completed.
    -- Stationary point found.
 Normal termination of Gaussian 16 at Thu Dec 10 21:12:48 2020.

 ----------------------------------------------------------------------
 # B3LYP/6-311++G(d,p) empiricaldispersion=gd3bj scf=xqc pop=npa geom=c
 heck
 ----------------------------------------------------------------------

 ---------------------------------------
 CID_112619544_JID_6174_Energie_neutraal
 ---------------------------------------
 Structure from the checkpoint file:  "JID_6174.chk"
 Charge =  0 Multiplicity = 1

 SCF Done:  E(RB3LYP) =  -884.273612916     A.U. after   16 cycles
 Normal termination of Gaussian 16 at Thu Dec 10 21:14:47 2020.

 ----------------------------------------------------------------------
 # B3LYP/6-311++G(d,p) empiricaldispersion=gd3bj scf=xqc pop=npa geom=c
 heck
 ----------------------------------------------------------------------

 -------------------------------------
 CID_112619544_JID_6174_Energie_kation
 -------------------------------------
 Structure from the checkpoint file:  "JID_6174.chk"
 Charge =  1 Multiplicity = 2

 SCF Done:  E(UB3LYP) =  -883.922017284     A.U. after   29 cycles
 Normal termination of Gaussian 16 at Thu Dec 10 21:19:29 2020.
 Gaussian 16:  ES64L-G16RevA.03 25-Dec-2016

 ----------------------------------------------------------------------
 # B3LYP/6-311++G(d,p) empiricaldispersion=gd3bj scf=xqc pop=npa geom=c
 heck
 ----------------------------------------------------------------------

 ------------------------------------
 CID_112619544_JID_6174_Energie_anion
 ------------------------------------
 Structure from the checkpoint file:  "JID_6174.chk"
 Charge = -1 Multiplicity = 2

                         Standard orientation:
 ---------------------------------------------------------------------
 Center     Atomic      Atomic             Coordinates (Angstroms)
 Number     Number       Type             X           Y           Z
 ---------------------------------------------------------------------
      1          6           0       -1.054988    1.628084   -0.000120
      2          6           0       -0.659108    0.309069   -0.000049
      3          8           0       -1.740409   -0.517920    0.000037
      4          6           0       -2.821616    0.291446   -0.000022
      5          6           0       -2.474821    1.615181   -0.000096
      6          7           0       -4.113118   -0.328246    0.000055
      7          8           0       -4.164055   -1.554050    0.000227
      8          8           0       -5.071108    0.449556   -0.000040
      9          6           0        0.642233   -0.299437   -0.000050
     10          7           0        0.971038   -1.565065   -0.000169
     11          7           0        2.353732   -1.600943   -0.000117
     12          6           0        2.759814   -0.366188   -0.000004
     13          8           0        1.723043    0.524636    0.000054
     14          6           0        4.160108    0.117440    0.000080
     15          8           0        5.119753   -0.612754   -0.000049
     16          8           0        4.209206    1.466145    0.000188
     17          1           0       -0.400946    2.487648   -0.000195
     18          1           0       -3.157759    2.450112   -0.000148
     19          1           0        5.155957    1.703546    0.000189
 ---------------------------------------------------------------------

 SCF Done:  E(UB3LYP) =  -884.352107877     A.U. after   21 cycles

 The electronic state is 2-A.
 Alpha  occ. eigenvalues --  -19.10097 -19.09167 -19.08529 -19.02334 -18.99986
 Alpha  occ. eigenvalues --  -18.99758 -14.39122 -14.24314 -14.22937 -10.22062
 Alpha  occ. eigenvalues --  -10.16331 -10.16127 -10.14918 -10.13482 -10.08290
 Alpha  occ. eigenvalues --  -10.08066  -1.08320  -1.06021  -1.02792  -1.02143
 Alpha  occ. eigenvalues --   -0.94002  -0.90972  -0.88164  -0.74988  -0.71572
 Alpha  occ. eigenvalues --   -0.68846  -0.61357  -0.60099  -0.52688  -0.52088
 Alpha  occ. eigenvalues --   -0.49345  -0.45892  -0.44800  -0.42755  -0.41130
 Alpha  occ. eigenvalues --   -0.40399  -0.40306  -0.39130  -0.36728  -0.36440
 Alpha  occ. eigenvalues --   -0.35063  -0.34589  -0.32715  -0.32410  -0.31584
 Alpha  occ. eigenvalues --   -0.28601  -0.25374  -0.24385  -0.22418  -0.20868
 Alpha  occ. eigenvalues --   -0.20392  -0.19508  -0.17905  -0.17597  -0.17188
 Alpha  occ. eigenvalues --   -0.15406  -0.13148  -0.01901
 Alpha virt. eigenvalues --    0.03090   0.06208   0.07916   0.08483   0.10905
 Alpha virt. eigenvalues --    0.12297   0.13305   0.13674   0.14619   0.15258
 Alpha virt. eigenvalues --    0.15663   0.16298   0.16378   0.17062   0.17738

  Beta  occ. eigenvalues --  -19.09858 -19.09138 -19.08273 -19.02169 -18.99637
  Beta  occ. eigenvalues --  -18.99403 -14.38806 -14.24350 -14.22885 -10.21980
  Beta  occ. eigenvalues --  -10.16198 -10.15973 -10.14782 -10.13357 -10.08281
  Beta  occ. eigenvalues --  -10.08050  -1.07674  -1.05700  -1.02643  -1.01739
  Beta  occ. eigenvalues --   -0.93772  -0.90327  -0.87995  -0.74671  -0.71373
  Beta  occ. eigenvalues --   -0.68347  -0.60972  -0.59625  -0.52501  -0.51902
  Beta  occ. eigenvalues --   -0.49173  -0.45695  -0.44589  -0.42292  -0.40071
  Beta  occ. eigenvalues --   -0.40048  -0.38934  -0.38850  -0.36246  -0.35692
  Beta  occ. eigenvalues --   -0.34872  -0.33467  -0.32582  -0.32277  -0.31470
  Beta  occ. eigenvalues --   -0.28380  -0.24711  -0.23723  -0.22377  -0.20212
  Beta  occ. eigenvalues --   -0.19695  -0.18697  -0.17524  -0.16818  -0.15546
  Beta  occ. eigenvalues --   -0.15058  -0.12055
  Beta virt. eigenvalues --    0.03166   0.05373   0.06213   0.08470   0.09287
  Beta virt. eigenvalues --    0.10893   0.12325   0.13338   0.13681   0.14646
  Beta virt. eigenvalues --    0.15529   0.16305   0.16400   0.16490   0.17071

 Mulliken charges and spin densities:
               1          2
     1  C   -0.954808   0.014543
     2  C    0.426141   0.078786
     3  O   -0.061174   0.064211
     4  C   -0.541225   0.081758
     5  C    0.660542   0.031194
     6  N   -0.361763   0.099649
     7  O   -0.104187   0.130704
     8  O   -0.137351   0.129012
     9  C   -0.331872   0.065970
    10  N   -0.100878   0.029042
    11  N   -0.094849  -0.021134
    12  C    0.492514   0.108153
    13  O   -0.044261   0.055187
    14  C    0.018299   0.073970
    15  O   -0.307079   0.055825
    16  O   -0.204619   0.004995
    17  H    0.164521  -0.000377
    18  H    0.205775  -0.001282
    19  H    0.276274  -0.000207
 Sum of Mulliken charges =  -1.00000   1.00000

 Dipole moment (field-independent basis, Debye):
    X=              6.0941    Y=              7.0549    Z=              0.0001  Tot=              9.3225
 Quadrupole moment (field-independent basis, Debye-Ang):
   XX=           -175.3947   YY=           -105.3957   ZZ=            -90.7947
   XY=              7.5378   XZ=              0.0027   YZ=             -0.0005

 Summary of Natural Population Analysis:

                                       Natural Population
                Natural  -----------------------------------------------
    Atom  No    Charge         Core      Valence    Rydberg      Total
 -----------------------------------------------------------------------
      C    1   -0.13397      0.99958     2.12589    0.00850     3.13397
      C    2    0.14496      0.99933     1.84208    0.01363     2.85504
      O    3   -0.18469      0.99984     3.17580    0.00905     4.18469
      C    4    0.23138      0.99940     1.75317    0.01606     2.76862
      C    5   -0.13904      0.99953     2.13042    0.00909     3.13904
      N    6    0.25717      0.99970     2.21545    0.02767     3.24283
      O    7   -0.17299      0.99990     3.16506    0.00803     4.17299
      O    8   -0.19335      0.99990     3.18560    0.00785     4.19335
      C    9    0.25314      0.99957     1.73021    0.01709     2.74686
      N   10   -0.14618      0.99969     2.63379    0.01271     3.64618
      N   11   -0.13790      0.99968     2.62530    0.01292     3.63790
      C   12    0.21016      0.99956     1.77222    0.01806     2.78984
      O   13   -0.20943      0.99985     3.20047    0.00910     4.20943
      C   14    0.37780      0.99969     1.59829    0.02421     2.62220
      O   15   -0.27870      0.99987     3.27073    0.00810     4.27870
      O   16   -0.33858      0.99988     3.33276    0.00595     4.33858
      H   17    0.10946      0.00000     0.38968    0.00086     0.39054
      H   18    0.11503      0.00000     0.38391    0.00106     0.38497
      H   19    0.23577      0.00000     0.26131    0.00292     0.26423
 =======================================================================
   * Total *    0.00004     15.99497    40.79213    0.21286    56.99996

 Normal termination of Gaussian 16 at Thu Dec 10 21:22:56 2020.
