 Gaussian 16, Revision A.03,

 -----------------------------------------------------------
 # opt freq B3LYP/6-31G(d) empiricaldispersion=gd3bj scf=xqc
 -----------------------------------------------------------

 -------------------------------
 CID_112549311_JID_8696_neutraal
 -------------------------------
 Symbolic Z-matrix:
 Charge =  0 Multiplicity = 1

 SCF Done:  E(RB3LYP) =  -748.557799918     A.U. after   14 cycles
 SCF Done:  E(RB3LYP) =  -748.562620896     A.U. after   12 cycles
 SCF Done:  E(RB3LYP) =  -748.562148562     A.U. after   12 cycles
 SCF Done:  E(RB3LYP) =  -748.563440970     A.U. after   11 cycles
 SCF Done:  E(RB3LYP) =  -748.564251390     A.U. after   12 cycles
 SCF Done:  E(RB3LYP) =  -748.565076607     A.U. after   13 cycles
 SCF Done:  E(RB3LYP) =  -748.565866840     A.U. after   13 cycles
 SCF Done:  E(RB3LYP) =  -748.566633295     A.U. after   12 cycles
 SCF Done:  E(RB3LYP) =  -748.566787555     A.U. after   13 cycles
 SCF Done:  E(RB3LYP) =  -748.566720162     A.U. after   13 cycles
 SCF Done:  E(RB3LYP) =  -748.567312741     A.U. after   10 cycles
 SCF Done:  E(RB3LYP) =  -748.567320939     A.U. after    9 cycles
 SCF Done:  E(RB3LYP) =  -748.567321270     A.U. after    9 cycles
 SCF Done:  E(RB3LYP) =  -748.567321275     A.U. after    6 cycles
 SCF Done:  E(RB3LYP) =  -748.567321278     A.U. after    6 cycles
 Optimization completed.
    -- Stationary point found.
 Normal termination of Gaussian 16 at Fri Dec 11 22:02:33 2020.

 --------------------------------------------------------------------
 #N Geom=AllCheck Guess=TCheck SCRF=Check GenChk RB3LYP/6-31G(d) Freq
 --------------------------------------------------------------------

 Structure from the checkpoint file:  "JID_8696.chk"
 -------------------------------
 CID_112549311_JID_8696_neutraal
 -------------------------------
 Charge =  0 Multiplicity = 1

 SCF Done:  E(RB3LYP) =  -748.567321278     A.U. after    1 cycles

  Exact polarizability: 198.909 -18.658 159.123  25.196   9.167 146.564
 Approx polarizability: 270.653 -31.745 264.700  48.783  18.018 239.959

                      1                      2                      3
                      A                      A                      A
 Frequencies --     25.3058                40.6765                44.1594
 Red. masses --      4.1850                 1.3398                 2.2788
 Frc consts  --      0.0016                 0.0013                 0.0026
 IR Inten    --      0.3171                 0.0416                 0.1916

                      4                      5                      6
                      A                      A                      A
 Frequencies --     53.7637                94.1802               108.1245
 Red. masses --      3.4542                 3.2448                 3.1520
 Frc consts  --      0.0059                 0.0170                 0.0217
 IR Inten    --      0.4092                 0.2107                 0.0368

                      7                      8                      9
                      A                      A                      A
 Frequencies --    123.2940               141.3502               164.3319
 Red. masses --      3.5378                 3.0835                 3.0512
 Frc consts  --      0.0317                 0.0363                 0.0485
 IR Inten    --      0.0710                 4.6150                 0.0539

                     10                     11                     12
                      A                      A                      A
 Frequencies --    167.2120               205.8020               208.9933
 Red. masses --      1.0828                 1.8497                 1.2107
 Frc consts  --      0.0178                 0.0462                 0.0312
 IR Inten    --      0.3640                 1.2403                 0.3789

                     13                     14                     15
                      A                      A                      A
 Frequencies --    217.8915               235.6657               277.4265
 Red. masses --      1.6894                 2.8502                 2.6248
 Frc consts  --      0.0473                 0.0933                 0.1190
 IR Inten    --      0.6312                 0.6566                 6.3979

                     16                     17                     18
                      A                      A                      A
 Frequencies --    286.7741               309.8943               344.6453
 Red. masses --      1.9891                 2.6084                 2.4034
 Frc consts  --      0.0964                 0.1476                 0.1682
 IR Inten    --      2.1696                 0.2682                 1.8827

                     19                     20                     21
                      A                      A                      A
 Frequencies --    359.7501               384.7522               462.6005
 Red. masses --      2.4269                 3.4899                 4.2693
 Frc consts  --      0.1851                 0.3044                 0.5383
 IR Inten    --      3.0169                 0.7809                 5.6865

                     22                     23                     24
                      A                      A                      A
 Frequencies --    472.6376               492.2511               507.6062
 Red. masses --      3.3125                 2.8138                 4.1152
 Frc consts  --      0.4360                 0.4017                 0.6247
 IR Inten    --      1.3117                 0.7834                 3.2841

                     25                     26                     27
                      A                      A                      A
 Frequencies --    514.6376               550.6421               607.2212
 Red. masses --      3.3525                 4.4349                 3.8948
 Frc consts  --      0.5231                 0.7923                 0.8461
 IR Inten    --      1.0036                 4.9313                 0.9287

                     28                     29                     30
                      A                      A                      A
 Frequencies --    616.0663               623.1505               659.8297
 Red. masses --      4.5454                 3.9157                 3.9115
 Frc consts  --      1.0164                 0.8959                 1.0034
 IR Inten    --      0.2059                 4.5727                 6.3284

                     31                     32                     33
                      A                      A                      A
 Frequencies --    669.8767               732.5286               742.4822
 Red. masses --      4.2781                 2.1162                 1.8102
 Frc consts  --      1.1311                 0.6690                 0.5880
 IR Inten    --      2.1212                 2.7894                33.7018

                     34                     35                     36
                      A                      A                      A
 Frequencies --    784.2032               785.5505               791.4218
 Red. masses --      1.4831                 1.9625                 2.2875
 Frc consts  --      0.5374                 0.7135                 0.8442
 IR Inten    --      1.8864                16.8778                 4.2707

                     37                     38                     39
                      A                      A                      A
 Frequencies --    808.9828               830.8685               847.3231
 Red. masses --      1.6306                 3.3077                 2.4493
 Frc consts  --      0.6287                 1.3454                 1.0361
 IR Inten    --     67.2896                 2.0001                70.7022

                     40                     41                     42
                      A                      A                      A
 Frequencies --    882.1150               903.1464               951.3132
 Red. masses --      1.4596                 2.2022                 1.2531
 Frc consts  --      0.6692                 1.0583                 0.6681
 IR Inten    --      9.4227                 4.5307                 0.4859

                     43                     44                     45
                      A                      A                      A
 Frequencies --    989.3625              1000.0665              1023.3296
 Red. masses --      2.1150                 2.0196                 1.4284
 Frc consts  --      1.2197                 1.1901                 0.8813
 IR Inten    --      3.5482                 1.6220                 7.0474

                     46                     47                     48
                      A                      A                      A
 Frequencies --   1037.0638              1057.5890              1065.3008
 Red. masses --      5.3082                 1.6027                 2.5210
 Frc consts  --      3.3636                 1.0562                 1.6856
 IR Inten    --     16.6203                16.8339                22.3235

                     49                     50                     51
                      A                      A                      A
 Frequencies --   1073.8197              1085.3679              1104.9955
 Red. masses --      1.6273                 1.5906                 1.8943
 Frc consts  --      1.1055                 1.1040                 1.3628
 IR Inten    --      1.5523                 1.9640                 9.9014

                     52                     53                     54
                      A                      A                      A
 Frequencies --   1110.5326              1117.2711              1128.1834
 Red. masses --      1.9479                 1.5215                 1.9288
 Frc consts  --      1.4154                 1.1190                 1.4465
 IR Inten    --     24.3242                15.7520                15.6893

                     55                     56                     57
                      A                      A                      A
 Frequencies --   1160.3589              1194.9232              1200.4172
 Red. masses --      1.3128                 1.7124                 2.3080
 Frc consts  --      1.0414                 1.4406                 1.9595
 IR Inten    --      5.4896                16.3895                 1.6361

                     58                     59                     60
                      A                      A                      A
 Frequencies --   1202.6903              1221.4550              1269.6412
 Red. masses --      1.5290                 2.8003                 1.6121
 Frc consts  --      1.3030                 2.4615                 1.5311
 IR Inten    --      5.0105                10.7957                 4.4612

                     61                     62                     63
                      A                      A                      A
 Frequencies --   1286.4206              1301.2938              1311.4752
 Red. masses --      2.0693                 1.6470                 1.4478
 Frc consts  --      2.0176                 1.6432                 1.4672
 IR Inten    --     44.3910                 6.5182                 1.1567

                     64                     65                     66
                      A                      A                      A
 Frequencies --   1344.9032              1353.7230              1371.7591
 Red. masses --      3.6605                 4.4643                 1.6486
 Frc consts  --      3.9010                 4.8202                 1.8278
 IR Inten    --     11.1437                 6.2844                11.4489

                     67                     68                     69
                      A                      A                      A
 Frequencies --   1390.7069              1420.6724              1434.9853
 Red. masses --      1.3112                 2.8549                 1.2842
 Frc consts  --      1.4941                 3.3950                 1.5580
 IR Inten    --     12.3628                 6.6108                 1.6989

                     70                     71                     72
                      A                      A                      A
 Frequencies --   1436.9930              1446.9655              1473.3128
 Red. masses --      1.2741                 1.2244                 1.7053
 Frc consts  --      1.5501                 1.5104                 2.1810
 IR Inten    --      3.8717                 1.6657                 6.5363

                     73                     74                     75
                      A                      A                      A
 Frequencies --   1475.1754              1491.7207              1498.3413
 Red. masses --      1.6610                 2.2129                 1.5212
 Frc consts  --      2.1296                 2.9012                 2.0121
 IR Inten    --     30.9246                15.2311                 5.5461

                     76                     77                     78
                      A                      A                      A
 Frequencies --   1505.0304              1509.4127              1512.3582
 Red. masses --      1.0500                 1.2898                 1.3262
 Frc consts  --      1.4013                 1.7314                 1.7872
 IR Inten    --      6.7010                 1.0847                 2.8990

                     79                     80                     81
                      A                      A                      A
 Frequencies --   1514.9424              1518.2989              1524.3961
 Red. masses --      1.5845                 1.2024                 1.0617
 Frc consts  --      2.1425                 1.6331                 1.4536
 IR Inten    --      3.4520                11.2223                 4.3451

                     82                     83                     84
                      A                      A                      A
 Frequencies --   1526.3239              1528.8795              1539.9010
 Red. masses --      1.2491                 1.1296                 1.1357
 Frc consts  --      1.7145                 1.5556                 1.5868
 IR Inten    --     27.1354                16.1759                24.7894

                     85                     86                     87
                      A                      A                      A
 Frequencies --   1544.2023              1550.6380              1550.8740
 Red. masses --      1.1934                 1.3543                 1.4783
 Frc consts  --      1.6767                 1.9186                 2.0948
 IR Inten    --      5.5551                 6.2835                10.0299

                     88                     89                     90
                      A                      A                      A
 Frequencies --   1600.8086              1646.2142              1660.3266
 Red. masses --      5.5494                 5.8475                 5.1430
 Frc consts  --      8.3787                 9.3367                 8.3532
 IR Inten    --     39.6219                27.7754                 3.9337

                     91                     92                     93
                      A                      A                      A
 Frequencies --   3028.3321              3038.8903              3039.5903
 Red. masses --      1.0508                 1.0396                 1.0694
 Frc consts  --      5.6775                 5.6563                 5.8212
 IR Inten    --     25.6265                27.5337                34.3776

                     94                     95                     96
                      A                      A                      A
 Frequencies --   3058.6924              3066.0124              3069.1998
 Red. masses --      1.0383                 1.0351                 1.0678
 Frc consts  --      5.7231                 5.7327                 5.9264
 IR Inten    --     36.7121                60.6035                49.2402

                     97                     98                     99
                      A                      A                      A
 Frequencies --   3088.0382              3097.0971              3105.2420
 Red. masses --      1.0991                 1.0850                 1.0928
 Frc consts  --      6.1752                 6.1316                 6.2084
 IR Inten    --     25.9631                27.4392                12.5738

                    100                    101                    102
                      A                      A                      A
 Frequencies --   3127.3743              3127.7711              3134.8836
 Red. masses --      1.1000                 1.0988                 1.1025
 Frc consts  --      6.3386                 6.3334                 6.3835
 IR Inten    --     21.3224                28.8693                15.3487

                    103                    104                    105
                      A                      A                      A
 Frequencies --   3135.1236              3142.4843              3156.3557
 Red. masses --      1.0963                 1.1002                 1.1018
 Frc consts  --      6.3489                 6.4011                 6.4676
 IR Inten    --     21.4374                 3.2703                13.2955

                    106                    107                    108
                      A                      A                      A
 Frequencies --   3163.1686              3174.0944              3183.5478
 Red. masses --      1.1053                 1.0860                 1.0899
 Frc consts  --      6.5161                 6.4465                 6.5085
 IR Inten    --     10.0420                 3.5844                25.8942

                    109                    110                    111
                      A                      A                      A
 Frequencies --   3202.2046              3257.0185              3508.7003
 Red. masses --      1.0966                 1.0971                 1.0739
 Frc consts  --      6.6250                 6.8570                 7.7895
 IR Inten    --     27.0947                 2.9021                 0.0730

 - Thermochemistry -
 -------------------
 Temperature   298.150 Kelvin.  Pressure   1.00000 Atm.
 Atom     1 has atomic number  6 and mass  12.00000

 Molecular mass:   243.17355 amu.
 Principal axes and moments of inertia in atomic units:
                           1         2         3
     Eigenvalues --  2427.447866404.385606810.99136
           X            0.99974  -0.00682   0.02167
           Y            0.00628   0.99967   0.02489
           Z           -0.02183  -0.02475   0.99946
 This molecule is an asymmetric top.
 Rotational symmetry number  1.
 Warning -- assumption of classical behavior for rotation
           may cause significant error
 Rotational temperatures (Kelvin)      0.03568     0.01352     0.01272
 Rotational constants (GHZ):           0.74347     0.28180     0.26497
 Zero-point vibrational energy     892699.4 (Joules/Mol)
                                  213.36029 (Kcal/Mol)
 Warning -- explicit consideration of  28 degrees of freedom as
           vibrations may cause significant error
 Vibrational temperatures:     36.41    58.52    63.54    77.35   135.50
          (Kelvin)            155.57   177.39   203.37   236.44   240.58
                              296.10   300.69   313.50   339.07   399.15
                              412.60   445.87   495.87   517.60   553.57
                              665.58   680.02   708.24   730.33   740.45
                              792.25   873.66   886.38   896.57   949.35
                              963.80  1053.95  1068.27  1128.29  1130.23
                             1138.68  1163.95  1195.43  1219.11  1269.17
                             1299.43  1368.73  1423.47  1438.87  1472.34
                             1492.10  1521.63  1532.73  1544.99  1561.60
                             1589.84  1597.81  1607.50  1623.20  1669.50
                             1719.23  1727.13  1730.40  1757.40  1826.73
                             1850.87  1872.27  1886.92  1935.02  1947.71
                             1973.66  2000.92  2044.03  2064.62  2067.51
                             2081.86  2119.77  2122.45  2146.25  2155.78
                             2165.40  2171.71  2175.95  2179.66  2184.49
                             2193.27  2196.04  2199.72  2215.57  2221.76
                             2231.02  2231.36  2303.21  2368.54  2388.84
                             4357.09  4372.29  4373.29  4400.78  4411.31
                             4415.89  4443.00  4456.03  4467.75  4499.59
                             4500.17  4510.40  4510.74  4521.33  4541.29
                             4551.09  4566.81  4580.42  4607.26  4686.12
                             5048.24

 Zero-point correction=                           0.340011 (Hartree/Particle)
 Thermal correction to Energy=                    0.358274
 Thermal correction to Enthalpy=                  0.359218
 Thermal correction to Gibbs Free Energy=         0.292935
 Sum of electronic and zero-point Energies=           -748.227310
 Sum of electronic and thermal Energies=              -748.209047
 Sum of electronic and thermal Enthalpies=            -748.208103
 Sum of electronic and thermal Free Energies=         -748.274386

                     E (Thermal)             CV                S
                      KCal/Mol        Cal/Mol-Kelvin    Cal/Mol-Kelvin
 Total                  224.820             68.985            139.504
 Electronic               0.000              0.000              0.000
 Translational            0.889              2.981             42.367
 Rotational               0.889              2.981             33.026
 Vibrational            223.043             63.024             64.112
 Vibration     1          0.593              1.985              6.167
 Vibration     2          0.594              1.981              5.226
 Vibration     3          0.595              1.980              5.063
 Vibration     4          0.596              1.976              4.674
 Vibration     5          0.603              1.953              3.571
 Vibration     6          0.606              1.943              3.302
 Vibration     7          0.610              1.930              3.048
 Vibration     8          0.615              1.912              2.786
 Vibration     9          0.623              1.886              2.499
 Vibration    10          0.624              1.883              2.467
 Vibration    11          0.640              1.832              2.081
 Vibration    12          0.642              1.827              2.052
 Vibration    13          0.646              1.814              1.977
 Vibration    14          0.655              1.786              1.835
 Vibration    15          0.678              1.715              1.549
 Vibration    16          0.684              1.698              1.493
 Vibration    17          0.699              1.655              1.363
 Vibration    18          0.723              1.586              1.191
 Vibration    19          0.734              1.555              1.123
 Vibration    20          0.754              1.503              1.020
 Vibration    21          0.820              1.333              0.759
 Vibration    22          0.830              1.311              0.730
 Vibration    23          0.848              1.267              0.678
 Vibration    24          0.863              1.233              0.639
 Vibration    25          0.870              1.218              0.623
 Vibration    26          0.906              1.138              0.543
 Vibration    27          0.966              1.017              0.437
 Vibration    28          0.976              0.998              0.423

 Optimization completed.
    -- Stationary point found.
 Normal termination of Gaussian 16 at Fri Dec 11 22:23:08 2020.

 ----------------------------------------------------------------------
 # B3LYP/6-311++G(d,p) empiricaldispersion=gd3bj scf=xqc pop=npa geom=c
 heck
 ----------------------------------------------------------------------

 ---------------------------------------
 CID_112549311_JID_8696_Energie_neutraal
 ---------------------------------------
 Structure from the checkpoint file:  "JID_8696.chk"
 Charge =  0 Multiplicity = 1

 SCF Done:  E(RB3LYP) =  -748.764792485     A.U. after   15 cycles
 Normal termination of Gaussian 16 at Fri Dec 11 22:32:15 2020.

 ----------------------------------------------------------------------
 # B3LYP/6-311++G(d,p) empiricaldispersion=gd3bj scf=xqc pop=npa geom=c
 heck
 ----------------------------------------------------------------------

 -------------------------------------
 CID_112549311_JID_8696_Energie_kation
 -------------------------------------
 Structure from the checkpoint file:  "JID_8696.chk"
 Charge =  1 Multiplicity = 2

 SCF Done:  E(UB3LYP) =  -748.493324220     A.U. after   26 cycles
 Normal termination of Gaussian 16 at Fri Dec 11 22:54:23 2020.
 Gaussian 16:  ES64L-G16RevA.03 25-Dec-2016

 ----------------------------------------------------------------------
 # B3LYP/6-311++G(d,p) empiricaldispersion=gd3bj scf=xqc pop=npa geom=c
 heck
 ----------------------------------------------------------------------

 ------------------------------------
 CID_112549311_JID_8696_Energie_anion
 ------------------------------------
 Structure from the checkpoint file:  "JID_8696.chk"
 Charge = -1 Multiplicity = 2

                         Standard orientation:
 ---------------------------------------------------------------------
 Center     Atomic      Atomic             Coordinates (Angstroms)
 Number     Number       Type             X           Y           Z
 ---------------------------------------------------------------------
      1          6           0        0.007900    2.391690   -0.894166
      2          6           0        0.563446    1.168316   -1.635311
      3          6           0        1.640852    0.458373   -0.864034
      4          7           0        2.729878    1.122721   -0.462913
      5          7           0        3.483195    0.210656    0.193084
      6          6           0        2.905509   -1.017202    0.206144
      7          6           0        1.699320   -0.907764   -0.469269
      8          6           0        0.672290   -1.986558   -0.659932
      9          7           0       -0.290614   -2.143320    0.457467
     10          6           0       -1.117355   -1.022569    0.742736
     11          6           0       -0.896624   -0.267346    1.902189
     12          6           0       -1.723480    0.805536    2.216443
     13          6           0       -2.756104    1.156889    1.350074
     14          6           0       -2.990095    0.421830    0.183312
     15          6           0       -2.186578   -0.695136   -0.117061
     16          6           0       -2.486220   -1.556460   -1.318698
     17          6           0       -4.116568    0.825110   -0.737826
     18          6           0        4.776715    0.598104    0.713270
     19          1           0       -0.432830    2.095301    0.060850
     20          1           0       -0.766371    2.888343   -1.489978
     21          1           0        0.808930    3.110105   -0.695479
     22          1           0       -0.249627    0.465609   -1.841007
     23          1           0        0.964653    1.480941   -2.608844
     24          1           0        3.385588   -1.863043    0.679723
     25          1           0        0.102256   -1.805822   -1.573532
     26          1           0        1.162089   -2.958584   -0.785694
     27          1           0        0.238304   -2.380987    1.293035
     28          1           0       -0.059896   -0.523295    2.547590
     29          1           0       -1.546084    1.382739    3.119673
     30          1           0       -3.388769    2.011197    1.575718
     31          1           0       -3.564529   -1.651919   -1.479992
     32          1           0       -2.064937   -1.143929   -2.246697
     33          1           0       -2.070182   -2.557127   -1.177058
     34          1           0       -4.901161    0.058695   -0.785190
     35          1           0       -4.583038    1.754772   -0.399189
     36          1           0       -3.763589    0.980295   -1.764606
     37          1           0        5.483896    0.782000   -0.102294
     38          1           0        4.671859    1.511593    1.303618
     39          1           0        5.158184   -0.204159    1.348672
 ---------------------------------------------------------------------

 SCF Done:  E(UB3LYP) =  -748.753089294     A.U. after   33 cycles
 SCF Done:  E(UB3LYP) =  -748.753089295     a.u. after    1 cycles

 The electronic state is 2-A.
 Alpha  occ. eigenvalues --  -14.29053 -14.22273 -14.21930 -10.11351 -10.11252
 Alpha  occ. eigenvalues --  -10.11168 -10.10374 -10.09362 -10.09245 -10.08817
 Alpha  occ. eigenvalues --  -10.08264 -10.08134 -10.07729 -10.07721 -10.07676
 Alpha  occ. eigenvalues --  -10.07660 -10.06904 -10.05892  -0.94937  -0.83516
 Alpha  occ. eigenvalues --   -0.76195  -0.75096  -0.69669  -0.68987  -0.67087
 Alpha  occ. eigenvalues --   -0.66393  -0.62417  -0.60126  -0.58648  -0.56860
 Alpha  occ. eigenvalues --   -0.52948  -0.50302  -0.49390  -0.47977  -0.45534
 Alpha  occ. eigenvalues --   -0.41987  -0.41652  -0.39435  -0.38363  -0.38136
 Alpha  occ. eigenvalues --   -0.36370  -0.35331  -0.34813  -0.33983  -0.33828
 Alpha  occ. eigenvalues --   -0.33071  -0.32626  -0.31765  -0.31501  -0.30720
 Alpha  occ. eigenvalues --   -0.30503  -0.29764  -0.29490  -0.28543  -0.27007
 Alpha  occ. eigenvalues --   -0.26338  -0.25722  -0.25064  -0.24837  -0.24619
 Alpha  occ. eigenvalues --   -0.19789  -0.18414  -0.15323  -0.15084  -0.14355
 Alpha  occ. eigenvalues --   -0.12299   0.04009
 Alpha virt. eigenvalues --    0.05335   0.06666   0.06979   0.07478   0.07619
 Alpha virt. eigenvalues --    0.08034   0.08294   0.08678   0.09258   0.09648
 Alpha virt. eigenvalues --    0.09891   0.10334   0.10653   0.11157   0.11444

  Beta  occ. eigenvalues --  -14.29051 -14.22265 -14.21919 -10.11349 -10.11204
  Beta  occ. eigenvalues --  -10.11155 -10.10340 -10.09361 -10.09244 -10.08814
  Beta  occ. eigenvalues --  -10.08262 -10.08109 -10.07721 -10.07713 -10.07671
  Beta  occ. eigenvalues --  -10.07645 -10.06906 -10.05886  -0.94926  -0.83495
  Beta  occ. eigenvalues --   -0.76183  -0.75079  -0.69648  -0.68970  -0.67068
  Beta  occ. eigenvalues --   -0.66373  -0.62385  -0.60092  -0.58616  -0.56826
  Beta  occ. eigenvalues --   -0.52917  -0.50274  -0.49366  -0.47944  -0.45498
  Beta  occ. eigenvalues --   -0.41944  -0.41618  -0.39406  -0.38340  -0.38109
  Beta  occ. eigenvalues --   -0.36345  -0.35302  -0.34787  -0.33953  -0.33802
  Beta  occ. eigenvalues --   -0.33052  -0.32600  -0.31740  -0.31479  -0.30679
  Beta  occ. eigenvalues --   -0.30485  -0.29738  -0.29468  -0.28522  -0.26989
  Beta  occ. eigenvalues --   -0.26321  -0.25709  -0.25049  -0.24821  -0.24606
  Beta  occ. eigenvalues --   -0.19772  -0.18398  -0.15311  -0.15064  -0.14342
  Beta  occ. eigenvalues --   -0.12284
  Beta virt. eigenvalues --    0.05751   0.06764   0.06874   0.07511   0.07626
  Beta virt. eigenvalues --    0.07680   0.08431   0.08603   0.08991   0.09420
  Beta virt. eigenvalues --    0.09811   0.10365   0.10518   0.10874   0.11641

 Mulliken charges and spin densities:
               1          2
     1  C   -0.502953  -0.093898
     2  C    0.038133  -0.182231
     3  C   -0.119145  -0.274759
     4  N   -0.404022   0.291885
     5  N    0.131710   0.050640
     6  C    0.632361  -0.863365
     7  C    0.351635   0.254874
     8  C   -0.390218  -0.470760
     9  N   -0.029706   0.087455
    10  C   -0.097680  -0.128259
    11  C   -0.082832  -0.035097
    12  C    0.077121  -0.629098
    13  C   -0.213663  -0.162972
    14  C   -1.012664   1.355507
    15  C   -0.510014   0.804344
    16  C    0.649134  -1.114091
    17  C    1.169374  -1.766974
    18  C    1.161247  -1.432064
    19  H    0.251392  -0.055008
    20  H   -0.009713   0.130863
    21  H    0.147833   0.000094
    22  H    0.156648  -0.116947
    23  H    0.109546   0.085777
    24  H   -1.249338   1.448200
    25  H    0.138954   0.017469
    26  H   -0.115743   0.309598
    27  H    0.005050   0.250716
    28  H   -0.156233   0.326804
    29  H    0.051697   0.106209
    30  H   -0.025779   0.167804
    31  H    0.034322   0.104064
    32  H    0.028480   0.162275
    33  H    0.060337   0.129079
    34  H    0.024410   0.139311
    35  H   -0.212541   0.351915
    36  H   -0.088605   0.254593
    37  H   -0.204893   0.376386
    38  H   -0.130310   0.299031
    39  H   -0.663332   0.820628
 Sum of Mulliken charges =  -1.00000   1.00000

 Dipole moment (field-independent basis, Debye):
    X=             -6.1819    Y=              2.2782    Z=             -2.2002  Tot=              6.9460
 Quadrupole moment (field-independent basis, Debye-Ang):
   XX=           -211.9131   YY=           -155.7864   ZZ=           -146.0606
   XY=             12.4557   XZ=            -15.2308   YZ=              8.2164

 Summary of Natural Population Analysis:

                                       Natural Population
                Natural  -----------------------------------------------
    Atom  No    Charge         Core      Valence    Rydberg      Total
 -----------------------------------------------------------------------
      C    1   -0.28088      0.99966     2.27704    0.00418     3.28088
      C    2   -0.20285      0.99960     2.19603    0.00723     3.20285
      C    3    0.08262      0.99953     1.90271    0.01513     2.91738
      N    4   -0.16309      0.99969     2.65245    0.01095     3.66309
      N    5   -0.10166      0.99967     2.58954    0.01245     3.60166
      C    6    0.00385      0.99949     1.98412    0.01255     2.99615
      C    7   -0.08675      0.99946     2.07671    0.01058     3.08675
      C    8   -0.09497      0.99956     2.08379    0.01161     3.09497
      N    9   -0.32598      0.99971     2.81467    0.01160     3.82598
      C   10    0.08532      0.99943     1.90329    0.01196     2.91468
      C   11   -0.11553      0.99951     2.10641    0.00961     3.11553
      C   12   -0.09886      0.99956     2.08996    0.00934     3.09886
      C   13   -0.11281      0.99951     2.10378    0.00951     3.11281
      C   14   -0.01228      0.99948     2.00340    0.00940     3.01228
      C   15   -0.02837      0.99943     2.01964    0.00930     3.02837
      C   16   -0.30185      0.99964     2.29615    0.00606     3.30185
      C   17   -0.29416      0.99964     2.28874    0.00578     3.29416
      C   18   -0.17077      0.99963     2.16257    0.00857     3.17077
      H   19    0.10468      0.00000     0.39378    0.00154     0.39532
      H   20    0.09292      0.00000     0.40622    0.00087     0.40708
      H   21    0.10026      0.00000     0.39868    0.00106     0.39974
      H   22    0.09939      0.00000     0.39855    0.00206     0.40061
      H   23    0.09940      0.00000     0.39955    0.00105     0.40060
      H   24    0.10861      0.00000     0.38687    0.00452     0.39139
      H   25    0.09845      0.00000     0.40002    0.00153     0.40155
      H   26    0.10164      0.00000     0.39734    0.00102     0.39836
      H   27    0.17851      0.00000     0.31825    0.00323     0.32149
      H   28    0.10306      0.00000     0.39585    0.00109     0.39694
      H   29    0.09997      0.00000     0.39924    0.00078     0.40003
      H   30    0.09803      0.00000     0.40110    0.00087     0.40197
      H   31    0.10353      0.00000     0.39568    0.00079     0.39647
      H   32    0.10201      0.00000     0.39690    0.00110     0.39799
      H   33    0.11255      0.00000     0.38630    0.00115     0.38745
      H   34    0.10296      0.00000     0.39608    0.00096     0.39704
      H   35    0.10242      0.00000     0.39670    0.00088     0.39758
      H   36    0.10459      0.00000     0.39432    0.00109     0.39541
      H   37    0.09841      0.00000     0.40021    0.00138     0.40159
      H   38    0.10209      0.00000     0.39658    0.00133     0.39791
      H   39    0.10555      0.00000     0.39129    0.00316     0.39445
 =======================================================================
   * Total *    0.00000     17.99220    47.80052    0.20728    66.00000

 Normal termination of Gaussian 16 at Fri Dec 11 23:22:41 2020.
