 Gaussian 16, Revision A.03,

 -----------------------------------------------------------
 # opt freq B3LYP/6-31G(d) empiricaldispersion=gd3bj scf=xqc
 -----------------------------------------------------------

 -------------------------------
 CID_101787705_JID_7765_neutraal
 -------------------------------
 Symbolic Z-matrix:
 Charge =  0 Multiplicity = 1

 SCF Done:  E(RB3LYP) =  -1138.67262104     A.U. after   15 cycles
 SCF Done:  E(RB3LYP) =  -1138.67796251     A.U. after   12 cycles
 SCF Done:  E(RB3LYP) =  -1138.68027925     A.U. after   12 cycles
 SCF Done:  E(RB3LYP) =  -1138.68199058     A.U. after   12 cycles
 SCF Done:  E(RB3LYP) =  -1138.68306860     A.U. after   12 cycles
 SCF Done:  E(RB3LYP) =  -1138.68338611     A.U. after   12 cycles
 SCF Done:  E(RB3LYP) =  -1138.68357023     A.U. after   12 cycles
 SCF Done:  E(RB3LYP) =  -1138.68370342     A.U. after   12 cycles
 SCF Done:  E(RB3LYP) =  -1138.68378557     A.U. after   12 cycles
 SCF Done:  E(RB3LYP) =  -1138.68382216     A.U. after   11 cycles
 SCF Done:  E(RB3LYP) =  -1138.68383475     A.U. after    8 cycles
 SCF Done:  E(RB3LYP) =  -1138.68383498     A.U. after    9 cycles
 SCF Done:  E(RB3LYP) =  -1138.68383515     A.U. after    8 cycles
 SCF Done:  E(RB3LYP) =  -1138.68383534     A.U. after    8 cycles
 SCF Done:  E(RB3LYP) =  -1138.68383541     A.U. after    7 cycles
 Optimization completed.
    -- Stationary point found.
 Normal termination of Gaussian 16 at Fri Dec 11 13:16:34 2020.

 --------------------------------------------------------------------
 #N Geom=AllCheck Guess=TCheck SCRF=Check GenChk RB3LYP/6-31G(d) Freq
 --------------------------------------------------------------------

 Structure from the checkpoint file:  "JID_7765.chk"
 -------------------------------
 CID_101787705_JID_7765_neutraal
 -------------------------------
 Charge =  0 Multiplicity = 1

 SCF Done:  E(RB3LYP) =  -1138.68383541     A.U. after    1 cycles

  Exact polarizability: 266.709  -9.906 158.539   0.390  -0.281  69.034
 Approx polarizability: 359.177 -17.479 291.525  -6.004  -0.891 109.997

                      1                      2                      3
                      A                      A                      A
 Frequencies --     13.5973                25.8794                48.3879
 Red. masses --      6.7191                 5.0819                 4.9064
 Frc consts  --      0.0007                 0.0020                 0.0068
 IR Inten    --      1.1552                 0.5736                 2.9052

                      4                      5                      6
                      A                      A                      A
 Frequencies --     90.2977               107.5874               149.0724
 Red. masses --      6.3796                 2.6476                 1.6978
 Frc consts  --      0.0306                 0.0181                 0.0222
 IR Inten    --      1.7809                16.1908                26.8206

                      7                      8                      9
                      A                      A                      A
 Frequencies --    162.4819               186.5346               231.6277
 Red. masses --      6.4214                 4.6690                 7.6019
 Frc consts  --      0.0999                 0.0957                 0.2403
 IR Inten    --      2.3197                 0.5131                 1.4473

                     10                     11                     12
                      A                      A                      A
 Frequencies --    248.6018               305.7950               315.4088
 Red. masses --      4.0302                 3.6623                 5.4241
 Frc consts  --      0.1468                 0.2018                 0.3179
 IR Inten    --      0.4357                 9.9676                 0.8422

                     13                     14                     15
                      A                      A                      A
 Frequencies --    336.4080               363.2855               417.3277
 Red. masses --      6.2063                 4.5217                 3.7026
 Frc consts  --      0.4138                 0.3516                 0.3799
 IR Inten    --      6.0231                 0.6834                 1.7935

                     16                     17                     18
                      A                      A                      A
 Frequencies --    428.6594               458.1982               486.0772
 Red. masses --      4.6424                 4.5306                 5.9001
 Frc consts  --      0.5026                 0.5604                 0.8213
 IR Inten    --      7.5438                 3.9977                11.3316

                     19                     20                     21
                      A                      A                      A
 Frequencies --    506.7129               528.1790               552.3154
 Red. masses --      1.2252                 2.3913                 5.9764
 Frc consts  --      0.1853                 0.3930                 1.0742
 IR Inten    --     51.2963                18.1032               165.8299

                     22                     23                     24
                      A                      A                      A
 Frequencies --    596.3211               601.6040               647.1817
 Red. masses --      6.0538                 7.1557                 7.0463
 Frc consts  --      1.2684                 1.5259                 1.7389
 IR Inten    --      2.4092                 4.6140                 2.9057

                     25                     26                     27
                      A                      A                      A
 Frequencies --    673.0931               686.2882               695.2718
 Red. masses --      6.4344                 3.0711                 2.8180
 Frc consts  --      1.7176                 0.8522                 0.8026
 IR Inten    --      3.9939               126.1644               126.2249

                     28                     29                     30
                      A                      A                      A
 Frequencies --    738.6373               746.7175               780.2219
 Red. masses --      5.1539                 2.1020                 1.9880
 Frc consts  --      1.6567                 0.6906                 0.7130
 IR Inten    --     28.2380                 8.0732                52.4666

                     31                     32                     33
                      A                      A                      A
 Frequencies --    793.9272               849.0321               862.1928
 Red. masses --      1.3602                 4.5428                 1.3722
 Frc consts  --      0.5052                 1.9294                 0.6010
 IR Inten    --     21.4996                 8.7404                 2.5867

                     34                     35                     36
                      A                      A                      A
 Frequencies --    884.9875               890.5598               919.2903
 Red. masses --      1.9916                 1.5549                 1.3419
 Frc consts  --      0.9190                 0.7266                 0.6681
 IR Inten    --    125.2147                40.8066                 2.6586

                     37                     38                     39
                      A                      A                      A
 Frequencies --    964.1279               972.6069               989.4024
 Red. masses --      4.8932                 1.3777                 1.2741
 Frc consts  --      2.6798                 0.7678                 0.7348
 IR Inten    --      8.1697                 0.1265                 0.0034

                     40                     41                     42
                      A                      A                      A
 Frequencies --    996.9552              1007.0798              1014.3002
 Red. masses --      1.2806                 6.8870                 6.1672
 Frc consts  --      0.7499                 4.1153                 3.7383
 IR Inten    --      1.0450                11.2746                 3.8934

                     43                     44                     45
                      A                      A                      A
 Frequencies --   1080.0419              1098.5996              1113.1130
 Red. masses --      2.2100                 2.8984                 1.4260
 Frc consts  --      1.5189                 2.0611                 1.0410
 IR Inten    --      1.2800                56.7040                 7.2593

                     46                     47                     48
                      A                      A                      A
 Frequencies --   1123.8209              1140.0890              1153.2896
 Red. masses --      1.6923                 1.5926                 2.6022
 Frc consts  --      1.2593                 1.2197                 2.0393
 IR Inten    --     12.1187                16.7748               171.3849

                     49                     50                     51
                      A                      A                      A
 Frequencies --   1190.1982              1207.6704              1269.9215
 Red. masses --      1.1238                 1.1221                 2.9796
 Frc consts  --      0.9380                 0.9642                 2.8311
 IR Inten    --     22.1076                 0.3578                 1.1636

                     52                     53                     54
                      A                      A                      A
 Frequencies --   1276.7990              1336.6527              1340.0126
 Red. masses --      1.8878                 3.2072                 5.9883
 Frc consts  --      1.8132                 3.3761                 6.3354
 IR Inten    --     36.9076                63.6461               138.5583

                     55                     56                     57
                      A                      A                      A
 Frequencies --   1351.1064              1371.0619              1394.0355
 Red. masses --      1.5386                 3.5891                 3.1883
 Frc consts  --      1.6549                 3.9751                 3.6506
 IR Inten    --     15.7852                 1.8241               190.1800

                     58                     59                     60
                      A                      A                      A
 Frequencies --   1448.6634              1482.0942              1534.7093
 Red. masses --      1.9734                 2.6629                 2.5334
 Frc consts  --      2.4400                 3.4464                 3.5156
 IR Inten    --     19.6053                58.0141               298.7100

                     61                     62                     63
                      A                      A                      A
 Frequencies --   1537.4507              1582.2403              1620.0675
 Red. masses --      2.4402                 2.6143                 1.1029
 Frc consts  --      3.3984                 3.8561                 1.7055
 IR Inten    --    148.2003               329.7832                39.8883

                     64                     65                     66
                      A                      A                      A
 Frequencies --   1632.4564              1650.8614              1662.9344
 Red. masses --      6.2589                 4.3543                 3.2762
 Frc consts  --      9.8272                 6.9918                 5.3380
 IR Inten    --     27.2295               122.2355               395.4577

                     67                     68                     69
                      A                      A                      A
 Frequencies --   1669.7454              3175.5567              3184.8813
 Red. masses --      5.6945                 1.0894                 1.0886
 Frc consts  --      9.3543                 6.4725                 6.5057
 IR Inten    --     34.4824                30.6254                 5.0580

                     70                     71                     72
                      A                      A                      A
 Frequencies --   3200.1517              3204.2431              3206.2841
 Red. masses --      1.0894                 1.0931                 1.0902
 Frc consts  --      6.5732                 6.6123                 6.6035
 IR Inten    --     14.0387                17.8971                 6.4880

                     73                     74                     75
                      A                      A                      A
 Frequencies --   3225.7945              3235.3108              3280.3002
 Red. masses --      1.0964                 1.0933                 1.0918
 Frc consts  --      6.7221                 6.7425                 6.9219
 IR Inten    --     16.3119                 1.7705                11.5718

                     76                     77                     78
                      A                      A                      A
 Frequencies --   3488.4304              3599.7996              3617.6774
 Red. masses --      1.0468                 1.0976                 1.0758
 Frc consts  --      7.5057                 8.3801                 8.2958
 IR Inten    --     35.0698                30.8007                19.0374

 - Thermochemistry -
 -------------------
 Temperature   298.150 Kelvin.  Pressure   1.00000 Atm.
 Atom     1 has atomic number  6 and mass  12.00000

 Molecular mass:   249.05720 amu.
 Principal axes and moments of inertia in atomic units:
                           1         2         3
     Eigenvalues --  1353.44967********************
           X            0.99998  -0.00460   0.00497
           Y            0.00458   0.99998   0.00463
           Z           -0.00499  -0.00461   0.99998
 This molecule is an asymmetric top.
 Rotational symmetry number  1.
 Warning -- assumption of classical behavior for rotation
           may cause significant error
 Rotational temperatures (Kelvin)      0.06399     0.00837     0.00765
 Rotational constants (GHZ):           1.33344     0.17445     0.15949
 Zero-point vibrational energy     561995.4 (Joules/Mol)
                                  134.32013 (Kcal/Mol)
 Warning -- explicit consideration of  23 degrees of freedom as
           vibrations may cause significant error
 Vibrational temperatures:     19.56    37.23    69.62   129.92   154.79
          (Kelvin)            214.48   233.78   268.38   333.26   357.68
                              439.97   453.80   484.02   522.69   600.44
                              616.75   659.25   699.36   729.05   759.93
                              794.66   857.97   865.57   931.15   968.43
                              987.42  1000.34  1062.73  1074.36  1122.57
                             1142.28  1221.57  1240.50  1273.30  1281.32
                             1322.65  1387.17  1399.36  1423.53  1434.40
                             1448.96  1459.35  1553.94  1580.64  1601.52
                             1616.93  1640.33  1659.33  1712.43  1737.57
                             1827.13  1837.03  1923.15  1927.98  1943.94
                             1972.65  2005.71  2084.30  2132.40  2208.10
                             2212.05  2276.49  2330.92  2348.74  2375.22
                             2392.59  2402.39  4568.92  4582.33  4604.30
                             4610.19  4613.13  4641.20  4654.89  4719.62
                             5019.07  5179.31  5205.03

 Zero-point correction=                           0.214053 (Hartree/Particle)
 Thermal correction to Energy=                    0.229035
 Thermal correction to Enthalpy=                  0.229979
 Thermal correction to Gibbs Free Energy=         0.169351
 Sum of electronic and zero-point Energies=          -1138.469783
 Sum of electronic and thermal Energies=             -1138.454801
 Sum of electronic and thermal Enthalpies=           -1138.453857
 Sum of electronic and thermal Free Energies=        -1138.514484

                     E (Thermal)             CV                S
                      KCal/Mol        Cal/Mol-Kelvin    Cal/Mol-Kelvin
 Total                  143.721             57.399            127.601
 Electronic               0.000              0.000              0.000
 Translational            0.889              2.981             42.438
 Rotational               0.889              2.981             33.427
 Vibrational            141.944             51.437             51.737
 Vibration     1          0.593              1.986              7.401
 Vibration     2          0.593              1.985              6.123
 Vibration     3          0.595              1.978              4.882
 Vibration     4          0.602              1.956              3.654
 Vibration     5          0.606              1.943              3.312
 Vibration     6          0.618              1.904              2.684
 Vibration     7          0.623              1.888              2.521
 Vibration     8          0.632              1.858              2.262
 Vibration     9          0.653              1.793              1.866
 Vibration    10          0.662              1.765              1.740
 Vibration    11          0.696              1.663              1.385
 Vibration    12          0.703              1.644              1.334
 Vibration    13          0.717              1.603              1.229
 Vibration    14          0.737              1.548              1.108
 Vibration    15          0.780              1.433              0.901
 Vibration    16          0.790              1.408              0.863
 Vibration    17          0.816              1.343              0.771
 Vibration    18          0.842              1.281              0.694
 Vibration    19          0.862              1.235              0.642
 Vibration    20          0.883              1.188              0.591
 Vibration    21          0.908              1.135              0.539
 Vibration    22          0.954              1.040              0.456
 Vibration    23          0.960              1.028              0.447

 Optimization completed.
    -- Stationary point found.
 Normal termination of Gaussian 16 at Fri Dec 11 13:25:09 2020.

 ----------------------------------------------------------------------
 # B3LYP/6-311++G(d,p) empiricaldispersion=gd3bj scf=xqc pop=npa geom=c
 heck
 ----------------------------------------------------------------------

 ---------------------------------------
 CID_101787705_JID_7765_Energie_neutraal
 ---------------------------------------
 Structure from the checkpoint file:  "JID_7765.chk"
 Charge =  0 Multiplicity = 1

 SCF Done:  E(RB3LYP) =  -1138.91826628     A.U. after   16 cycles
 Normal termination of Gaussian 16 at Fri Dec 11 13:29:27 2020.

 ----------------------------------------------------------------------
 # B3LYP/6-311++G(d,p) empiricaldispersion=gd3bj scf=xqc pop=npa geom=c
 heck
 ----------------------------------------------------------------------

 -------------------------------------
 CID_101787705_JID_7765_Energie_kation
 -------------------------------------
 Structure from the checkpoint file:  "JID_7765.chk"
 Charge =  1 Multiplicity = 2

 SCF Done:  E(UB3LYP) =  -1138.64022217     A.U. after   22 cycles
 Normal termination of Gaussian 16 at Fri Dec 11 13:37:43 2020.
 Gaussian 16:  ES64L-G16RevA.03 25-Dec-2016

 ----------------------------------------------------------------------
 # B3LYP/6-311++G(d,p) empiricaldispersion=gd3bj scf=xqc pop=npa geom=c
 heck
 ----------------------------------------------------------------------

 ------------------------------------
 CID_101787705_JID_7765_Energie_anion
 ------------------------------------
 Structure from the checkpoint file:  "JID_7765.chk"
 Charge = -1 Multiplicity = 2

                         Standard orientation:
 ---------------------------------------------------------------------
 Center     Atomic      Atomic             Coordinates (Angstroms)
 Number     Number       Type             X           Y           Z
 ---------------------------------------------------------------------
      1          6           0        5.135555   -1.289595    0.004513
      2          6           0        5.596804    0.031647   -0.051894
      3          6           0        4.645471    1.042754   -0.075829
      4          7           0        3.321631    0.833569   -0.049228
      5          6           0        2.889898   -0.431233    0.004744
      6          6           0        3.774265   -1.533452    0.033582
      7          7           0        1.529289   -0.689808    0.031617
      8          6           0        0.420883    0.161299    0.032030
      9          6           0       -0.842466   -0.456843    0.055683
     10          6           0       -1.989278    0.323135    0.064460
     11          6           0       -1.941049    1.717653    0.058511
     12          6           0       -0.686098    2.318061    0.029963
     13          6           0        0.488850    1.564708    0.014930
     14         16           0       -3.573474   -0.500699    0.117490
     15          8           0       -3.321698   -1.943473    0.222749
     16          8           0       -4.443073    0.198251    1.067030
     17          7           0       -4.215834   -0.149631   -1.415737
     18          1           0        5.835148   -2.120318    0.026111
     19          1           0        6.655731    0.264168   -0.075608
     20          1           0        4.949997    2.086736   -0.119046
     21          1           0        3.387712   -2.548079    0.078458
     22          1           0        1.294967   -1.671619    0.070509
     23          1           0       -0.938472   -1.538069    0.076616
     24          1           0       -2.853512    2.301709    0.079758
     25          1           0       -0.610901    3.401553    0.023049
     26          1           0        1.457371    2.041055   -0.006481
     27          1           0       -4.078688   -0.942241   -2.040428
     28          1           0       -5.208212    0.050347   -1.301725
 ---------------------------------------------------------------------

 SCF Done:  E(UB3LYP) =  -1138.91740850     A.U. after   33 cycles
 SCF Done:  E(UB3LYP) =  -1138.91740850     a.u. after    2 cycles

 The electronic state is 2-A.
 Alpha  occ. eigenvalues --  -88.94797 -19.00530 -19.00407 -14.24061 -14.22976
 Alpha  occ. eigenvalues --  -14.18838 -10.14176 -10.11062 -10.08776 -10.07969
 Alpha  occ. eigenvalues --  -10.07624 -10.06496 -10.06317 -10.06254 -10.06051
 Alpha  occ. eigenvalues --  -10.06041 -10.04541  -8.00990  -5.97299  -5.97250
 Alpha  occ. eigenvalues --   -5.97040  -1.00674  -0.89860  -0.87079  -0.81080
 Alpha  occ. eigenvalues --   -0.79876  -0.74391  -0.69439  -0.66366  -0.65066
 Alpha  occ. eigenvalues --   -0.61786  -0.56023  -0.53519  -0.53077  -0.49670
 Alpha  occ. eigenvalues --   -0.47562  -0.43923  -0.43007  -0.41824  -0.39780
 Alpha  occ. eigenvalues --   -0.39433  -0.38147  -0.36515  -0.35728  -0.34389
 Alpha  occ. eigenvalues --   -0.33549  -0.32428  -0.32174  -0.31742  -0.29635
 Alpha  occ. eigenvalues --   -0.27525  -0.27515  -0.26102  -0.25125  -0.24867
 Alpha  occ. eigenvalues --   -0.23234  -0.21690  -0.20719  -0.19810  -0.18721
 Alpha  occ. eigenvalues --   -0.18234  -0.15685  -0.14972  -0.14877  -0.09582
 Alpha  occ. eigenvalues --    0.04380
 Alpha virt. eigenvalues --    0.06142   0.06617   0.07059   0.07956   0.08728
 Alpha virt. eigenvalues --    0.08793   0.09375   0.10458   0.10526   0.11774
 Alpha virt. eigenvalues --    0.12512   0.12744   0.13536   0.14157   0.14512

  Beta  occ. eigenvalues --  -88.94781 -19.00505 -19.00370 -14.24061 -14.22886
  Beta  occ. eigenvalues --  -14.18780 -10.14196 -10.11108 -10.08570 -10.07801
  Beta  occ. eigenvalues --  -10.07501 -10.06541 -10.06250 -10.06154 -10.06013
  Beta  occ. eigenvalues --  -10.05885 -10.04373  -8.00974  -5.97265  -5.97220
  Beta  occ. eigenvalues --   -5.97033  -1.00590  -0.89803  -0.87013  -0.80943
  Beta  occ. eigenvalues --   -0.79708  -0.74160  -0.69177  -0.66165  -0.64735
  Beta  occ. eigenvalues --   -0.61559  -0.55742  -0.53316  -0.52909  -0.49490
  Beta  occ. eigenvalues --   -0.47372  -0.43799  -0.42876  -0.41690  -0.39643
  Beta  occ. eigenvalues --   -0.39314  -0.38033  -0.36385  -0.35593  -0.34298
  Beta  occ. eigenvalues --   -0.33450  -0.32338  -0.31888  -0.31650  -0.29527
  Beta  occ. eigenvalues --   -0.27435  -0.26953  -0.26005  -0.25010  -0.24764
  Beta  occ. eigenvalues --   -0.22819  -0.21547  -0.20614  -0.19687  -0.18514
  Beta  occ. eigenvalues --   -0.17388  -0.15107  -0.14844  -0.13934  -0.09008
  Beta virt. eigenvalues --    0.06527   0.07183   0.07904   0.07979   0.08272
  Beta virt. eigenvalues --    0.08787   0.09302   0.09631   0.10475   0.10962
  Beta virt. eigenvalues --    0.11873   0.12520   0.12745   0.13419   0.14158

 Mulliken charges and spin densities:
               1          2
     1  C   -0.436993  -0.100252
     2  C   -0.143675  -0.022904
     3  C   -0.256113   0.167376
     4  N   -0.099475   0.032987
     5  C   -0.190285  -0.178660
     6  C    0.233533   0.489101
     7  N    0.045783   0.011027
     8  C   -0.175747   0.092293
     9  C   -1.294064   0.301644
    10  C   -0.512287   0.039667
    11  C    0.041922  -0.010358
    12  C   -0.278086   0.042328
    13  C    0.506400   0.127089
    14  S    0.981645  -0.794159
    15  O   -0.217748   0.010321
    16  O   -0.272141   0.018890
    17  N   -0.250754  -0.088132
    18  H    0.089591   0.043656
    19  H    0.100619   0.034638
    20  H    0.126027  -0.005998
    21  H    0.048823   0.058914
    22  H    0.304742   0.025700
    23  H    0.170636   0.027542
    24  H    0.144557   0.056671
    25  H    0.134122   0.001642
    26  H    0.254741  -0.000591
    27  H    0.015335   0.257552
    28  H   -0.071108   0.362017
 Sum of Mulliken charges =  -1.00000   1.00000

 Dipole moment (field-independent basis, Debye):
    X=              4.2546    Y=             -0.2259    Z=             -0.6984  Tot=              4.3175
 Quadrupole moment (field-independent basis, Debye-Ang):
   XX=           -192.3945   YY=           -119.5491   ZZ=           -127.0955
   XY=             -6.1429   XZ=              1.7424   YZ=              1.4496

 Summary of Natural Population Analysis:

                                       Natural Population
                Natural  -----------------------------------------------
    Atom  No    Charge         Core      Valence    Rydberg      Total
 -----------------------------------------------------------------------
      C    1   -0.06408      0.99958     2.05426    0.01024     3.06408
      C    2   -0.16128      0.99957     2.15149    0.01022     3.16128
      C    3    0.06800      0.99960     1.91902    0.01337     2.93200
      N    4   -0.25923      0.99967     2.74795    0.01161     3.75923
      C    5    0.20125      0.99953     1.78523    0.01399     2.79875
      C    6   -0.11594      0.99953     2.10767    0.00874     3.11594
      N    7   -0.28677      0.99963     2.77879    0.00834     3.78677
      C    8    0.07901      0.99948     1.91048    0.01102     2.92099
      C    9   -0.08701      0.99948     2.07852    0.00901     3.08701
      C   10   -0.10607      0.99937     2.09223    0.01447     3.10607
      C   11   -0.11012      0.99951     2.10037    0.01023     3.11012
      C   12   -0.09051      0.99958     2.08240    0.00853     3.09051
      C   13   -0.08725      0.99953     2.07934    0.00838     3.08725
      S   14    1.09864      4.99925     1.80162    0.10049     6.90136
      O   15   -0.47133      0.99991     3.46594    0.00548     4.47133
      O   16   -0.46800      0.99991     3.46210    0.00599     4.46800
      N   17   -0.51279      0.99979     3.00200    0.01100     4.01279
      H   18    0.09424      0.00000     0.40484    0.00092     0.40576
      H   19    0.09739      0.00000     0.40163    0.00099     0.40261
      H   20    0.08103      0.00000     0.41785    0.00112     0.41897
      H   21    0.09525      0.00000     0.40376    0.00099     0.40475
      H   22    0.18835      0.00000     0.30952    0.00213     0.31165
      H   23    0.10829      0.00000     0.39050    0.00120     0.39171
      H   24    0.10668      0.00000     0.39216    0.00116     0.39332
      H   25    0.09466      0.00000     0.40442    0.00092     0.40534
      H   26    0.12100      0.00000     0.37803    0.00098     0.37900
      H   27    0.19163      0.00000     0.30614    0.00223     0.30837
      H   28    0.19494      0.00000     0.30102    0.00404     0.30506
 =======================================================================
   * Total *   -0.00000     20.99293    43.72927    0.27781    65.00000

 Normal termination of Gaussian 16 at Fri Dec 11 14:10:05 2020.
