 Gaussian 16, Revision A.03,

 -----------------------------------------------------------
 # opt freq B3LYP/6-31G(d) empiricaldispersion=gd3bj scf=xqc
 -----------------------------------------------------------

 ------------------------------
 CID_68038579_JID_2792_neutraal
 ------------------------------
 Symbolic Z-matrix:
 Charge =  0 Multiplicity = 1

 SCF Done:  E(RB3LYP) =  -553.344719913     A.U. after   14 cycles
 SCF Done:  E(RB3LYP) =  -553.354642008     A.U. after   12 cycles
 SCF Done:  E(RB3LYP) =  -553.355184412     A.U. after   11 cycles
 SCF Done:  E(RB3LYP) =  -553.355278025     A.U. after   10 cycles
 SCF Done:  E(RB3LYP) =  -553.355306681     A.U. after   10 cycles
 SCF Done:  E(RB3LYP) =  -553.355328393     A.U. after   10 cycles
 SCF Done:  E(RB3LYP) =  -553.355338986     A.U. after   10 cycles
 SCF Done:  E(RB3LYP) =  -553.355343963     A.U. after    9 cycles
 SCF Done:  E(RB3LYP) =  -553.355345450     A.U. after    8 cycles
 SCF Done:  E(RB3LYP) =  -553.355345645     A.U. after    7 cycles
 Optimization completed.
    -- Stationary point found.
 Normal termination of Gaussian 16 at Wed Dec  9 18:02:36 2020.

 --------------------------------------------------------------------
 #N Geom=AllCheck Guess=TCheck SCRF=Check GenChk RB3LYP/6-31G(d) Freq
 --------------------------------------------------------------------

 Structure from the checkpoint file:  "JID_2792.chk"
 ------------------------------
 CID_68038579_JID_2792_neutraal
 ------------------------------
 Charge =  0 Multiplicity = 1

 SCF Done:  E(RB3LYP) =  -553.355345645     A.U. after    1 cycles

  Exact polarizability: 113.367   1.584  99.097   1.484   0.009  88.962
 Approx polarizability: 140.680  -2.113 157.202   0.324  -0.508 129.078

                      1                      2                      3
                      A                      A                      A
 Frequencies --     48.9717                69.9855               100.7879
 Red. masses --      3.7809                 2.7561                 3.4935
 Frc consts  --      0.0053                 0.0080                 0.0209
 IR Inten    --      0.4222                 0.8617                 2.8144

                      4                      5                      6
                      A                      A                      A
 Frequencies --    116.6108               174.4763               219.2066
 Red. masses --      3.3958                 3.7211                 1.5686
 Frc consts  --      0.0272                 0.0667                 0.0444
 IR Inten    --      3.0102                 0.3061                 1.7566

                      7                      8                      9
                      A                      A                      A
 Frequencies --    249.0952               264.3608               321.7771
 Red. masses --      2.8263                 1.3295                 4.6455
 Frc consts  --      0.1033                 0.0547                 0.2834
 IR Inten    --     16.4404                 0.3002                 7.8862

                     10                     11                     12
                      A                      A                      A
 Frequencies --    384.9792               396.4639               424.0008
 Red. masses --      3.0673                 2.7788                 1.9788
 Frc consts  --      0.2678                 0.2573                 0.2096
 IR Inten    --      3.1706                 2.9165                 2.0004

                     13                     14                     15
                      A                      A                      A
 Frequencies --    447.6105               511.5703               537.2577
 Red. masses --      2.9328                 3.6686                 4.2624
 Frc consts  --      0.3462                 0.5657                 0.7249
 IR Inten    --      8.3617                 4.4942                 6.4286

                     16                     17                     18
                      A                      A                      A
 Frequencies --    579.3081               629.2535               703.0238
 Red. masses --      3.0541                 3.6301                 2.9369
 Frc consts  --      0.6039                 0.8469                 0.8552
 IR Inten    --     10.4371                18.5168                 5.2524

                     19                     20                     21
                      A                      A                      A
 Frequencies --    797.6160               835.1334               860.7730
 Red. masses --      3.0829                 3.2286                 2.5175
 Frc consts  --      1.1556                 1.3267                 1.0990
 IR Inten    --      2.8016                 3.1816                96.9185

                     22                     23                     24
                      A                      A                      A
 Frequencies --    872.7596               892.1876               942.9421
 Red. masses --      1.1704                 1.2137                 2.2976
 Frc consts  --      0.5253                 0.5692                 1.2036
 IR Inten    --      1.8845                19.4947                 0.1471

                     25                     26                     27
                      A                      A                      A
 Frequencies --    963.4805               982.2990               989.4317
 Red. masses --      2.4832                 4.1846                 2.9167
 Frc consts  --      1.3581                 2.3790                 1.6824
 IR Inten    --     12.8450                10.2042                 3.3963

                     28                     29                     30
                      A                      A                      A
 Frequencies --   1032.6055              1037.4061              1075.8449
 Red. masses --      2.6766                 2.7661                 1.9415
 Frc consts  --      1.6815                 1.7539                 1.3240
 IR Inten    --      2.7068                12.3887                21.5343

                     31                     32                     33
                      A                      A                      A
 Frequencies --   1088.8460              1091.2628              1122.9062
 Red. masses --      1.8735                 1.3735                 3.4253
 Frc consts  --      1.3087                 0.9637                 2.5447
 IR Inten    --     11.7776                 9.0448                 3.8090

                     34                     35                     36
                      A                      A                      A
 Frequencies --   1165.2243              1174.6004              1177.5816
 Red. masses --      2.0400                 1.6419                 1.9409
 Frc consts  --      1.6319                 1.3347                 1.5858
 IR Inten    --     26.5593                 3.3433                39.9305

                     37                     38                     39
                      A                      A                      A
 Frequencies --   1217.5068              1242.9943              1269.0385
 Red. masses --      1.6845                 2.4668                 1.2819
 Frc consts  --      1.4711                 2.2456                 1.2164
 IR Inten    --     19.5252                29.6493                 1.0376

                     40                     41                     42
                      A                      A                      A
 Frequencies --   1278.5605              1283.8228              1307.5614
 Red. masses --      1.3155                 1.2630                 1.2367
 Frc consts  --      1.2670                 1.2265                 1.2458
 IR Inten    --     14.1224                 2.3740                 1.2703

                     43                     44                     45
                      A                      A                      A
 Frequencies --   1319.2956              1334.2620              1354.9779
 Red. masses --      1.9258                 1.4774                 1.4587
 Frc consts  --      1.9749                 1.5496                 1.5779
 IR Inten    --     16.2357                36.6692                30.0471

                     46                     47                     48
                      A                      A                      A
 Frequencies --   1360.4224              1394.5585              1411.9912
 Red. masses --      1.5982                 1.7461                 1.3017
 Frc consts  --      1.7427                 2.0007                 1.5290
 IR Inten    --     30.9511                28.6055                33.2567

                     49                     50                     51
                      A                      A                      A
 Frequencies --   1416.3578              1425.7455              1476.8222
 Red. masses --      1.1568                 1.4990                 1.1456
 Frc consts  --      1.3673                 1.7953                 1.4722
 IR Inten    --      8.1204                60.9766                 6.2246

                     52                     53                     54
                      A                      A                      A
 Frequencies --   1491.1140              1503.7614              1514.5489
 Red. masses --      1.1226                 1.4948                 1.1195
 Frc consts  --      1.4706                 1.9915                 1.5129
 IR Inten    --      8.5596                18.0943                12.1341

                     55                     56                     57
                      A                      A                      A
 Frequencies --   1518.1235              1518.6159              1539.3656
 Red. masses --      1.0803                 1.0975                 1.1113
 Frc consts  --      1.4670                 1.4912                 1.5515
 IR Inten    --      0.0061                 5.0772                14.0962

                     58                     59                     60
                      A                      A                      A
 Frequencies --   1542.8877              1557.9010              1759.3639
 Red. masses --      1.1159                 1.1149                10.1310
 Frc consts  --      1.5651                 1.5943                18.4763
 IR Inten    --     14.4937                14.7546               240.2476

                     61                     62                     63
                      A                      A                      A
 Frequencies --   2965.9864              3017.1389              3039.5496
 Red. masses --      1.0589                 1.0652                 1.0692
 Frc consts  --      5.4882                 5.7132                 5.8199
 IR Inten    --     58.3534                41.0877                18.2436

                     64                     65                     66
                      A                      A                      A
 Frequencies --   3047.7295              3062.9553              3068.0435
 Red. masses --      1.0702                 1.0876                 1.0756
 Frc consts  --      5.8567                 6.0116                 5.9651
 IR Inten    --     17.8068                29.1233                32.5956

                     67                     68                     69
                      A                      A                      A
 Frequencies --   3068.7311              3082.7517              3083.3510
 Red. masses --      1.0663                 1.0783                 1.0748
 Frc consts  --      5.9164                 6.0378                 6.0203
 IR Inten    --     90.4265                48.3749                31.7163

                     70                     71                     72
                      A                      A                      A
 Frequencies --   3099.9551              3126.0686              3130.2155
 Red. masses --      1.1053                 1.1017                 1.0969
 Frc consts  --      6.2579                 6.3432                 6.3325
 IR Inten    --     35.5295                 8.7735                25.0899

                     73                     74                     75
                      A                      A                      A
 Frequencies --   3154.9811              3161.1048              3469.3056
 Red. masses --      1.1017                 1.1010                 1.0752
 Frc consts  --      6.4608                 6.4819                 7.6247
 IR Inten    --      7.9655                16.6915                 3.7041

 - Thermochemistry -
 -------------------
 Temperature   298.150 Kelvin.  Pressure   1.00000 Atm.
 Atom     1 has atomic number  6 and mass  12.00000

 Molecular mass:   169.12151 amu.
 Principal axes and moments of inertia in atomic units:
                           1         2         3
     Eigenvalues --   899.113633025.615163289.99679
           X            0.99995   0.00548   0.00789
           Y           -0.00557   0.99992   0.01130
           Z           -0.00783  -0.01134   0.99991
 This molecule is an asymmetric top.
 Rotational symmetry number  1.
 Warning -- assumption of classical behavior for rotation
           may cause significant error
 Rotational temperatures (Kelvin)      0.09633     0.02863     0.02633
 Rotational constants (GHZ):           2.00724     0.59649     0.54855
 Zero-point vibrational energy     627436.0 (Joules/Mol)
                                  149.96080 (Kcal/Mol)
 Warning -- explicit consideration of  16 degrees of freedom as
           vibrations may cause significant error
 Vibrational temperatures:     70.46   100.69   145.01   167.78   251.03
          (Kelvin)            315.39   358.39   380.36   462.97   553.90
                              570.42   610.04   644.01   736.04   772.99
                              833.50   905.36  1011.49  1147.59  1201.57
                             1238.46  1255.71  1283.66  1356.68  1386.23
                             1413.31  1423.57  1485.69  1492.60  1547.90
                             1566.61  1570.08  1615.61  1676.50  1689.99
                             1694.28  1751.72  1788.39  1825.86  1839.56
                             1847.13  1881.29  1898.17  1919.71  1949.51
                             1957.34  2006.46  2031.54  2037.82  2051.33
                             2124.82  2145.38  2163.58  2179.10  2184.24
                             2184.95  2214.80  2219.87  2241.47  2531.33
                             4267.39  4340.99  4373.23  4385.00  4406.91
                             4414.23  4415.22  4435.39  4436.25  4460.14
                             4497.72  4503.68  4539.31  4548.12  4991.56

 Zero-point correction=                           0.238978 (Hartree/Particle)
 Thermal correction to Energy=                    0.250291
 Thermal correction to Enthalpy=                  0.251235
 Thermal correction to Gibbs Free Energy=         0.201422
 Sum of electronic and zero-point Energies=           -553.116368
 Sum of electronic and thermal Energies=              -553.105055
 Sum of electronic and thermal Enthalpies=            -553.104111
 Sum of electronic and thermal Free Energies=         -553.153924

                     E (Thermal)             CV                S
                      KCal/Mol        Cal/Mol-Kelvin    Cal/Mol-Kelvin
 Total                  157.060             43.216            104.841
 Electronic               0.000              0.000              0.000
 Translational            0.889              2.981             41.284
 Rotational               0.889              2.981             30.571
 Vibrational            155.282             37.254             32.985
 Vibration     1          0.595              1.978              4.858
 Vibration     2          0.598              1.968              4.154
 Vibration     3          0.604              1.948              3.439
 Vibration     4          0.608              1.936              3.156
 Vibration     5          0.627              1.874              2.387
 Vibration     6          0.647              1.812              1.966
 Vibration     7          0.662              1.764              1.737
 Vibration     8          0.671              1.738              1.633
 Vibration     9          0.707              1.632              1.301
 Vibration    10          0.754              1.502              1.020
 Vibration    11          0.763              1.478              0.976
 Vibration    12          0.786              1.418              0.878
 Vibration    13          0.807              1.366              0.803
 Vibration    14          0.867              1.224              0.630
 Vibration    15          0.892              1.168              0.571
 Vibration    16          0.936              1.076              0.487

                           ! Non-Optimized Parameters !
 Normal termination of Gaussian 16 at Wed Dec  9 18:09:57 2020.

 ----------------------------------------------------------------------
 # B3LYP/6-311++G(d,p) empiricaldispersion=gd3bj scf=xqc pop=npa geom=c
 heck
 ----------------------------------------------------------------------

 --------------------------------------
 CID_68038579_JID_2792_Energie_neutraal
 --------------------------------------
 Structure from the checkpoint file:  "JID_2792.chk"
 Charge =  0 Multiplicity = 1

 SCF Done:  E(RB3LYP) =  -553.513623355     A.U. after   13 cycles
 Normal termination of Gaussian 16 at Wed Dec  9 18:14:46 2020.

 ----------------------------------------------------------------------
 # B3LYP/6-311++G(d,p) empiricaldispersion=gd3bj scf=xqc pop=npa geom=c
 heck
 ----------------------------------------------------------------------

 ------------------------------------
 CID_68038579_JID_2792_Energie_kation
 ------------------------------------
 Structure from the checkpoint file:  "JID_2792.chk"
 Charge =  1 Multiplicity = 2

 SCF Done:  E(UB3LYP) =  -553.226038978     A.U. after   28 cycles
 Normal termination of Gaussian 16 at Wed Dec  9 18:21:28 2020.
 Gaussian 16:  ES64L-G16RevA.03 25-Dec-2016

 ----------------------------------------------------------------------
 # B3LYP/6-311++G(d,p) empiricaldispersion=gd3bj scf=xqc pop=npa geom=c
 heck
 ----------------------------------------------------------------------

 -----------------------------------
 CID_68038579_JID_2792_Energie_anion
 -----------------------------------
 Structure from the checkpoint file:  "JID_2792.chk"
 Charge = -1 Multiplicity = 2

                         Standard orientation:
 ---------------------------------------------------------------------
 Center     Atomic      Atomic             Coordinates (Angstroms)
 Number     Number       Type             X           Y           Z
 ---------------------------------------------------------------------
      1          6           0        2.876053    0.039572    1.319105
      2          7           0        2.673057    0.128710   -0.123309
      3          6           0        2.183676   -1.108966   -0.717028
      4          6           0        0.792065   -1.502443   -0.216337
      5          7           0       -0.140465   -0.368127   -0.221352
      6          6           0        0.265732    0.940973   -0.282282
      7          8           0       -0.517767    1.884714   -0.227583
      8          6           0        1.762847    1.204215   -0.493463
      9          6           0       -1.543539   -0.684391    0.017843
     10          6           0       -2.342355   -0.078834    1.200303
     11          7           0       -3.549532    0.052750    0.319843
     12          6           0       -2.676193   -0.135694   -0.885609
     13          1           0        3.347377    0.962778    1.670655
     14          1           0        3.554144   -0.792425    1.536667
     15          1           0        1.950115   -0.107856    1.903976
     16          1           0        2.157265   -0.968956   -1.804928
     17          1           0        2.885595   -1.923437   -0.505551
     18          1           0        0.857121   -1.915744    0.800725
     19          1           0        0.383106   -2.294479   -0.855995
     20          1           0        2.004483    2.114735    0.060623
     21          1           0        1.896379    1.436074   -1.559470
     22          1           0       -1.607848   -1.776083    0.058379
     23          1           0       -2.469743   -0.704787    2.090665
     24          1           0       -1.979818    0.908146    1.490097
     25          1           0       -4.128243   -0.779065    0.435333
     26          1           0       -2.429018    0.830815   -1.325340
     27          1           0       -3.069918   -0.807350   -1.656645
 ---------------------------------------------------------------------

 SCF Done:  E(UB3LYP) =  -553.504967646     A.U. after   29 cycles

 The electronic state is 2-A.
 Alpha  occ. eigenvalues --  -18.98526 -14.24548 -14.21456 -14.19514 -10.16922
 Alpha  occ. eigenvalues --  -10.10800 -10.10577 -10.10482 -10.10020 -10.09218
 Alpha  occ. eigenvalues --  -10.08745 -10.08701  -0.93924  -0.85532  -0.83318
 Alpha  occ. eigenvalues --   -0.80823  -0.66087  -0.64131  -0.60478  -0.57196
 Alpha  occ. eigenvalues --   -0.56906  -0.52577  -0.48142  -0.43169  -0.41339
 Alpha  occ. eigenvalues --   -0.40308  -0.39505  -0.37253  -0.37035  -0.35200
 Alpha  occ. eigenvalues --   -0.33741  -0.31072  -0.30543  -0.30136  -0.29305
 Alpha  occ. eigenvalues --   -0.29190  -0.27969  -0.26719  -0.26640  -0.25526
 Alpha  occ. eigenvalues --   -0.25143  -0.23045  -0.17511  -0.14432  -0.12733
 Alpha  occ. eigenvalues --   -0.11672   0.04215
 Alpha virt. eigenvalues --    0.06675   0.07453   0.08129   0.09186   0.09433
 Alpha virt. eigenvalues --    0.09871   0.10436   0.10980   0.11886   0.12249
 Alpha virt. eigenvalues --    0.12665   0.12956   0.13441   0.14050   0.14370

  Beta  occ. eigenvalues --  -18.98522 -14.24551 -14.21458 -14.19502 -10.16916
  Beta  occ. eigenvalues --  -10.10781 -10.10570 -10.10436 -10.09992 -10.09179
  Beta  occ. eigenvalues --  -10.08732 -10.08687  -0.93916  -0.85518  -0.83298
  Beta  occ. eigenvalues --   -0.80805  -0.66034  -0.64099  -0.60429  -0.57158
  Beta  occ. eigenvalues --   -0.56841  -0.52535  -0.48085  -0.43126  -0.41279
  Beta  occ. eigenvalues --   -0.40258  -0.39468  -0.37218  -0.36985  -0.35174
  Beta  occ. eigenvalues --   -0.33709  -0.31040  -0.30502  -0.30086  -0.29278
  Beta  occ. eigenvalues --   -0.29163  -0.27914  -0.26686  -0.26606  -0.25493
  Beta  occ. eigenvalues --   -0.25116  -0.23013  -0.17501  -0.14416  -0.12712
  Beta  occ. eigenvalues --   -0.11655
  Beta virt. eigenvalues --    0.06821   0.07536   0.08091   0.08875   0.09752
  Beta virt. eigenvalues --    0.10012   0.10249   0.10832   0.11265   0.12143
  Beta virt. eigenvalues --    0.12579   0.13054   0.13329   0.13941   0.14249

 Mulliken charges and spin densities:
               1          2
     1  C    0.624395  -0.971539
     2  N   -0.164513   0.287412
     3  C    1.015608  -1.642407
     4  C    0.404476  -0.569333
     5  N    0.153139   0.137493
     6  C   -0.559788   0.720481
     7  O   -0.316963  -0.000633
     8  C    0.401356  -1.120513
     9  C   -0.865759   0.467715
    10  C    0.548258  -0.879684
    11  N   -0.248299   0.117927
    12  C    0.399917  -0.672922
    13  H   -0.054795   0.185124
    14  H   -0.418013   0.586736
    15  H   -0.014871   0.144247
    16  H   -0.011147   0.189087
    17  H   -0.486272   0.698521
    18  H   -0.178210   0.393124
    19  H   -0.731849   0.910118
    20  H    0.195576  -0.000112
    21  H    0.048238   0.145763
    22  H   -0.663960   0.840914
    23  H   -0.322837   0.468140
    24  H    0.237902  -0.022919
    25  H    0.110179   0.126299
    26  H    0.219186  -0.006189
    27  H   -0.320954   0.467149
 Sum of Mulliken charges =  -1.00000   1.00000

 Dipole moment (field-independent basis, Debye):
    X=              0.5961    Y=              5.0345    Z=             -0.5529  Tot=              5.0997
 Quadrupole moment (field-independent basis, Debye-Ang):
   XX=           -134.4701   YY=           -125.1414   ZZ=           -103.8088
   XY=              7.4994   XZ=             -2.5447   YZ=             -0.0188

 Summary of Natural Population Analysis:

                                       Natural Population
                Natural  -----------------------------------------------
    Atom  No    Charge         Core      Valence    Rydberg      Total
 -----------------------------------------------------------------------
      C    1   -0.18078      0.99964     2.17199    0.00916     3.18078
      N    2   -0.27712      0.99975     2.76302    0.01435     3.77712
      C    3   -0.08949      0.99961     2.07684    0.01304     3.08949
      C    4   -0.08889      0.99960     2.07832    0.01097     3.08889
      N    5   -0.25713      0.99962     2.74567    0.01183     3.75713
      C    6    0.34035      0.99964     1.63751    0.02249     2.65965
      O    7   -0.33190      0.99988     3.32650    0.00552     4.33190
      C    8   -0.12452      0.99958     2.11350    0.01143     3.12452
      C    9   -0.02030      0.99956     2.00391    0.01682     3.02030
      C   10   -0.08820      0.99963     2.07730    0.01127     3.08820
      N   11   -0.33886      0.99978     2.82659    0.01249     3.83886
      C   12   -0.08679      0.99963     2.07594    0.01122     3.08679
      H   13    0.09406      0.00000     0.40493    0.00100     0.40594
      H   14    0.09986      0.00000     0.39877    0.00137     0.40014
      H   15    0.08324      0.00000     0.41519    0.00157     0.41676
      H   16    0.09549      0.00000     0.40306    0.00145     0.40451
      H   17    0.10494      0.00000     0.39314    0.00193     0.39506
      H   18    0.09607      0.00000     0.40083    0.00310     0.40393
      H   19    0.10473      0.00000     0.39139    0.00388     0.39527
      H   20    0.10668      0.00000     0.39212    0.00121     0.39332
      H   21    0.10524      0.00000     0.39358    0.00118     0.39476
      H   22    0.10402      0.00000     0.39153    0.00444     0.39598
      H   23    0.08940      0.00000     0.40928    0.00132     0.41060
      H   24    0.10089      0.00000     0.39762    0.00149     0.39911
      H   25    0.16801      0.00000     0.32925    0.00274     0.33199
      H   26    0.10165      0.00000     0.39686    0.00149     0.39835
      H   27    0.08934      0.00000     0.40928    0.00138     0.41066
 =======================================================================
   * Total *   -0.00000     11.99594    33.82393    0.18013    46.00000

 Normal termination of Gaussian 16 at Wed Dec  9 18:28:39 2020.
