 Gaussian 16, Revision A.03,

 -----------------------------------------------------------
 # opt freq B3LYP/6-31G(d) empiricaldispersion=gd3bj scf=xqc
 -----------------------------------------------------------

 ------------------------------
 CID_85401191_JID_4971_neutraal
 ------------------------------
 Symbolic Z-matrix:
 Charge =  0 Multiplicity = 1

 SCF Done:  E(RB3LYP) =  -623.435549347     A.U. after   12 cycles
 SCF Done:  E(RB3LYP) =  -623.437868653     A.U. after   11 cycles
 SCF Done:  E(RB3LYP) =  -623.437750711     A.U. after   10 cycles
 SCF Done:  E(RB3LYP) =  -623.438544361     A.U. after   10 cycles
 SCF Done:  E(RB3LYP) =  -623.438835245     A.U. after   10 cycles
 SCF Done:  E(RB3LYP) =  -623.438920782     A.U. after   10 cycles
 SCF Done:  E(RB3LYP) =  -623.438980725     A.U. after    9 cycles
 SCF Done:  E(RB3LYP) =  -623.438989670     A.U. after    9 cycles
 SCF Done:  E(RB3LYP) =  -623.438994741     A.U. after    8 cycles
 SCF Done:  E(RB3LYP) =  -623.438994841     A.U. after    7 cycles
 SCF Done:  E(RB3LYP) =  -623.438995015     A.U. after    6 cycles
 Optimization completed.
    -- Stationary point found.
 Normal termination of Gaussian 16 at Thu Dec 10 10:59:10 2020.

 --------------------------------------------------------------------
 #N Geom=AllCheck Guess=TCheck SCRF=Check GenChk RB3LYP/6-31G(d) Freq
 --------------------------------------------------------------------

 Structure from the checkpoint file:  "JID_4971.chk"
 ------------------------------
 CID_85401191_JID_4971_neutraal
 ------------------------------
 Charge =  0 Multiplicity = 1

 SCF Done:  E(RB3LYP) =  -623.438995015     A.U. after    1 cycles

  Exact polarizability: 164.035  -0.654 121.701   1.968   1.258 116.115
 Approx polarizability: 185.301   0.438 181.373   1.817   1.717 175.048

                      1                      2                      3
                      A                      A                      A
 Frequencies --     32.8992                38.8836                56.0912
 Red. masses --      3.6920                 3.6595                 3.3163
 Frc consts  --      0.0024                 0.0033                 0.0061
 IR Inten    --      0.1084                 0.2440                 0.4149

                      4                      5                      6
                      A                      A                      A
 Frequencies --     62.3261                79.8344               102.8223
 Red. masses --      3.3836                 3.1401                 2.5593
 Frc consts  --      0.0077                 0.0118                 0.0159
 IR Inten    --      0.3447                 0.1584                 0.7694

                      7                      8                      9
                      A                      A                      A
 Frequencies --    116.8091               148.0251               178.4681
 Red. masses --      3.0289                 2.3396                 2.6275
 Frc consts  --      0.0243                 0.0302                 0.0493
 IR Inten    --      0.0982                 1.0662                 5.8349

                     10                     11                     12
                      A                      A                      A
 Frequencies --    194.7232               239.5292               242.4308
 Red. masses --      2.0265                 2.6353                 1.8696
 Frc consts  --      0.0453                 0.0891                 0.0647
 IR Inten    --      0.1365                 1.7057                 5.5505

                     13                     14                     15
                      A                      A                      A
 Frequencies --    270.0816               285.5740               290.8307
 Red. masses --      1.9164                 1.3444                 1.1131
 Frc consts  --      0.0824                 0.0646                 0.0555
 IR Inten    --     13.9073                34.2056                80.8669

                     16                     17                     18
                      A                      A                      A
 Frequencies --    307.7004               314.9418               339.3807
 Red. masses --      1.5187                 1.4261                 2.2819
 Frc consts  --      0.0847                 0.0833                 0.1549
 IR Inten    --      1.5037                32.9230                33.4661

                     19                     20                     21
                      A                      A                      A
 Frequencies --    353.6659               371.6524               402.3311
 Red. masses --      2.2897                 2.5186                 2.0145
 Frc consts  --      0.1687                 0.2050                 0.1921
 IR Inten    --      8.5325                 5.6723                 3.6762

                     22                     23                     24
                      A                      A                      A
 Frequencies --    418.2256               421.7518               476.2612
 Red. masses --      2.8900                 2.0036                 2.2361
 Frc consts  --      0.2978                 0.2100                 0.2988
 IR Inten    --      9.1206                 4.7891                 1.1913

                     25                     26                     27
                      A                      A                      A
 Frequencies --    553.0849               590.1865               602.7887
 Red. masses --      2.5212                 1.9116                 2.4870
 Frc consts  --      0.4544                 0.3923                 0.5324
 IR Inten    --      1.7216                 2.8138                 7.3409

                     28                     29                     30
                      A                      A                      A
 Frequencies --    720.7726               759.4185               761.2652
 Red. masses --      1.2960                 1.5782                 2.6158
 Frc consts  --      0.3967                 0.5363                 0.8932
 IR Inten    --     15.6823                 0.4865                 2.8128

                     31                     32                     33
                      A                      A                      A
 Frequencies --    801.8910               822.2396               838.5469
 Red. masses --      1.4407                 2.4242                 1.6247
 Frc consts  --      0.5458                 0.9656                 0.6731
 IR Inten    --      4.3895                 1.7860                 3.3731

                     34                     35                     36
                      A                      A                      A
 Frequencies --    870.5079               889.9364               903.0390
 Red. masses --      2.1920                 1.5785                 1.8683
 Frc consts  --      0.9787                 0.7366                 0.8977
 IR Inten    --      0.9409                 1.6430                 0.8266

                     37                     38                     39
                      A                      A                      A
 Frequencies --    927.5171               939.6263               972.1275
 Red. masses --      1.8251                 1.8726                 1.9697
 Frc consts  --      0.9251                 0.9741                 1.0967
 IR Inten    --      1.7814                23.1153                 5.9866

                     40                     41                     42
                      A                      A                      A
 Frequencies --    992.3983              1017.7186              1027.0661
 Red. masses --      1.6622                 1.8768                 2.2145
 Frc consts  --      0.9645                 1.1453                 1.3763
 IR Inten    --      6.8319                13.5029                38.6659

                     43                     44                     45
                      A                      A                      A
 Frequencies --   1054.1373              1061.6657              1069.3383
 Red. masses --      1.6568                 1.6459                 1.9329
 Frc consts  --      1.0847                 1.0930                 1.3023
 IR Inten    --      2.4282                 5.4996                10.1576

                     46                     47                     48
                      A                      A                      A
 Frequencies --   1078.2818              1099.8675              1115.2686
 Red. masses --      1.9400                 1.6807                 1.9007
 Frc consts  --      1.3290                 1.1979                 1.3929
 IR Inten    --     32.2400                24.3785                 8.7589

                     49                     50                     51
                      A                      A                      A
 Frequencies --   1127.9299              1141.0976              1156.5576
 Red. masses --      1.8865                 1.8048                 2.3790
 Frc consts  --      1.4141                 1.3846                 1.8749
 IR Inten    --     10.9737                 2.2280                26.3796

                     52                     53                     54
                      A                      A                      A
 Frequencies --   1174.4509              1207.9270              1217.1958
 Red. masses --      2.0829                 1.3964                 1.3373
 Frc consts  --      1.6928                 1.2004                 1.1674
 IR Inten    --     14.4813                 0.3706                30.4994

                     55                     56                     57
                      A                      A                      A
 Frequencies --   1244.6090              1256.5821              1283.2763
 Red. masses --      1.1917                 1.3478                 1.3031
 Frc consts  --      1.0876                 1.2538                 1.2643
 IR Inten    --     25.9155                27.1374                 1.0251

                     58                     59                     60
                      A                      A                      A
 Frequencies --   1290.8589              1302.2847              1314.3676
 Red. masses --      1.3241                 1.2230                 1.2151
 Frc consts  --      1.3000                 1.2220                 1.2368
 IR Inten    --     33.0661                12.1288                 1.7589

                     61                     62                     63
                      A                      A                      A
 Frequencies --   1332.0360              1344.2485              1365.5383
 Red. masses --      1.2216                 1.1445                 1.2629
 Frc consts  --      1.2771                 1.2185                 1.3874
 IR Inten    --      0.4876                 0.5975                 1.5172

                     64                     65                     66
                      A                      A                      A
 Frequencies --   1378.0186              1388.0901              1392.3502
 Red. masses --      1.2844                 1.3432                 1.4571
 Frc consts  --      1.4370                 1.5248                 1.6643
 IR Inten    --      0.3147                14.1814                 2.2335

                     67                     68                     69
                      A                      A                      A
 Frequencies --   1402.3224              1407.2621              1416.1803
 Red. masses --      1.4568                 1.4111                 1.4065
 Frc consts  --      1.6879                 1.6464                 1.6619
 IR Inten    --      8.1102                 1.3839                 2.9381

                     70                     71                     72
                      A                      A                      A
 Frequencies --   1418.4000              1427.3505              1435.1222
 Red. masses --      1.4286                 1.4160                 1.3047
 Frc consts  --      1.6934                 1.6997                 1.5832
 IR Inten    --      7.1672                10.2449                 1.3461

                     73                     74                     75
                      A                      A                      A
 Frequencies --   1443.4205              1444.4760              1456.7457
 Red. masses --      1.3117                 1.3105                 1.3114
 Frc consts  --      1.6102                 1.6111                 1.6397
 IR Inten    --      7.2213                 2.4133                33.5931

                     76                     77                     78
                      A                      A                      A
 Frequencies --   1458.8234              1498.7744              1507.3826
 Red. masses --      1.3927                 1.0934                 1.0922
 Frc consts  --      1.7462                 1.4471                 1.4622
 IR Inten    --     17.8873                 5.5196                 2.3086

                     79                     80                     81
                      A                      A                      A
 Frequencies --   1511.6214              1520.1642              1525.7114
 Red. masses --      1.0766                 1.0756                 1.0727
 Frc consts  --      1.4494                 1.4645                 1.4712
 IR Inten    --      2.5344                 1.4087                10.4670

                     82                     83                     84
                      A                      A                      A
 Frequencies --   1529.9853              1532.7240              1533.5763
 Red. masses --      1.0534                 1.0753                 1.0618
 Frc consts  --      1.4528                 1.4883                 1.4713
 IR Inten    --      7.2461                 2.4317                 5.8056

                     85                     86                     87
                      A                      A                      A
 Frequencies --   1537.9094              1539.5925              1544.9997
 Red. masses --      1.0711                 1.0690                 1.0822
 Frc consts  --      1.4926                 1.4929                 1.5220
 IR Inten    --      4.7672                 5.1593                 2.6643

                     88                     89                     90
                      A                      A                      A
 Frequencies --   1553.4167              2983.9150              3019.4002
 Red. masses --      1.0567                 1.0830                 1.0686
 Frc consts  --      1.5024                 5.6815                 5.7399
 IR Inten    --      7.0841                59.6296                30.4688

                     91                     92                     93
                      A                      A                      A
 Frequencies --   3027.7018              3030.3443              3034.7359
 Red. masses --      1.0623                 1.0447                 1.0643
 Frc consts  --      5.7373                 5.6522                 5.7753
 IR Inten    --     21.5337                17.9912                21.5208

                     94                     95                     96
                      A                      A                      A
 Frequencies --   3038.6907              3042.2376              3045.8561
 Red. masses --      1.0635                 1.0570                 1.0499
 Frc consts  --      5.7858                 5.7638                 5.7390
 IR Inten    --     19.5369                23.3858                27.4846

                     97                     98                     99
                      A                      A                      A
 Frequencies --   3046.2852              3048.3501              3055.0932
 Red. masses --      1.0633                 1.0606                 1.0654
 Frc consts  --      5.8135                 5.8067                 5.8591
 IR Inten    --     27.6719                13.2632                 4.1188

                    100                    101                    102
                      A                      A                      A
 Frequencies --   3057.9241              3067.4772              3068.0457
 Red. masses --      1.0970                 1.0980                 1.0859
 Frc consts  --      6.0440                 6.0874                 6.0222
 IR Inten    --     23.1561                48.8319                35.3443

                    103                    104                    105
                      A                      A                      A
 Frequencies --   3076.4857              3083.0653              3084.5090
 Red. masses --      1.0959                 1.0997                 1.0970
 Frc consts  --      6.1112                 6.1585                 6.1495
 IR Inten    --     69.8713               103.9762                94.0712

                    106                    107                    108
                      A                      A                      A
 Frequencies --   3085.3752              3094.1473              3099.3755
 Red. masses --      1.0935                 1.0978                 1.0992
 Frc consts  --      6.1333                 6.1923                 6.2209
 IR Inten    --     10.6227                34.2685                39.3828

                    109                    110                    111
                      A                      A                      A
 Frequencies --   3104.7917              3110.3541              3116.9461
 Red. masses --      1.1002                 1.1016                 1.0990
 Frc consts  --      6.2486                 6.2790                 6.2908
 IR Inten    --     24.7956                47.6501                46.5618

                    112                    113                    114
                      A                      A                      A
 Frequencies --   3117.4814              3739.6167              3772.8655
 Red. masses --      1.1020                 1.0660                 1.0651
 Frc consts  --      6.3100                 8.7837                 8.9329
 IR Inten    --     48.2980                 7.0607                23.9866

 - Thermochemistry -
 -------------------
 Temperature   298.150 Kelvin.  Pressure   1.00000 Atm.
 Atom     1 has atomic number  6 and mass  12.00000

 Molecular mass:   202.19328 amu.
 Principal axes and moments of inertia in atomic units:
                           1         2         3
     Eigenvalues --  1165.480207269.894937740.74346
           X            0.99998  -0.00487   0.00323
           Y            0.00483   0.99992   0.01154
           Z           -0.00329  -0.01152   0.99993
 This molecule is an asymmetric top.
 Rotational symmetry number  1.
 Warning -- assumption of classical behavior for rotation
           may cause significant error
 Rotational temperatures (Kelvin)      0.07432     0.01191     0.01119
 Rotational constants (GHZ):           1.54850     0.24825     0.23315
 Zero-point vibrational energy     979911.3 (Joules/Mol)
                                  234.20443 (Kcal/Mol)
 Warning -- explicit consideration of  27 degrees of freedom as
           vibrations may cause significant error
 Vibrational temperatures:     47.33    55.94    80.70    89.67   114.86
          (Kelvin)            147.94   168.06   212.98   256.78   280.16
                              344.63   348.80   388.59   410.88   418.44
                              442.71   453.13   488.29   508.85   534.72
                              578.86   601.73   606.81   685.23   795.77
                              849.15   867.28  1037.03  1092.63  1095.29
                             1153.74  1183.02  1206.48  1252.47  1280.42
                             1299.27  1334.49  1351.91  1398.67  1427.84
                             1464.27  1477.72  1516.67  1527.50  1538.54
                             1551.41  1582.46  1604.62  1622.84  1641.78
                             1664.03  1689.77  1737.94  1751.27  1790.71
                             1807.94  1846.35  1857.26  1873.70  1891.08
                             1916.50  1934.07  1964.71  1982.66  1997.15
                             2003.28  2017.63  2024.74  2037.57  2040.76
                             2053.64  2064.82  2076.76  2078.28  2095.93
                             2098.92  2156.40  2168.79  2174.89  2187.18
                             2195.16  2201.31  2205.25  2206.47  2212.71
                             2215.13  2222.91  2235.02  4293.19  4344.24
                             4356.19  4359.99  4366.31  4372.00  4377.10
                             4382.31  4382.92  4385.90  4395.60  4399.67
                             4413.42  4414.23  4426.38  4435.84  4437.92
                             4439.17  4451.79  4459.31  4467.10  4475.11
                             4484.59  4485.36  5380.47  5428.31

 Zero-point correction=                           0.373229 (Hartree/Particle)
 Thermal correction to Energy=                    0.390724
 Thermal correction to Enthalpy=                  0.391668
 Thermal correction to Gibbs Free Energy=         0.327592
 Sum of electronic and zero-point Energies=           -623.065767
 Sum of electronic and thermal Energies=              -623.048271
 Sum of electronic and thermal Enthalpies=            -623.047327
 Sum of electronic and thermal Free Energies=         -623.111403

                     E (Thermal)             CV                S
                      KCal/Mol        Cal/Mol-Kelvin    Cal/Mol-Kelvin
 Total                  245.183             65.464            134.859
 Electronic               0.000              0.000              0.000
 Translational            0.889              2.981             41.817
 Rotational               0.889              2.981             32.550
 Vibrational            243.405             59.502             60.492
 Vibration     1          0.594              1.983              5.646
 Vibration     2          0.594              1.981              5.315
 Vibration     3          0.596              1.975              4.590
 Vibration     4          0.597              1.972              4.382
 Vibration     5          0.600              1.963              3.895
 Vibration     6          0.605              1.947              3.400
 Vibration     7          0.608              1.935              3.152
 Vibration     8          0.617              1.905              2.697
 Vibration     9          0.629              1.869              2.344
 Vibration    10          0.635              1.847              2.182
 Vibration    11          0.657              1.780              1.806
 Vibration    12          0.659              1.775              1.785
 Vibration    13          0.674              1.728              1.596
 Vibration    14          0.683              1.700              1.500
 Vibration    15          0.687              1.691              1.469
 Vibration    16          0.698              1.659              1.375
 Vibration    17          0.702              1.645              1.336
 Vibration    18          0.719              1.597              1.215
 Vibration    19          0.730              1.568              1.150
 Vibration    20          0.743              1.530              1.073
 Vibration    21          0.768              1.465              0.954
 Vibration    22          0.781              1.431              0.898
 Vibration    23          0.784              1.423              0.886
 Vibration    24          0.833              1.303              0.720
 Vibration    25          0.908              1.133              0.538
 Vibration    26          0.948              1.053              0.467
 Vibration    27          0.961              1.026              0.445

 Optimization completed.
    -- Stationary point found.
 Normal termination of Gaussian 16 at Thu Dec 10 11:10:56 2020.

 ----------------------------------------------------------------------
 # B3LYP/6-311++G(d,p) empiricaldispersion=gd3bj scf=xqc pop=npa geom=c
 heck
 ----------------------------------------------------------------------

 --------------------------------------
 CID_85401191_JID_4971_Energie_neutraal
 --------------------------------------
 Structure from the checkpoint file:  "JID_4971.chk"
 Charge =  0 Multiplicity = 1

 SCF Done:  E(RB3LYP) =  -623.636941103     A.U. after   13 cycles
 Normal termination of Gaussian 16 at Thu Dec 10 11:17:43 2020.

 ----------------------------------------------------------------------
 # B3LYP/6-311++G(d,p) empiricaldispersion=gd3bj scf=xqc pop=npa geom=c
 heck
 ----------------------------------------------------------------------

 ------------------------------------
 CID_85401191_JID_4971_Energie_kation
 ------------------------------------
 Structure from the checkpoint file:  "JID_4971.chk"
 Charge =  1 Multiplicity = 2

 SCF Done:  E(UB3LYP) =  -623.301952871     A.U. after   22 cycles
 Normal termination of Gaussian 16 at Thu Dec 10 11:33:03 2020.
 Gaussian 16:  ES64L-G16RevA.03 25-Dec-2016

 ----------------------------------------------------------------------
 # B3LYP/6-311++G(d,p) empiricaldispersion=gd3bj scf=xqc pop=npa geom=c
 heck
 ----------------------------------------------------------------------

 -----------------------------------
 CID_85401191_JID_4971_Energie_anion
 -----------------------------------
 Structure from the checkpoint file:  "JID_4971.chk"
 Charge = -1 Multiplicity = 2

                         Standard orientation:
 ---------------------------------------------------------------------
 Center     Atomic      Atomic             Coordinates (Angstroms)
 Number     Number       Type             X           Y           Z
 ---------------------------------------------------------------------
      1          6           0        5.403352   -0.597495    0.440801
      2          6           0        4.483752    0.609391    0.232773
      3          6           0        3.486943    0.439916   -0.923922
      4          6           0        2.524872   -0.751087   -0.787353
      5          6           0        1.679109   -0.761481    0.496746
      6          6           0        0.830195    0.496775    0.733356
      7          6           0       -0.154845    0.846941   -0.389827
      8          6           0       -1.147850   -0.265916   -0.735953
      9          6           0       -1.951902   -0.884587    0.419920
     10          6           0       -2.949381    0.055929    1.115819
     11          6           0       -3.922770    0.847187    0.226826
     12          6           0       -4.837283    0.011244   -0.678672
     13          8           0       -2.575144   -2.097761   -0.024098
     14          8           0       -0.909984    2.015440   -0.043948
     15          1           0        4.840697   -1.490076    0.735847
     16          1           0        6.142823   -0.400410    1.224800
     17          1           0        5.948390   -0.839692   -0.479979
     18          1           0        3.940875    0.817847    1.164304
     19          1           0        5.095871    1.499370    0.036242
     20          1           0        2.908357    1.367365   -1.031700
     21          1           0        4.048233    0.326354   -1.861727
     22          1           0        1.864254   -0.767427   -1.663754
     23          1           0        3.094790   -1.687551   -0.831102
     24          1           0        1.025190   -1.642010    0.477735
     25          1           0        2.336829   -0.898058    1.364347
     26          1           0        0.268473    0.388478    1.668732
     27          1           0        1.494800    1.361388    0.878976
     28          1           0        0.419442    1.057763   -1.306270
     29          1           0       -1.833378    0.125705   -1.498216
     30          1           0       -0.592831   -1.084602   -1.207507
     31          1           0       -1.248631   -1.233762    1.183922
     32          1           0       -3.517049   -0.561148    1.825095
     33          1           0       -2.375227    0.782234    1.701781
     34          1           0       -4.554720    1.448728    0.893402
     35          1           0       -3.355529    1.563907   -0.375722
     36          1           0       -5.317094   -0.804765   -0.125110
     37          1           0       -5.630185    0.630453   -1.113094
     38          1           0       -4.292849   -0.426088   -1.526618
     39          1           0       -3.217557   -1.860173   -0.708500
     40          1           0       -0.278090    2.703833    0.215400
 ---------------------------------------------------------------------

 SCF Done:  E(UB3LYP) =  -623.624625132     A.U. after   26 cycles

 The electronic state is 2-A.
 Alpha  occ. eigenvalues --  -19.02616 -19.02110 -10.12519 -10.12445 -10.07491
 Alpha  occ. eigenvalues --  -10.07320 -10.07096 -10.07042 -10.06989 -10.06979
 Alpha  occ. eigenvalues --  -10.06715 -10.06651 -10.06526 -10.06389  -0.92900
 Alpha  occ. eigenvalues --   -0.92304  -0.72225  -0.70409  -0.68587  -0.65908
 Alpha  occ. eigenvalues --   -0.62541  -0.60586  -0.57085  -0.54618  -0.51883
 Alpha  occ. eigenvalues --   -0.49080  -0.47044  -0.44905  -0.42704  -0.39953
 Alpha  occ. eigenvalues --   -0.38711  -0.37180  -0.36859  -0.35561  -0.34357
 Alpha  occ. eigenvalues --   -0.33698  -0.32898  -0.32130  -0.31553  -0.30971
 Alpha  occ. eigenvalues --   -0.30355  -0.28831  -0.28388  -0.27634  -0.27142
 Alpha  occ. eigenvalues --   -0.26834  -0.25261  -0.25131  -0.24912  -0.23788
 Alpha  occ. eigenvalues --   -0.22797  -0.22179  -0.22055  -0.21694  -0.21245
 Alpha  occ. eigenvalues --   -0.18326  -0.17100   0.04175
 Alpha virt. eigenvalues --    0.05727   0.06602   0.07109   0.07793   0.08105
 Alpha virt. eigenvalues --    0.08618   0.09420   0.09631   0.10107   0.10325
 Alpha virt. eigenvalues --    0.10646   0.11325   0.11557   0.11965   0.12575

  Beta  occ. eigenvalues --  -19.02609 -19.02077 -10.12517 -10.12433 -10.07464
  Beta  occ. eigenvalues --  -10.07312 -10.07084 -10.07031 -10.06981 -10.06956
  Beta  occ. eigenvalues --  -10.06709 -10.06627 -10.06504 -10.06363  -0.92882
  Beta  occ. eigenvalues --   -0.92239  -0.72194  -0.70384  -0.68550  -0.65876
  Beta  occ. eigenvalues --   -0.62503  -0.60546  -0.57037  -0.54572  -0.51834
  Beta  occ. eigenvalues --   -0.49025  -0.47001  -0.44843  -0.42641  -0.39926
  Beta  occ. eigenvalues --   -0.38680  -0.37150  -0.36820  -0.35533  -0.34328
  Beta  occ. eigenvalues --   -0.33673  -0.32854  -0.32107  -0.31524  -0.30941
  Beta  occ. eigenvalues --   -0.30326  -0.28802  -0.28360  -0.27606  -0.27118
  Beta  occ. eigenvalues --   -0.26805  -0.25218  -0.25103  -0.24884  -0.23767
  Beta  occ. eigenvalues --   -0.22769  -0.22149  -0.22017  -0.21659  -0.21225
  Beta  occ. eigenvalues --   -0.18308  -0.17069
  Beta virt. eigenvalues --    0.06085   0.06476   0.07415   0.07586   0.08084
  Beta virt. eigenvalues --    0.08392   0.08877   0.09706   0.10080   0.10391
  Beta virt. eigenvalues --    0.10473   0.10860   0.11482   0.11765   0.12127

 Mulliken charges and spin densities:
               1          2
     1  C    0.971897  -1.616038
     2  C   -0.513311   0.330929
     3  C    0.172719  -0.412078
     4  C    0.086920  -0.351486
     5  C    0.558889  -0.810865
     6  C   -0.800421   0.528321
     7  C   -0.254906  -0.315682
     8  C    0.607928  -0.940617
     9  C    0.176681  -0.237442
    10  C   -0.059687  -0.241261
    11  C   -0.894599   0.651531
    12  C    0.547813  -1.195735
    13  O   -0.196910   0.021039
    14  O   -0.217719   0.048164
    15  H   -0.000950   0.130258
    16  H   -0.214531   0.353344
    17  H   -0.080344   0.213497
    18  H   -0.029802   0.152225
    19  H   -0.506841   0.670498
    20  H   -0.276848   0.430954
    21  H   -0.224654   0.379783
    22  H    0.027646   0.111398
    23  H    0.113526   0.041480
    24  H    0.152505   0.002379
    25  H   -0.043553   0.214993
    26  H    0.052665   0.137451
    27  H   -0.405728   0.563159
    28  H    0.005334   0.201603
    29  H   -0.046617   0.228494
    30  H    0.130265   0.086959
    31  H    0.192178   0.031459
    32  H    0.046951   0.123458
    33  H    0.144819   0.006853
    34  H   -0.130916   0.262931
    35  H    0.234920  -0.039475
    36  H    0.028790   0.125468
    37  H   -0.220836   0.366169
    38  H   -0.130455   0.247797
    39  H    0.236590  -0.001237
    40  H   -0.239409   0.499322
 Sum of Mulliken charges =  -1.00000   1.00000

 Dipole moment (field-independent basis, Debye):
    X=             -3.3592    Y=             -4.0147    Z=              0.5088  Tot=              5.2594
 Quadrupole moment (field-independent basis, Debye-Ang):
   XX=           -202.7430   YY=           -138.4500   ZZ=           -122.0588
   XY=             -8.2380   XZ=             -2.8153   YZ=              1.1867

 Summary of Natural Population Analysis:

                                       Natural Population
                Natural  -----------------------------------------------
    Atom  No    Charge         Core      Valence    Rydberg      Total
 -----------------------------------------------------------------------
      C    1   -0.28568      0.99967     2.28149    0.00452     3.28568
      C    2   -0.19245      0.99964     2.18438    0.00843     3.19245
      C    3   -0.19189      0.99963     2.18257    0.00970     3.19189
      C    4   -0.19150      0.99962     2.18453    0.00735     3.19150
      C    5   -0.19249      0.99962     2.18564    0.00723     3.19249
      C    6   -0.20577      0.99961     2.19574    0.01043     3.20577
      C    7    0.06406      0.99955     1.92243    0.01397     2.93594
      C    8   -0.21358      0.99958     2.20283    0.01117     3.21358
      C    9    0.06342      0.99955     1.92450    0.01253     2.93658
      C   10   -0.20048      0.99960     2.19330    0.00758     3.20048
      C   11   -0.19928      0.99963     2.19106    0.00858     3.19928
      C   12   -0.29259      0.99967     2.28709    0.00584     3.29259
      O   13   -0.37482      0.99990     3.36876    0.00616     4.37482
      O   14   -0.37702      0.99989     3.37041    0.00672     4.37702
      H   15    0.09370      0.00000     0.40518    0.00113     0.40630
      H   16    0.09879      0.00000     0.40006    0.00115     0.40121
      H   17    0.09463      0.00000     0.40416    0.00121     0.40537
      H   18    0.09354      0.00000     0.40501    0.00145     0.40646
      H   19    0.09823      0.00000     0.40012    0.00166     0.40177
      H   20    0.09908      0.00000     0.39910    0.00182     0.40092
      H   21    0.09552      0.00000     0.40336    0.00112     0.40448
      H   22    0.09608      0.00000     0.40268    0.00124     0.40392
      H   23    0.09569      0.00000     0.40323    0.00107     0.40431
      H   24    0.09746      0.00000     0.40138    0.00116     0.40254
      H   25    0.09774      0.00000     0.40118    0.00108     0.40226
      H   26    0.09937      0.00000     0.39937    0.00126     0.40063
      H   27    0.10098      0.00000     0.39727    0.00175     0.39902
      H   28    0.07983      0.00000     0.41807    0.00211     0.42017
      H   29    0.10200      0.00000     0.39672    0.00128     0.39800
      H   30    0.10657      0.00000     0.39218    0.00125     0.39343
      H   31    0.08618      0.00000     0.41189    0.00194     0.41382
      H   32    0.09509      0.00000     0.40380    0.00111     0.40491
      H   33    0.10927      0.00000     0.38935    0.00138     0.39073
      H   34    0.09503      0.00000     0.40396    0.00102     0.40497
      H   35    0.10799      0.00000     0.39034    0.00166     0.39201
      H   36    0.09628      0.00000     0.40274    0.00098     0.40372
      H   37    0.10172      0.00000     0.39732    0.00095     0.39828
      H   38    0.08840      0.00000     0.41037    0.00123     0.41160
      H   39    0.22719      0.00000     0.26988    0.00293     0.27281
      H   40    0.23372      0.00000     0.26062    0.00566     0.26628
 =======================================================================
   * Total *    0.00000     13.99516    42.84405    0.16079    57.00000

 Normal termination of Gaussian 16 at Thu Dec 10 11:49:02 2020.
