 Gaussian 16, Revision A.03,

 -----------------------------------------------------------
 # opt freq B3LYP/6-31G(d) empiricaldispersion=gd3bj scf=xqc
 -----------------------------------------------------------

 -------------------------------
 CID_130636308_JID_4281_neutraal
 -------------------------------
 Symbolic Z-matrix:
 Charge =  0 Multiplicity = 1

 SCF Done:  E(RB3LYP) =  -630.965585735     A.U. after   15 cycles
 SCF Done:  E(RB3LYP) =  -630.969546553     A.U. after   13 cycles
 SCF Done:  E(RB3LYP) =  -630.968431596     A.U. after   13 cycles
 SCF Done:  E(RB3LYP) =  -630.970142908     A.U. after   12 cycles
 SCF Done:  E(RB3LYP) =  -630.969542300     A.U. after   13 cycles
 SCF Done:  E(RB3LYP) =  -630.970736475     A.U. after   12 cycles
 SCF Done:  E(RB3LYP) =  -630.970500331     A.U. after   13 cycles
 SCF Done:  E(RB3LYP) =  -630.970955689     A.U. after   12 cycles
 SCF Done:  E(RB3LYP) =  -630.971041835     A.U. after   12 cycles
 SCF Done:  E(RB3LYP) =  -630.971147334     A.U. after   12 cycles
 SCF Done:  E(RB3LYP) =  -630.972904008     A.U. after   11 cycles
 SCF Done:  E(RB3LYP) =  -630.972912277     A.U. after   11 cycles
 SCF Done:  E(RB3LYP) =  -630.972913019     A.U. after    8 cycles
 SCF Done:  E(RB3LYP) =  -630.972912648     A.U. after    8 cycles
 SCF Done:  E(RB3LYP) =  -630.972913434     A.U. after    9 cycles
 Optimization completed.
    -- Stationary point found.
 Normal termination of Gaussian 16 at Thu Dec 10 09:29:34 2020.

 --------------------------------------------------------------------
 #N Geom=AllCheck Guess=TCheck SCRF=Check GenChk RB3LYP/6-31G(d) Freq
 --------------------------------------------------------------------

 Structure from the checkpoint file:  "JID_4281.chk"
 -------------------------------
 CID_130636308_JID_4281_neutraal
 -------------------------------
 Charge =  0 Multiplicity = 1

 SCF Done:  E(RB3LYP) =  -630.972913434     A.U. after    1 cycles

  Exact polarizability: 156.779 -24.039 150.053  10.435  13.266  70.479
 Approx polarizability: 227.820 -43.626 252.034  20.811  30.536 108.491

                      1                      2                      3
                      A                      A                      A
 Frequencies --     38.1166                41.5929                51.8314
 Red. masses --      5.1664                 9.8374                 6.3021
 Frc consts  --      0.0044                 0.0100                 0.0100
 IR Inten    --      0.3192                 1.5790                 0.3995

                      4                      5                      6
                      A                      A                      A
 Frequencies --    111.8445               126.6878               149.2426
 Red. masses --      3.3495                 3.8974                 3.7628
 Frc consts  --      0.0247                 0.0369                 0.0494
 IR Inten    --      2.6630                 0.4242                 0.5219

                      7                      8                      9
                      A                      A                      A
 Frequencies --    175.4767               214.9933               277.9859
 Red. masses --      2.4024                 1.5906                 3.1227
 Frc consts  --      0.0436                 0.0433                 0.1422
 IR Inten    --      0.2548                 1.3561                 0.3797

                     10                     11                     12
                      A                      A                      A
 Frequencies --    325.0615               362.6726               386.7664
 Red. masses --      4.5764                 4.2144                 4.3989
 Frc consts  --      0.2849                 0.3266                 0.3877
 IR Inten    --      7.1263                 0.5826                 0.5897

                     13                     14                     15
                      A                      A                      A
 Frequencies --    411.1218               462.8474               484.0912
 Red. masses --      3.5861                 5.6274                 3.9854
 Frc consts  --      0.3571                 0.7103                 0.5503
 IR Inten    --      2.0259                 1.0072                 3.0005

                     16                     17                     18
                      A                      A                      A
 Frequencies --    499.5533               511.1143               557.9501
 Red. masses --      4.6524                 1.9653                 1.3808
 Frc consts  --      0.6841                 0.3025                 0.2533
 IR Inten    --      4.1365                19.4049                33.7792

                     19                     20                     21
                      A                      A                      A
 Frequencies --    561.0847               588.5407               623.2581
 Red. masses --      4.3161                 3.4399                 1.2021
 Frc consts  --      0.8006                 0.7020                 0.2751
 IR Inten    --      9.7332                33.1913                37.8805

                     22                     23                     24
                      A                      A                      A
 Frequencies --    634.1919               644.8774               695.0269
 Red. masses --      2.3037                 3.7131                 2.1063
 Frc consts  --      0.5459                 0.9098                 0.5995
 IR Inten    --     54.5817                10.7882                70.9264

                     25                     26                     27
                      A                      A                      A
 Frequencies --    702.9706               736.6067               790.7170
 Red. masses --      2.0997                 4.7631                 1.5171
 Frc consts  --      0.6114                 1.5227                 0.5589
 IR Inten    --      8.5986                 9.9980                36.1927

                     28                     29                     30
                      A                      A                      A
 Frequencies --    850.3413               868.1113               877.2445
 Red. masses --      4.6269                 1.5881                 1.4032
 Frc consts  --      1.9712                 0.7051                 0.6362
 IR Inten    --      6.1351                18.5703                 6.2454

                     31                     32                     33
                      A                      A                      A
 Frequencies --    893.3402               965.9893               978.6376
 Red. masses --      4.6890                 1.2627                 2.5624
 Frc consts  --      2.2048                 0.6942                 1.4459
 IR Inten    --      1.0324                 0.3244                31.1000

                     34                     35                     36
                      A                      A                      A
 Frequencies --   1011.8936              1056.3422              1131.9290
 Red. masses --      5.2235                 2.2424                 1.7087
 Frc consts  --      3.1512                 1.4742                 1.2899
 IR Inten    --      9.1704                26.9995                 1.8613

                     37                     38                     39
                      A                      A                      A
 Frequencies --   1154.1575              1157.6704              1191.9075
 Red. masses --      1.6244                 1.3200                 2.0727
 Frc consts  --      1.2749                 1.0423                 1.7349
 IR Inten    --     44.1886                19.8076               164.0676

                     40                     41                     42
                      A                      A                      A
 Frequencies --   1214.5787              1219.1690              1268.7962
 Red. masses --      1.7742                 1.3583                 2.1116
 Frc consts  --      1.5421                 1.1895                 2.0028
 IR Inten    --     22.6168                 8.5523                15.8950

                     43                     44                     45
                      A                      A                      A
 Frequencies --   1305.8232              1352.3127              1373.5913
 Red. masses --      2.0306                 2.4663                 1.9442
 Frc consts  --      2.0401                 2.6573                 2.1612
 IR Inten    --     36.3016                 2.4943                 8.6680

                     46                     47                     48
                      A                      A                      A
 Frequencies --   1376.1451              1389.1864              1400.8809
 Red. masses --      1.4645                 2.4460                 2.3896
 Frc consts  --      1.6341                 2.7812                 2.7629
 IR Inten    --     31.7813                43.2243               103.7943

                     49                     50                     51
                      A                      A                      A
 Frequencies --   1485.0861              1486.7922              1514.7561
 Red. masses --      2.6575                 1.1829                 1.2076
 Frc consts  --      3.4532                 1.5407                 1.6325
 IR Inten    --     27.6434                 4.0583                 8.9924

                     52                     53                     54
                      A                      A                      A
 Frequencies --   1517.0367              1545.3536              1554.0790
 Red. masses --      1.0750                 1.7601                 1.2520
 Frc consts  --      1.4576                 2.4765                 1.7816
 IR Inten    --      6.0991                14.4483                94.9828

                     55                     56                     57
                      A                      A                      A
 Frequencies --   1631.2719              1660.0464              1851.8183
 Red. masses --      5.1409                 5.3782                10.0604
 Frc consts  --      8.0602                 8.7323                20.3264
 IR Inten    --     51.4520               155.2897               239.6723

                     58                     59                     60
                      A                      A                      A
 Frequencies --   2229.7335              3027.5874              3078.9144
 Red. masses --      6.1500                 1.0426                 1.0618
 Frc consts  --     18.0148                 5.6308                 5.9303
 IR Inten    --      2.3038                58.3075                19.8374

                     61                     62                     63
                      A                      A                      A
 Frequencies --   3089.5895              3121.8139              3147.3427
 Red. masses --      1.0982                 1.1032                 1.0985
 Frc consts  --      6.1765                 6.3344                 6.4112
 IR Inten    --     34.7851                 5.9104                24.7483

                     64                     65                     66
                      A                      A                      A
 Frequencies --   3191.6791              3224.3758              3237.7961
 Red. masses --      1.0882                 1.0931                 1.0912
 Frc consts  --      6.5313                 6.6957                 6.7397
 IR Inten    --     14.3731                 9.8723                12.0486

                     67                     68                     69
                      A                      A                      A
 Frequencies --   3240.3686              3497.1742              3686.6925
 Red. masses --      1.0896                 1.1569                 1.0641
 Frc consts  --      6.7409                 8.3364                 8.5215
 IR Inten    --      4.5097                79.5248                53.2559

 - Thermochemistry -
 -------------------
 Temperature   298.150 Kelvin.  Pressure   1.00000 Atm.
 Atom     1 has atomic number  6 and mass  12.00000

 Molecular mass:   189.07898 amu.
 Principal axes and moments of inertia in atomic units:
                           1         2         3
     Eigenvalues --  1920.153893386.651574784.36596
           X            0.99940  -0.03381   0.00757
           Y            0.03375   0.99939   0.00866
           Z           -0.00786  -0.00840   0.99993
 This molecule is an asymmetric top.
 Rotational symmetry number  1.
 Warning -- assumption of classical behavior for rotation
           may cause significant error
 Rotational temperatures (Kelvin)      0.04511     0.02558     0.01810
 Rotational constants (GHZ):           0.93989     0.53290     0.37722
 Zero-point vibrational energy     521712.9 (Joules/Mol)
                                  124.69237 (Kcal/Mol)
 Warning -- explicit consideration of  20 degrees of freedom as
           vibrations may cause significant error
 Vibrational temperatures:     54.84    59.84    74.57   160.92   182.28
          (Kelvin)            214.73   252.47   309.33   399.96   467.69
                              521.81   556.47   591.51   665.93   696.50
                              718.75   735.38   802.77   807.28   846.78
                              896.73   912.46   927.83   999.99  1011.42
                             1059.81  1137.67  1223.45  1249.02  1262.16
                             1285.32  1389.84  1408.04  1455.89  1519.84
                             1628.59  1660.58  1665.63  1714.89  1747.51
                             1754.11  1825.51  1878.79  1945.68  1976.29
                             1979.97  1998.73  2015.56  2136.71  2139.16
                             2179.40  2182.68  2223.42  2235.97  2347.04
                             2388.44  2664.35  3208.09  4356.02  4429.87
                             4445.23  4491.59  4528.32  4592.11  4639.16
                             4658.47  4662.17  5031.65  5304.33

 Zero-point correction=                           0.198710 (Hartree/Particle)
 Thermal correction to Energy=                    0.211964
 Thermal correction to Enthalpy=                  0.212909
 Thermal correction to Gibbs Free Energy=         0.157826
 Sum of electronic and zero-point Energies=           -630.774203
 Sum of electronic and thermal Energies=              -630.760949
 Sum of electronic and thermal Enthalpies=            -630.760005
 Sum of electronic and thermal Free Energies=         -630.815088

                     E (Thermal)             CV                S
                      KCal/Mol        Cal/Mol-Kelvin    Cal/Mol-Kelvin
 Total                  133.010             49.955            115.932
 Electronic               0.000              0.000              0.000
 Translational            0.889              2.981             41.617
 Rotational               0.889              2.981             31.809
 Vibrational            131.232             43.994             42.506
 Vibration     1          0.594              1.982              5.355
 Vibration     2          0.594              1.981              5.182
 Vibration     3          0.596              1.977              4.746
 Vibration     4          0.607              1.940              3.237
 Vibration     5          0.611              1.926              2.996
 Vibration     6          0.618              1.903              2.682
 Vibration     7          0.627              1.873              2.376
 Vibration     8          0.645              1.818              2.001
 Vibration     9          0.679              1.714              1.546
 Vibration    10          0.709              1.625              1.285
 Vibration    11          0.737              1.549              1.111
 Vibration    12          0.755              1.498              1.013
 Vibration    13          0.775              1.446              0.923
 Vibration    14          0.820              1.332              0.758
 Vibration    15          0.840              1.285              0.699
 Vibration    16          0.855              1.251              0.659
 Vibration    17          0.866              1.225              0.631
 Vibration    18          0.913              1.122              0.528
 Vibration    19          0.917              1.115              0.522
 Vibration    20          0.946              1.056              0.470

                           ! Non-Optimized Parameters !
 Normal termination of Gaussian 16 at Thu Dec 10 09:36:22 2020.

 ----------------------------------------------------------------------
 # B3LYP/6-311++G(d,p) empiricaldispersion=gd3bj scf=xqc pop=npa geom=c
 heck
 ----------------------------------------------------------------------

 ---------------------------------------
 CID_130636308_JID_4281_Energie_neutraal
 ---------------------------------------
 Structure from the checkpoint file:  "JID_4281.chk"
 Charge =  0 Multiplicity = 1

 SCF Done:  E(RB3LYP) =  -631.158698419     A.U. after   15 cycles
 Normal termination of Gaussian 16 at Thu Dec 10 09:39:20 2020.

 ----------------------------------------------------------------------
 # B3LYP/6-311++G(d,p) empiricaldispersion=gd3bj scf=xqc pop=npa geom=c
 heck
 ----------------------------------------------------------------------

 -------------------------------------
 CID_130636308_JID_4281_Energie_kation
 -------------------------------------
 Structure from the checkpoint file:  "JID_4281.chk"
 Charge =  1 Multiplicity = 2

 SCF Done:  E(UB3LYP) =  -630.883930765     A.U. after   24 cycles
 Normal termination of Gaussian 16 at Thu Dec 10 09:46:03 2020.
 Gaussian 16:  ES64L-G16RevA.03 25-Dec-2016

 ----------------------------------------------------------------------
 # B3LYP/6-311++G(d,p) empiricaldispersion=gd3bj scf=xqc pop=npa geom=c
 heck
 ----------------------------------------------------------------------

 ------------------------------------
 CID_130636308_JID_4281_Energie_anion
 ------------------------------------
 Structure from the checkpoint file:  "JID_4281.chk"
 Charge = -1 Multiplicity = 2

                         Standard orientation:
 ---------------------------------------------------------------------
 Center     Atomic      Atomic             Coordinates (Angstroms)
 Number     Number       Type             X           Y           Z
 ---------------------------------------------------------------------
      1          6           0        2.275160   -1.940864    0.286425
      2          7           0        1.393415   -0.858234    0.694046
      3          6           0        1.991129    0.426124    0.963249
      4          6           0        2.121395    1.373021   -0.231529
      5          8           0        2.131913    2.579350   -0.148955
      6          8           0        2.264669    0.703841   -1.398116
      7          6           0        0.050127   -0.904328    0.314941
      8          6           0       -0.527024   -2.102503   -0.155651
      9          6           0       -1.875050   -2.155408   -0.499202
     10          6           0       -2.691713   -1.034074   -0.400347
     11          6           0       -2.131421    0.171883    0.051110
     12          6           0       -0.773766    0.233701    0.399905
     13          6           0       -2.936588    1.348496    0.151079
     14          6           0       -3.619273    2.343429    0.235155
     15          1           0        3.287670   -1.719248    0.629241
     16          1           0        2.300333   -2.072338   -0.804451
     17          1           0        1.968963   -2.885757    0.748337
     18          1           0        1.441433    0.967542    1.738121
     19          1           0        3.000610    0.266719    1.356712
     20          1           0        2.336784    1.383485   -2.094542
     21          1           0        0.073617   -2.997700   -0.254103
     22          1           0       -2.290034   -3.094309   -0.855119
     23          1           0       -3.740692   -1.074071   -0.671135
     24          1           0       -0.384117    1.189422    0.725086
     25          1           0       -4.218977    3.221503    0.309295
 ---------------------------------------------------------------------

 SCF Done:  E(UB3LYP) =  -631.152351480     A.U. after   33 cycles
 SCF Done:  E(UB3LYP) =  -631.152351480     a.u. after    1 cycles

 The electronic state is 2-A.
 Alpha  occ. eigenvalues --  -19.06494 -19.00877 -14.22428 -10.19552 -10.11118
 Alpha  occ. eigenvalues --  -10.10018 -10.08744 -10.07078 -10.05998 -10.05815
 Alpha  occ. eigenvalues --  -10.05203 -10.05096 -10.04702 -10.04643  -1.00478
 Alpha  occ. eigenvalues --   -0.91643  -0.84480  -0.73881  -0.66872  -0.64478
 Alpha  occ. eigenvalues --   -0.63646  -0.60903  -0.56375  -0.51836  -0.50627
 Alpha  occ. eigenvalues --   -0.47724  -0.44039  -0.41188  -0.39117  -0.38701
 Alpha  occ. eigenvalues --   -0.37697  -0.36425  -0.35811  -0.34074  -0.32773
 Alpha  occ. eigenvalues --   -0.31382  -0.31010  -0.29883  -0.28722  -0.27849
 Alpha  occ. eigenvalues --   -0.26587  -0.25242  -0.23487  -0.22180  -0.20973
 Alpha  occ. eigenvalues --   -0.18824  -0.16723  -0.16610  -0.12530  -0.09144
 Alpha  occ. eigenvalues --    0.04540
 Alpha virt. eigenvalues --    0.06631   0.07846   0.07934   0.08429   0.09177
 Alpha virt. eigenvalues --    0.10013   0.10624   0.11150   0.11402   0.12084
 Alpha virt. eigenvalues --    0.12572   0.13526   0.14112   0.14545   0.14791

  Beta  occ. eigenvalues --  -19.06453 -19.00828 -14.22433 -10.19479 -10.11097
  Beta  occ. eigenvalues --  -10.10045 -10.08703 -10.06925 -10.05997 -10.05798
  Beta  occ. eigenvalues --  -10.05184 -10.05015 -10.04591 -10.04475  -1.00371
  Beta  occ. eigenvalues --   -0.91551  -0.84466  -0.73679  -0.66643  -0.64360
  Beta  occ. eigenvalues --   -0.63517  -0.60696  -0.56240  -0.51726  -0.50271
  Beta  occ. eigenvalues --   -0.47649  -0.43943  -0.41060  -0.39009  -0.38642
  Beta  occ. eigenvalues --   -0.37566  -0.36252  -0.35746  -0.33902  -0.32708
  Beta  occ. eigenvalues --   -0.31281  -0.30933  -0.29815  -0.28650  -0.27782
  Beta  occ. eigenvalues --   -0.26097  -0.25148  -0.23403  -0.21977  -0.20595
  Beta  occ. eigenvalues --   -0.18570  -0.16622  -0.16410  -0.11750  -0.08736
  Beta virt. eigenvalues --    0.07242   0.08008   0.08272   0.08388   0.08957
  Beta virt. eigenvalues --    0.09601   0.10322   0.10899   0.11285   0.11749
  Beta virt. eigenvalues --    0.12240   0.12673   0.13609   0.14317   0.14621

 Mulliken charges and spin densities:
               1          2
     1  C    0.680495  -1.071464
     2  N    0.099289   0.128898
     3  C    0.040497  -0.522637
     4  C    0.032153  -0.050153
     5  O   -0.269561   0.027866
     6  O   -0.160825   0.023144
     7  C   -0.306549   0.241462
     8  C   -0.092978   0.156731
     9  C   -0.139934  -0.190227
    10  C   -1.271864   0.231421
    11  C    0.746629  -0.309823
    12  C   -0.152841   0.058079
    13  C    1.619956  -0.517382
    14  C   -1.067845   0.271955
    15  H   -0.628919   0.772558
    16  H    0.036984   0.126380
    17  H   -0.315914   0.457628
    18  H    0.240778  -0.017004
    19  H   -0.559400   0.762047
    20  H   -0.084731   0.378901
    21  H    0.140794  -0.027432
    22  H    0.040406   0.092788
    23  H    0.097360   0.006681
    24  H    0.158373  -0.040787
    25  H    0.117646   0.010368
 Sum of Mulliken charges =  -1.00000   1.00000

 Dipole moment (field-independent basis, Debye):
    X=             -3.6017    Y=             -0.4940    Z=             -0.5015  Tot=              3.6698
 Quadrupole moment (field-independent basis, Debye-Ang):
   XX=           -139.6995   YY=           -115.9027   ZZ=           -103.1493
   XY=              3.2511   XZ=             -2.6414   YZ=              4.3529

 Summary of Natural Population Analysis:

                                       Natural Population
                Natural  -----------------------------------------------
    Atom  No    Charge         Core      Valence    Rydberg      Total
 -----------------------------------------------------------------------
      C    1   -0.17387      0.99964     2.16537    0.00886     3.17387
      N    2   -0.25286      0.99965     2.74019    0.01302     3.75286
      C    3   -0.13071      0.99956     2.11856    0.01259     3.13071
      C    4    0.40903      0.99973     1.56568    0.02556     2.59097
      O    5   -0.30725      0.99987     3.30130    0.00608     4.30725
      O    6   -0.34201      0.99987     3.33534    0.00680     4.34201
      C    7    0.09313      0.99949     1.89646    0.01092     2.90687
      C    8   -0.09894      0.99953     2.09027    0.00914     3.09894
      C    9   -0.09485      0.99957     2.08638    0.00889     3.09485
      C   10   -0.10729      0.99955     2.09676    0.01098     3.10729
      C   11   -0.03401      0.99935     2.02616    0.00850     3.03401
      C   12   -0.10079      0.99951     2.09304    0.00824     3.10079
      C   13    0.00214      0.99939     1.99111    0.00736     2.99786
      C   14   -0.11540      0.99928     2.11264    0.00348     3.11540
      H   15    0.10059      0.00000     0.39747    0.00194     0.39941
      H   16    0.09354      0.00000     0.40482    0.00164     0.40646
      H   17    0.09364      0.00000     0.40490    0.00146     0.40636
      H   18    0.10808      0.00000     0.39075    0.00116     0.39192
      H   19    0.11683      0.00000     0.38101    0.00215     0.38317
      H   20    0.24053      0.00000     0.25418    0.00529     0.25947
      H   21    0.09927      0.00000     0.39967    0.00106     0.40073
      H   22    0.09473      0.00000     0.40451    0.00076     0.40527
      H   23    0.09801      0.00000     0.40126    0.00073     0.40199
      H   24    0.10412      0.00000     0.39444    0.00144     0.39588
      H   25    0.10433      0.00000     0.39473    0.00094     0.39567
 =======================================================================
   * Total *    0.00000     13.99400    35.84702    0.15898    50.00000

 Normal termination of Gaussian 16 at Thu Dec 10 09:55:13 2020.
