 Gaussian 16, Revision A.03,

 -----------------------------------------------------------
 # opt freq B3LYP/6-31G(d) empiricaldispersion=gd3bj scf=xqc
 -----------------------------------------------------------

 -------------------------------
 CID_130130200_JID_1518_neutraal
 -------------------------------
 Symbolic Z-matrix:
 Charge =  0 Multiplicity = 1

 SCF Done:  E(RB3LYP) =  -465.901562641     A.U. after   14 cycles
 SCF Done:  E(RB3LYP) =  -465.904583217     A.U. after   12 cycles
 SCF Done:  E(RB3LYP) =  -465.905404865     A.U. after   12 cycles
 SCF Done:  E(RB3LYP) =  -465.905654984     A.U. after   12 cycles
 SCF Done:  E(RB3LYP) =  -465.905739484     A.U. after   11 cycles
 SCF Done:  E(RB3LYP) =  -465.905776841     A.U. after   11 cycles
 SCF Done:  E(RB3LYP) =  -465.905781462     A.U. after   10 cycles
 SCF Done:  E(RB3LYP) =  -465.905782864     A.U. after    8 cycles
 SCF Done:  E(RB3LYP) =  -465.905783249     A.U. after    8 cycles
 Optimization completed.
    -- Stationary point found.
 Normal termination of Gaussian 16 at Tue Dec  8 19:42:31 2020.

 --------------------------------------------------------------------
 #N Geom=AllCheck Guess=TCheck SCRF=Check GenChk RB3LYP/6-31G(d) Freq
 --------------------------------------------------------------------

 Structure from the checkpoint file:  "JID_1518.chk"
 -------------------------------
 CID_130130200_JID_1518_neutraal
 -------------------------------
 Charge =  0 Multiplicity = 1

 SCF Done:  E(RB3LYP) =  -465.905783249     A.U. after    1 cycles

  Exact polarizability: 174.776   5.712 116.193  15.241  -1.427  74.408
 Approx polarizability: 254.530  12.383 166.510  27.415   1.685 111.345

                      1                      2                      3
                      A                      A                      A
 Frequencies --     37.4050                60.3745                95.4624
 Red. masses --      4.3236                 3.9002                 3.3432
 Frc consts  --      0.0036                 0.0084                 0.0180
 IR Inten    --      0.6000                 0.6987                 2.6163

                      4                      5                      6
                      A                      A                      A
 Frequencies --    114.0269               141.3703               147.4380
 Red. masses --      2.6031                 2.2928                 2.9157
 Frc consts  --      0.0199                 0.0270                 0.0373
 IR Inten    --      1.2936                 3.1508                 2.1024

                      7                      8                      9
                      A                      A                      A
 Frequencies --    176.2633               182.9147               222.4035
 Red. masses --      1.8235                 1.4016                 1.0713
 Frc consts  --      0.0334                 0.0276                 0.0312
 IR Inten    --      0.7264                 0.6905                 2.3292

                     10                     11                     12
                      A                      A                      A
 Frequencies --    264.0464               308.9283               336.0710
 Red. masses --      2.4580                 2.8608                 2.6579
 Frc consts  --      0.1010                 0.1609                 0.1769
 IR Inten    --      0.3363                 0.6229                 0.8736

                     13                     14                     15
                      A                      A                      A
 Frequencies --    364.3137               383.3917               418.8570
 Red. masses --      2.3116                 2.2243                 1.5061
 Frc consts  --      0.1808                 0.1926                 0.1557
 IR Inten    --      5.9905                18.8263                36.4570

                     16                     17                     18
                      A                      A                      A
 Frequencies --    441.7974               472.0720               516.8427
 Red. masses --      1.6976                 2.3735                 3.0781
 Frc consts  --      0.1952                 0.3116                 0.4845
 IR Inten    --     79.8850                 9.9561                 3.4630

                     19                     20                     21
                      A                      A                      A
 Frequencies --    589.7118               611.0911               720.8609
 Red. masses --      2.7865                 2.7618                 1.9222
 Frc consts  --      0.5709                 0.6077                 0.5885
 IR Inten    --      5.1060                 4.4118                 5.3864

                     22                     23                     24
                      A                      A                      A
 Frequencies --    801.3888               841.9169               868.8967
 Red. masses --      2.7214                 2.5547                 1.6833
 Frc consts  --      1.0298                 1.0669                 0.7488
 IR Inten    --      6.2800                 0.0903                 0.1266

                     25                     26                     27
                      A                      A                      A
 Frequencies --    907.0083               929.9439               942.7201
 Red. masses --      1.4258                 1.2947                 1.9474
 Frc consts  --      0.6911                 0.6597                 1.0197
 IR Inten    --      4.4102                40.6573                 6.7615

                     28                     29                     30
                      A                      A                      A
 Frequencies --    948.3045              1024.6775              1026.6073
 Red. masses --      1.5188                 1.3034                 1.3715
 Frc consts  --      0.8047                 0.8063                 0.8517
 IR Inten    --     17.7509                 4.8137                24.7750

                     31                     32                     33
                      A                      A                      A
 Frequencies --   1040.7321              1066.6025              1073.3027
 Red. masses --      1.2445                 1.8022                 1.7697
 Frc consts  --      0.7942                 1.2079                 1.2012
 IR Inten    --     31.9710                30.6886                 7.6863

                     34                     35                     36
                      A                      A                      A
 Frequencies --   1079.4492              1094.1335              1108.8099
 Red. masses --      1.5728                 2.5310                 1.7149
 Frc consts  --      1.0798                 1.7852                 1.2422
 IR Inten    --      9.1623                58.8342                 5.3392

                     37                     38                     39
                      A                      A                      A
 Frequencies --   1157.3833              1182.7993              1217.1611
 Red. masses --      3.0087                 2.0603                 1.2661
 Frc consts  --      2.3745                 1.6983                 1.1052
 IR Inten    --      1.5078                 4.0359                17.4857

                     40                     41                     42
                      A                      A                      A
 Frequencies --   1245.4770              1268.1698              1344.3482
 Red. masses --      1.8697                 1.4923                 1.2607
 Frc consts  --      1.7088                 1.4140                 1.3424
 IR Inten    --      1.8987                 0.3266                 1.8070

                     43                     44                     45
                      A                      A                      A
 Frequencies --   1354.9674              1382.4857              1412.9576
 Red. masses --      1.3407                 1.4277                 1.2267
 Frc consts  --      1.4502                 1.6077                 1.4430
 IR Inten    --      2.5914                 4.3835                 5.7366

                     46                     47                     48
                      A                      A                      A
 Frequencies --   1418.5600              1435.9462              1439.8458
 Red. masses --      1.4606                 1.3421                 1.2487
 Frc consts  --      1.7317                 1.6304                 1.5252
 IR Inten    --     25.8994                18.3918                29.9126

                     49                     50                     51
                      A                      A                      A
 Frequencies --   1442.5986              1482.5841              1505.5233
 Red. masses --      1.2501                 1.3001                 1.0483
 Frc consts  --      1.5328                 1.6837                 1.3999
 IR Inten    --     12.5618                 6.2090                 6.5044

                     52                     53                     54
                      A                      A                      A
 Frequencies --   1506.7277              1517.0282              1523.8836
 Red. masses --      1.0486                 1.0951                 1.0785
 Frc consts  --      1.4025                 1.4849                 1.4756
 IR Inten    --      2.2883                11.0341                 8.6544

                     55                     56                     57
                      A                      A                      A
 Frequencies --   1530.7817              1535.6207              1669.4817
 Red. masses --      1.0713                 1.0937                 6.7056
 Frc consts  --      1.4790                 1.5195                11.0116
 IR Inten    --      0.7280                 1.7132                 4.8733

                     58                     59                     60
                      A                      A                      A
 Frequencies --   1700.2155              1723.0409              3012.6467
 Red. masses --      4.7206                 4.9424                 1.0693
 Frc consts  --      8.0400                 8.6453                 5.7181
 IR Inten    --      9.2306                 1.0315                39.5465

                     61                     62                     63
                      A                      A                      A
 Frequencies --   3025.5339              3028.9322              3049.8489
 Red. masses --      1.0404                 1.0388                 1.0597
 Frc consts  --      5.6110                 5.6150                 5.8077
 IR Inten    --     40.1238                41.3040                30.0957

                     64                     65                     66
                      A                      A                      A
 Frequencies --   3074.7980              3074.9071              3091.1314
 Red. masses --      1.0972                 1.0979                 1.1015
 Frc consts  --      6.1116                 6.1159                 6.2010
 IR Inten    --      0.0783                38.5651                23.4796

                     67                     68                     69
                      A                      A                      A
 Frequencies --   3104.6942              3123.6856              3124.3506
 Red. masses --      1.0983                 1.1013                 1.0882
 Frc consts  --      6.2373                 6.3310                 6.2585
 IR Inten    --     70.3508                21.2227                21.6468

                     70                     71                     72
                      A                      A                      A
 Frequencies --   3126.5519              3167.6930              3170.3748
 Red. masses --      1.0971                 1.0832                 1.0655
 Frc consts  --      6.3187                 6.4036                 6.3097
 IR Inten    --     36.0359                13.3636                 1.7061

                     73                     74                     75
                      A                      A                      A
 Frequencies --   3183.2769              3251.8679              3732.7378
 Red. masses --      1.0867                 1.1165                 1.0658
 Frc consts  --      6.4879                 6.9564                 8.7491
 IR Inten    --     21.3244                16.5823                10.4979

 - Thermochemistry -
 -------------------
 Temperature   298.150 Kelvin.  Pressure   1.00000 Atm.
 Atom     1 has atomic number  6 and mass  12.00000

 Molecular mass:   152.12012 amu.
 Principal axes and moments of inertia in atomic units:
                           1         2         3
     Eigenvalues --  1060.515493304.783474002.51630
           X            0.99986   0.01484   0.00796
           Y           -0.01471   0.99976  -0.01649
           Z           -0.00820   0.01637   0.99983
 This molecule is an asymmetric top.
 Rotational symmetry number  1.
 Warning -- assumption of classical behavior for rotation
           may cause significant error
 Rotational temperatures (Kelvin)      0.08167     0.02621     0.02164
 Rotational constants (GHZ):           1.70176     0.54610     0.45090
 Zero-point vibrational energy     626249.6 (Joules/Mol)
                                  149.67724 (Kcal/Mol)
 Warning -- explicit consideration of  20 degrees of freedom as
           vibrations may cause significant error
 Vibrational temperatures:     53.82    86.87   137.35   164.06   203.40
          (Kelvin)            212.13   253.60   263.17   319.99   379.90
                              444.48   483.53   524.17   551.62   602.64
                              635.65   679.21   743.62   848.46   879.22
                             1037.16  1153.02  1211.33  1250.15  1304.98
                             1337.98  1356.36  1364.40  1474.28  1477.06
                             1497.38  1534.60  1544.24  1553.09  1574.21
                             1595.33  1665.22  1701.78  1751.22  1791.96
                             1824.61  1934.22  1949.50  1989.09  2032.93
                             2040.99  2066.01  2071.62  2075.58  2133.11
                             2166.11  2167.85  2182.67  2192.53  2202.45
                             2209.42  2402.01  2446.23  2479.07  4334.53
                             4353.07  4357.96  4388.05  4423.95  4424.11
                             4447.45  4466.96  4494.29  4495.24  4498.41
                             4557.60  4561.46  4580.03  4678.71  5370.58

 Zero-point correction=                           0.238526 (Hartree/Particle)
 Thermal correction to Energy=                    0.251680
 Thermal correction to Enthalpy=                  0.252624
 Thermal correction to Gibbs Free Energy=         0.198782
 Sum of electronic and zero-point Energies=           -465.667257
 Sum of electronic and thermal Energies=              -465.654103
 Sum of electronic and thermal Enthalpies=            -465.653159
 Sum of electronic and thermal Free Energies=         -465.707001

                     E (Thermal)             CV                S
                      KCal/Mol        Cal/Mol-Kelvin    Cal/Mol-Kelvin
 Total                  157.931             47.953            113.320
 Electronic               0.000              0.000              0.000
 Translational            0.889              2.981             40.968
 Rotational               0.889              2.981             31.018
 Vibrational            156.154             41.992             41.334
 Vibration     1          0.594              1.982              5.392
 Vibration     2          0.597              1.973              4.445
 Vibration     3          0.603              1.952              3.545
 Vibration     4          0.607              1.938              3.199
 Vibration     5          0.615              1.912              2.785
 Vibration     6          0.617              1.905              2.705
 Vibration     7          0.628              1.872              2.368
 Vibration     8          0.630              1.863              2.298
 Vibration     9          0.648              1.807              1.939
 Vibration    10          0.671              1.739              1.635
 Vibration    11          0.698              1.657              1.368
 Vibration    12          0.717              1.603              1.231
 Vibration    13          0.738              1.546              1.104
 Vibration    14          0.753              1.506              1.026
 Vibration    15          0.782              1.429              0.896
 Vibration    16          0.802              1.379              0.821
 Vibration    17          0.829              1.312              0.732
 Vibration    18          0.872              1.213              0.617
 Vibration    19          0.947              1.054              0.468
 Vibration    20          0.970              1.008              0.431

                           ! Non-Optimized Parameters !
 Normal termination of Gaussian 16 at Tue Dec  8 19:48:05 2020.

 ----------------------------------------------------------------------
 # B3LYP/6-311++G(d,p) empiricaldispersion=gd3bj scf=xqc pop=npa geom=c
 heck
 ----------------------------------------------------------------------

 ---------------------------------------
 CID_130130200_JID_1518_Energie_neutraal
 ---------------------------------------
 Structure from the checkpoint file:  "JID_1518.chk"
 Charge =  0 Multiplicity = 1

 SCF Done:  E(RB3LYP) =  -466.047386289     A.U. after   14 cycles
 Normal termination of Gaussian 16 at Tue Dec  8 19:50:46 2020.

 ----------------------------------------------------------------------
 # B3LYP/6-311++G(d,p) empiricaldispersion=gd3bj scf=xqc pop=npa geom=c
 heck
 ----------------------------------------------------------------------

 -------------------------------------
 CID_130130200_JID_1518_Energie_kation
 -------------------------------------
 Structure from the checkpoint file:  "JID_1518.chk"
 Charge =  1 Multiplicity = 2

 SCF Done:  E(UB3LYP) =  -465.771255919     A.U. after   22 cycles
 Normal termination of Gaussian 16 at Tue Dec  8 19:55:16 2020.
 Gaussian 16:  ES64L-G16RevA.03 25-Dec-2016

 ----------------------------------------------------------------------
 # B3LYP/6-311++G(d,p) empiricaldispersion=gd3bj scf=xqc pop=npa geom=c
 heck
 ----------------------------------------------------------------------

 ------------------------------------
 CID_130130200_JID_1518_Energie_anion
 ------------------------------------
 Structure from the checkpoint file:  "JID_1518.chk"
 Charge = -1 Multiplicity = 2

                         Standard orientation:
 ---------------------------------------------------------------------
 Center     Atomic      Atomic             Coordinates (Angstroms)
 Number     Number       Type             X           Y           Z
 ---------------------------------------------------------------------
      1          6           0        2.029709    2.063476    0.038363
      2          6           0        1.267198    0.800636    0.342555
      3          6           0       -0.033426    0.671649   -0.002911
      4          6           0       -0.857194   -0.501650    0.214064
      5          6           0       -2.186170   -0.625294   -0.027650
      6          6           0       -2.872508   -1.960895    0.134448
      7          6           0       -3.064154    0.466609   -0.477374
      8          6           0       -3.072368    1.726523   -0.022765
      9          6           0        2.069164   -0.296232    1.014026
     10          6           0        2.573489   -1.344757    0.003586
     11          8           0        3.268184   -0.769483   -1.095737
     12          1           0        1.430304    2.779143   -0.533227
     13          1           0        2.944507    1.836725   -0.524384
     14          1           0        2.356112    2.554842    0.966235
     15          1           0       -0.512360    1.512468   -0.498456
     16          1           0       -0.347072   -1.394379    0.569689
     17          1           0       -3.674933   -1.908482    0.882215
     18          1           0       -3.343497   -2.276864   -0.806924
     19          1           0       -2.170027   -2.742143    0.439824
     20          1           0       -3.818870    0.180161   -1.213069
     21          1           0       -3.777466    2.458526   -0.406397
     22          1           0       -2.394838    2.059142    0.757816
     23          1           0        2.937189    0.146536    1.516196
     24          1           0        1.480192   -0.809695    1.783851
     25          1           0        3.286018   -2.018713    0.489685
     26          1           0        1.726778   -1.952059   -0.350570
     27          1           0        2.610053   -0.269735   -1.604641
 ---------------------------------------------------------------------

 SCF Done:  E(UB3LYP) =  -466.041719278     A.U. after   32 cycles

 The electronic state is 2-A.
 Alpha  occ. eigenvalues --  -19.00623 -10.09430 -10.03816 -10.03794 -10.03791
 Alpha  occ. eigenvalues --  -10.02810 -10.02215 -10.01946 -10.01484 -10.01385
 Alpha  occ. eigenvalues --  -10.00994  -0.90685  -0.68767  -0.66723  -0.60651
 Alpha  occ. eigenvalues --   -0.60136  -0.58030  -0.51982  -0.49942  -0.46061
 Alpha  occ. eigenvalues --   -0.39581  -0.38924  -0.37776  -0.33873  -0.32592
 Alpha  occ. eigenvalues --   -0.31691  -0.30698  -0.30146  -0.28550  -0.27506
 Alpha  occ. eigenvalues --   -0.26906  -0.26307  -0.24744  -0.24214  -0.22679
 Alpha  occ. eigenvalues --   -0.20940  -0.20669  -0.18321  -0.17107  -0.16007
 Alpha  occ. eigenvalues --   -0.13443  -0.06835   0.05396
 Alpha virt. eigenvalues --    0.08076   0.08984   0.09105   0.10184   0.10439
 Alpha virt. eigenvalues --    0.11045   0.11953   0.12127   0.12631   0.13032
 Alpha virt. eigenvalues --    0.13214   0.13466   0.14537   0.15214   0.15571

  Beta  occ. eigenvalues --  -19.00618 -10.09398 -10.03821 -10.03814 -10.03806
  Beta  occ. eigenvalues --  -10.02780 -10.01924 -10.01674 -10.01372 -10.01238
  Beta  occ. eigenvalues --  -10.00859  -0.90668  -0.68360  -0.66310  -0.60495
  Beta  occ. eigenvalues --   -0.59853  -0.57827  -0.51823  -0.49837  -0.45525
  Beta  occ. eigenvalues --   -0.39395  -0.38694  -0.37534  -0.33713  -0.32412
  Beta  occ. eigenvalues --   -0.31475  -0.30556  -0.29995  -0.28319  -0.27365
  Beta  occ. eigenvalues --   -0.26802  -0.26183  -0.24600  -0.24153  -0.22554
  Beta  occ. eigenvalues --   -0.20777  -0.20521  -0.18100  -0.16559  -0.15459
  Beta  occ. eigenvalues --   -0.12432  -0.05348
  Beta virt. eigenvalues --    0.08213   0.08775   0.09090   0.10116   0.10223
  Beta virt. eigenvalues --    0.10904   0.11169   0.12129   0.12281   0.12661
  Beta virt. eigenvalues --    0.13037   0.13263   0.13882   0.14909   0.15287

 Mulliken charges and spin densities:
               1          2
     1  C   -0.497713  -0.212857
     2  C    0.356745   0.424499
     3  C   -0.068664  -0.134133
     4  C   -0.211156   0.079281
     5  C    0.207895   0.251339
     6  C   -0.572845  -0.036028
     7  C   -0.010637  -0.038890
     8  C   -0.701183   0.223642
     9  C   -0.146007  -0.173504
    10  C    0.309073  -0.779054
    11  O   -0.292852   0.012334
    12  H    0.147033  -0.011746
    13  H    0.113427   0.007283
    14  H   -0.031746   0.160213
    15  H    0.091877  -0.002030
    16  H    0.042173  -0.054989
    17  H    0.097434   0.024492
    18  H    0.083351   0.026788
    19  H    0.094601   0.034532
    20  H    0.108168   0.035579
    21  H    0.061418   0.001485
    22  H    0.107904   0.005544
    23  H   -0.077465   0.234912
    24  H   -0.332690   0.492392
    25  H   -0.284659   0.432602
    26  H    0.160646  -0.010703
    27  H    0.245871   0.007016
 Sum of Mulliken charges =  -1.00000   1.00000

 Dipole moment (field-independent basis, Debye):
    X=             -0.5481    Y=              0.2431    Z=             -2.1002  Tot=              2.1841
 Quadrupole moment (field-independent basis, Debye-Ang):
   XX=           -123.6462   YY=            -91.3282   ZZ=            -87.9440
   XY=              7.6883   XZ=             -1.8562   YZ=              0.6885

 Summary of Natural Population Analysis:

                                       Natural Population
                Natural  -----------------------------------------------
    Atom  No    Charge         Core      Valence    Rydberg      Total
 -----------------------------------------------------------------------
      C    1   -0.29626      0.99963     2.29098    0.00565     3.29626
      C    2    0.02628      0.99951     1.96266    0.01155     2.97372
      C    3   -0.11869      0.99946     2.10849    0.01074     3.11869
      C    4   -0.09157      0.99947     2.08178    0.01032     3.09157
      C    5    0.01589      0.99950     1.97483    0.00977     2.98411
      C    6   -0.28785      0.99964     2.28339    0.00482     3.28785
      C    7   -0.10277      0.99955     2.09268    0.01054     3.10277
      C    8   -0.14993      0.99958     2.14209    0.00825     3.14993
      C    9   -0.22004      0.99959     2.21046    0.00999     3.22004
      C   10   -0.00286      0.99960     1.98996    0.01330     3.00286
      O   11   -0.37555      0.99990     3.36920    0.00645     4.37555
      H   12    0.09559      0.00000     0.40365    0.00076     0.40441
      H   13    0.09881      0.00000     0.40001    0.00118     0.40119
      H   14    0.09745      0.00000     0.40140    0.00115     0.40255
      H   15    0.09681      0.00000     0.40186    0.00134     0.40319
      H   16    0.08553      0.00000     0.41248    0.00198     0.41447
      H   17    0.09573      0.00000     0.40332    0.00095     0.40427
      H   18    0.09384      0.00000     0.40516    0.00100     0.40616
      H   19    0.09585      0.00000     0.40348    0.00066     0.40415
      H   20    0.08361      0.00000     0.41470    0.00169     0.41639
      H   21    0.08095      0.00000     0.41811    0.00094     0.41905
      H   22    0.08928      0.00000     0.40984    0.00088     0.41072
      H   23    0.09613      0.00000     0.40249    0.00138     0.40387
      H   24    0.10801      0.00000     0.38973    0.00226     0.39199
      H   25    0.08034      0.00000     0.41799    0.00167     0.41966
      H   26    0.07588      0.00000     0.42285    0.00127     0.42412
      H   27    0.22953      0.00000     0.26774    0.00273     0.27047
 =======================================================================
   * Total *   -0.00000     10.99545    30.88136    0.12320    42.00000

 Normal termination of Gaussian 16 at Tue Dec  8 20:01:04 2020.
