 Gaussian 16, Revision A.03,

 -----------------------------------------------------------
 # opt freq B3LYP/6-31G(d) empiricaldispersion=gd3bj scf=xqc
 -----------------------------------------------------------

 ------------------------------
 CID_151404059_JID_143_neutraal
 ------------------------------
 Symbolic Z-matrix:
 Charge =  0 Multiplicity = 1

 SCF Done:  E(RB3LYP) =  -524.156056074     A.U. after   16 cycles
 SCF Done:  E(RB3LYP) =  -524.161408073     A.U. after   16 cycles
 SCF Done:  E(RB3LYP) =  -524.162525375     A.U. after   14 cycles
 SCF Done:  E(RB3LYP) =  -524.163203854     A.U. after   13 cycles
 SCF Done:  E(RB3LYP) =  -524.163329658     A.U. after   13 cycles
 SCF Done:  E(RB3LYP) =  -524.163384285     A.U. after   13 cycles
 SCF Done:  E(RB3LYP) =  -524.163406399     A.U. after   10 cycles
 SCF Done:  E(RB3LYP) =  -524.163412238     A.U. after   10 cycles
 SCF Done:  E(RB3LYP) =  -524.163413877     A.U. after    9 cycles
 SCF Done:  E(RB3LYP) =  -524.163414200     A.U. after    8 cycles
 Optimization completed.
    -- Stationary point found.
 Normal termination of Gaussian 16 at Tue Dec  8 10:16:24 2020.

 --------------------------------------------------------------------
 #N Geom=AllCheck Guess=TCheck SCRF=Check GenChk RB3LYP/6-31G(d) Freq
 --------------------------------------------------------------------

 Structure from the checkpoint file:  "JID_143.chk"
 ------------------------------
 CID_151404059_JID_143_neutraal
 ------------------------------
 Charge =  0 Multiplicity = 1

 SCF Done:  E(RB3LYP) =  -524.163414200     A.U. after    1 cycles

  Exact polarizability: 108.445 -12.546  78.127  -0.001   0.009  34.605
 Approx polarizability: 167.552 -43.211 164.693   0.002   0.030  50.849

                      1                      2                      3
                      A                      A                      A
 Frequencies --     66.9451                87.5750               104.3953
 Red. masses --      4.8070                 4.7593                 7.3765
 Frc consts  --      0.0127                 0.0215                 0.0474
 IR Inten    --      3.6645                 0.1492                 1.5090

                      4                      5                      6
                      A                      A                      A
 Frequencies --    179.7059               233.6780               234.4311
 Red. masses --      1.6104                 2.2859                 4.0761
 Frc consts  --      0.0306                 0.0735                 0.1320
 IR Inten    --      0.4177                 2.3221                 0.2651

                      7                      8                      9
                      A                      A                      A
 Frequencies --    392.6319               394.6073               508.6657
 Red. masses --     11.3233                 7.0039                10.0565
 Frc consts  --      1.0285                 0.6426                 1.5331
 IR Inten    --      0.0034                 3.8214                 1.1171

                     10                     11                     12
                      A                      A                      A
 Frequencies --    525.0257               545.0835               648.5710
 Red. masses --     13.8161                 6.2191                12.1975
 Frc consts  --      2.2439                 1.0887                 3.0230
 IR Inten    --      8.3685                 9.5129                 0.0072

                     13                     14                     15
                      A                      A                      A
 Frequencies --    674.6320               700.7766               742.1764
 Red. masses --      7.9390                 1.9659                 2.2359
 Frc consts  --      2.1289                 0.5688                 0.7256
 IR Inten    --      7.9152                 0.2632                48.4584

                     16                     17                     18
                      A                      A                      A
 Frequencies --    780.9987               948.5673              1008.1197
 Red. masses --      7.5998                11.6234                 4.7635
 Frc consts  --      2.7312                 6.1620                 2.8524
 IR Inten    --      3.4149                17.8530                 0.9710

                     19                     20                     21
                      A                      A                      A
 Frequencies --   1033.4099              1115.4364              1171.6511
 Red. masses --      7.3361                 3.5091                 2.5268
 Frc consts  --      4.6159                 2.5724                 2.0437
 IR Inten    --     21.9333                36.0590                68.1761

                     22                     23                     24
                      A                      A                      A
 Frequencies --   1186.8971              1220.6908              1310.7463
 Red. masses --      1.2593                 1.5803                 4.5644
 Frc consts  --      1.0452                 1.3874                 4.6203
 IR Inten    --      0.6824                 7.4955                37.8886

                     25                     26                     27
                      A                      A                      A
 Frequencies --   1369.3523              1470.6878              1506.9705
 Red. masses --     11.3728                 1.7623                 3.6115
 Frc consts  --     12.5645                 2.2459                 4.8323
 IR Inten    --    105.7852               211.7803               157.0511

                     28                     29                     30
                      A                      A                      A
 Frequencies --   1522.1512              1531.8197              1570.4556
 Red. masses --      1.0475                 1.0520                 4.0598
 Frc consts  --      1.4300                 1.4544                 5.8994
 IR Inten    --      6.9377                37.0060                67.7871

                     31                     32                     33
                      A                      A                      A
 Frequencies --   1645.5371              2290.1977              3038.4189
 Red. masses --      8.2278                13.9969                 1.0344
 Frc consts  --     13.1265                43.2540                 5.6265
 IR Inten    --    314.9612               659.6930                37.8673

                     34                     35                     36
                      A                      A                      A
 Frequencies --   3102.2778              3176.0931              3304.0064
 Red. masses --      1.1076                 1.1006                 1.0980
 Frc consts  --      6.2803                 6.5411                 7.0621
 IR Inten    --     37.0546                17.9903                 0.4755

 - Thermochemistry -
 -------------------
 Temperature   298.150 Kelvin.  Pressure   1.00000 Atm.
 Atom     1 has atomic number  6 and mass  12.00000

 Molecular mass:   140.03343 amu.
 Principal axes and moments of inertia in atomic units:
                           1         2         3
     Eigenvalues --   623.080552210.162322821.67494
           X            0.99929   0.03756  -0.00002
           Y           -0.03756   0.99929  -0.00002
           Z            0.00002   0.00002   1.00000
 This molecule is an asymmetric top.
 Rotational symmetry number  1.
 Warning -- assumption of classical behavior for rotation
           may cause significant error
 Rotational temperatures (Kelvin)      0.13901     0.03919     0.03070
 Rotational constants (GHZ):           2.89648     0.81657     0.63960
 Zero-point vibrational energy     247288.4 (Joules/Mol)
                                   59.10334 (Kcal/Mol)
 Warning -- explicit consideration of  11 degrees of freedom as
           vibrations may cause significant error
 Vibrational temperatures:     96.32   126.00   150.20   258.56   336.21
          (Kelvin)            337.29   564.91   567.75   731.86   755.39
                              784.25   933.15   970.64  1008.26  1067.83
                             1123.68  1364.78  1450.46  1486.85  1604.86
                             1685.74  1707.68  1756.30  1885.87  1970.19
                             2115.99  2168.19  2190.04  2203.95  2259.54
                             2367.56  3295.08  4371.61  4463.49  4569.69
                             4753.73

 Zero-point correction=                           0.094187 (Hartree/Particle)
 Thermal correction to Energy=                    0.102949
 Thermal correction to Enthalpy=                  0.103893
 Thermal correction to Gibbs Free Energy=         0.059393
 Sum of electronic and zero-point Energies=           -524.069227
 Sum of electronic and thermal Energies=              -524.060465
 Sum of electronic and thermal Enthalpies=            -524.059521
 Sum of electronic and thermal Free Energies=         -524.104022

                     E (Thermal)             CV                S
                      KCal/Mol        Cal/Mol-Kelvin    Cal/Mol-Kelvin
 Total                   64.601             30.598             93.659
 Electronic               0.000              0.000              0.000
 Translational            0.889              2.981             40.722
 Rotational               0.889              2.981             29.742
 Vibrational             62.824             24.636             23.195
 Vibration     1          0.598              1.970              4.241
 Vibration     2          0.601              1.958              3.714
 Vibration     3          0.605              1.946              3.371
 Vibration     4          0.629              1.867              2.331
 Vibration     5          0.654              1.789              1.851
 Vibration     6          0.654              1.788              1.845
 Vibration     7          0.760              1.486              0.990
 Vibration     8          0.762              1.482              0.983
 Vibration     9          0.864              1.231              0.637
 Vibration    10          0.880              1.195              0.598
 Vibration    11          0.900              1.150              0.554

                           ! Non-Optimized Parameters !
 Normal termination of Gaussian 16 at Tue Dec  8 10:18:05 2020.

 ----------------------------------------------------------------------
 # B3LYP/6-311++G(d,p) empiricaldispersion=gd3bj scf=xqc pop=npa geom=c
 heck
 ----------------------------------------------------------------------

 --------------------------------------
 CID_151404059_JID_143_Energie_neutraal
 --------------------------------------
 Structure from the checkpoint file:  "JID_143.chk"
 Charge =  0 Multiplicity = 1

 SCF Done:  E(RB3LYP) =  -524.308300747     A.U. after   15 cycles
 Normal termination of Gaussian 16 at Tue Dec  8 10:18:40 2020.

 ----------------------------------------------------------------------
 # B3LYP/6-311++G(d,p) empiricaldispersion=gd3bj scf=xqc pop=npa geom=c
 heck
 ----------------------------------------------------------------------

 ------------------------------------
 CID_151404059_JID_143_Energie_kation
 ------------------------------------
 Structure from the checkpoint file:  "JID_143.chk"
 Charge =  1 Multiplicity = 2

 SCF Done:  E(UB3LYP) =  -523.980191663     A.U. after   21 cycles
 Normal termination of Gaussian 16 at Tue Dec  8 10:19:58 2020.
 Gaussian 16:  ES64L-G16RevA.03 25-Dec-2016

 ----------------------------------------------------------------------
 # B3LYP/6-311++G(d,p) empiricaldispersion=gd3bj scf=xqc pop=npa geom=c
 heck
 ----------------------------------------------------------------------

 -----------------------------------
 CID_151404059_JID_143_Energie_anion
 -----------------------------------
 Structure from the checkpoint file:  "JID_143.chk"
 Charge = -1 Multiplicity = 2

                         Standard orientation:
 ---------------------------------------------------------------------
 Center     Atomic      Atomic             Coordinates (Angstroms)
 Number     Number       Type             X           Y           Z
 ---------------------------------------------------------------------
      1          6           0       -2.814692   -1.563876    0.000745
      2          8           0       -2.649737   -0.148703   -0.000893
      3          6           0       -1.385263    0.299698   -0.000350
      4          7           0       -1.194469    1.605755    0.000076
      5          8           0        0.208379    1.755484    0.000255
      6          6           0        0.776817    0.544870    0.000138
      7          6           0       -0.167438   -0.445334   -0.000373
      8          7           0        2.165395    0.576807    0.000415
      9          7           0        2.740301   -0.524369   -0.000035
     10          7           0        3.392258   -1.456401   -0.000261
     11          1           0       -3.890940   -1.737836    0.000924
     12          1           0       -2.371072   -2.013206    0.897652
     13          1           0       -2.371099   -2.015272   -0.895150
     14          1           0       -0.016966   -1.512635   -0.000655
 ---------------------------------------------------------------------

 SCF Done:  E(UB3LYP) =  -524.307853578     A.U. after   33 cycles
 SCF Done:  E(UB3LYP) =  -524.313335758     a.u. after   12 cycles

 The electronic state is 2-A.
 Alpha  occ. eigenvalues --  -19.08553 -19.05752 -14.30506 -14.23123 -14.22626
 Alpha  occ. eigenvalues --  -14.22567 -10.15761 -10.15066 -10.12265 -10.06011
 Alpha  occ. eigenvalues --   -1.03010  -0.99417  -0.97726  -0.84829  -0.74864
 Alpha  occ. eigenvalues --   -0.67920  -0.61654  -0.55117  -0.48516  -0.46158
 Alpha  occ. eigenvalues --   -0.40139  -0.38468  -0.37139  -0.36949  -0.35748
 Alpha  occ. eigenvalues --   -0.33928  -0.33423  -0.30992  -0.28140  -0.25374
 Alpha  occ. eigenvalues --   -0.25288  -0.19722  -0.18928  -0.18707  -0.14919
 Alpha  occ. eigenvalues --   -0.10291   0.04726
 Alpha virt. eigenvalues --    0.06396   0.09396   0.09527   0.10613   0.11837
 Alpha virt. eigenvalues --    0.12864   0.14306   0.15376   0.16274   0.17057
 Alpha virt. eigenvalues --    0.17752   0.17916   0.18508   0.19287   0.19559

  Beta  occ. eigenvalues --  -19.08556 -19.05746 -14.29860 -14.23128 -14.22633
  Beta  occ. eigenvalues --  -14.21955 -10.15640 -10.15063 -10.12209 -10.06009
  Beta  occ. eigenvalues --   -1.02976  -0.98404  -0.97673  -0.84360  -0.74830
  Beta  occ. eigenvalues --   -0.67796  -0.61565  -0.54706  -0.48359  -0.46045
  Beta  occ. eigenvalues --   -0.39870  -0.38362  -0.36719  -0.36684  -0.33752
  Beta  occ. eigenvalues --   -0.33680  -0.33232  -0.29490  -0.28050  -0.25333
  Beta  occ. eigenvalues --   -0.25218  -0.19375  -0.18788  -0.17390  -0.14929
  Beta  occ. eigenvalues --   -0.10205
  Beta virt. eigenvalues --    0.07551   0.09915   0.10220   0.11312   0.11603
  Beta virt. eigenvalues --    0.12356   0.13257   0.14963   0.15570   0.16250
  Beta virt. eigenvalues --    0.16831   0.17571   0.17986   0.18530   0.19488

 Mulliken charges and spin densities:
               1          2
     1  C    0.973597  -1.267875
     2  O   -0.225800   0.067430
     3  C   -0.244615   0.040367
     4  N   -0.422411   0.002196
     5  O    0.113222   0.005784
     6  C   -0.796379   0.051985
     7  C    1.017416  -0.243287
     8  N   -0.453564   0.141204
     9  N    0.563371   0.034627
    10  N   -0.421488   0.370798
    11  H   -0.584199   0.752378
    12  H   -0.236475   0.387687
    13  H   -0.237510   0.388710
    14  H   -0.045165   0.267996
 Sum of Mulliken charges =  -1.00000   1.00000

 Dipole moment (field-independent basis, Debye):
    X=              0.1731    Y=              1.6414    Z=              0.0005  Tot=              1.6505
 Quadrupole moment (field-independent basis, Debye-Ang):
   XX=           -113.7858   YY=            -91.9613   ZZ=            -67.0288
   XY=             -0.9410   XZ=             -0.0008   YZ=             -0.0046

 Summary of Natural Population Analysis:

                                       Natural Population
                Natural  -----------------------------------------------
    Atom  No    Charge         Core      Valence    Rydberg      Total
 -----------------------------------------------------------------------
      C    1   -0.09945      0.99960     2.09065    0.00919     3.09945
      O    2   -0.26667      0.99984     3.25734    0.00949     4.26667
      C    3    0.24284      0.99951     1.73859    0.01905     2.75716
      N    4   -0.12664      0.99967     2.61410    0.01287     3.62664
      O    5   -0.17112      0.99985     3.16279    0.00848     4.17112
      C    6    0.27058      0.99947     1.71180    0.01816     2.72942
      C    7   -0.24404      0.99945     2.23625    0.00835     3.24404
      N    8   -0.21131      0.99963     2.69781    0.01386     3.71131
      N    9    0.17511      0.99971     2.31043    0.01475     3.32489
      N   10    0.04314      0.99982     2.44426    0.01279     3.45686
      H   11    0.09492      0.00000     0.40335    0.00173     0.40508
      H   12    0.08654      0.00000     0.41175    0.00171     0.41346
      H   13    0.08654      0.00000     0.41175    0.00171     0.41346
      H   14    0.11957      0.00000     0.37928    0.00115     0.38043
 =======================================================================
   * Total *    0.00000      9.99654    25.87016    0.13330    36.00000

 Normal termination of Gaussian 16 at Tue Dec  8 10:36:51 2020.
