 Gaussian 16, Revision A.03,

 -----------------------------------------------------------
 # opt freq B3LYP/6-31G(d) empiricaldispersion=gd3bj scf=xqc
 -----------------------------------------------------------

 -----------------------------
 CID_3792516_JID_8354_neutraal
 -----------------------------
 Symbolic Z-matrix:
 Charge =  0 Multiplicity = 1

 SCF Done:  E(RB3LYP) =  -880.993894552     A.U. after   14 cycles
 SCF Done:  E(RB3LYP) =  -880.999335782     A.U. after   12 cycles
 SCF Done:  E(RB3LYP) =  -881.000026938     A.U. after   11 cycles
 SCF Done:  E(RB3LYP) =  -881.000158613     A.U. after   12 cycles
 SCF Done:  E(RB3LYP) =  -881.000472994     A.U. after   10 cycles
 SCF Done:  E(RB3LYP) =  -881.000511229     A.U. after   10 cycles
 SCF Done:  E(RB3LYP) =  -881.000524605     A.U. after   10 cycles
 SCF Done:  E(RB3LYP) =  -881.000528384     A.U. after    8 cycles
 SCF Done:  E(RB3LYP) =  -881.000530200     A.U. after    8 cycles
 SCF Done:  E(RB3LYP) =  -881.000531559     A.U. after    7 cycles
 SCF Done:  E(RB3LYP) =  -881.000531782     A.U. after    7 cycles
 Optimization completed.
    -- Stationary point found.
 Normal termination of Gaussian 16 at Mon Dec 14 13:20:31 2020.

 --------------------------------------------------------------------
 #N Geom=AllCheck Guess=TCheck SCRF=Check GenChk RB3LYP/6-31G(d) Freq
 --------------------------------------------------------------------

 Structure from the checkpoint file:  "JID_8354.chk"
 -----------------------------
 CID_3792516_JID_8354_neutraal
 -----------------------------
 Charge =  0 Multiplicity = 1

 SCF Done:  E(RB3LYP) =  -881.000531782     A.U. after    1 cycles

  Exact polarizability: 152.294  -4.782 149.423  10.683   1.243 137.590
 Approx polarizability: 199.859 -15.198 211.188  29.736  -7.734 213.990

                      1                      2                      3
                      A                      A                      A
 Frequencies --     33.2955                57.1470                61.1566
 Red. masses --      4.0641                 5.5300                 6.9263
 Frc consts  --      0.0027                 0.0106                 0.0153
 IR Inten    --      3.2441                 3.7928                 0.0000

                      4                      5                      6
                      A                      A                      A
 Frequencies --     92.3719               111.7930               113.7553
 Red. masses --      4.9344                 3.6070                 4.9976
 Frc consts  --      0.0248                 0.0266                 0.0381
 IR Inten    --      0.0000                12.2890                 0.0000

                      7                      8                      9
                      A                      A                      A
 Frequencies --    122.9665               157.8395               169.2082
 Red. masses --      3.4370                 5.1896                 3.5270
 Frc consts  --      0.0306                 0.0762                 0.0595
 IR Inten    --      0.0000                11.1996                 9.2476

                     10                     11                     12
                      A                      A                      A
 Frequencies --    182.7156               195.2252               215.9256
 Red. masses --      3.3387                 2.1618                 1.0553
 Frc consts  --      0.0657                 0.0485                 0.0290
 IR Inten    --      0.0000                 1.1112                 0.0000

                     13                     14                     15
                      A                      A                      A
 Frequencies --    218.8654               227.9498               247.4118
 Red. masses --      1.1226                 3.9365                 3.1666
 Frc consts  --      0.0317                 0.1205                 0.1142
 IR Inten    --      0.0849                 0.0000                 0.0000

                     16                     17                     18
                      A                      A                      A
 Frequencies --    267.4271               316.5952               337.1880
 Red. masses --      3.4002                 2.5057                 2.7654
 Frc consts  --      0.1433                 0.1480                 0.1852
 IR Inten    --     14.0046                 0.0000                 4.4720

                     19                     20                     21
                      A                      A                      A
 Frequencies --    358.7833               359.9329               413.7615
 Red. masses --      3.1654                 3.3777                 2.3908
 Frc consts  --      0.2401                 0.2578                 0.2412
 IR Inten    --      0.0000                 1.9698                 0.0000

                     22                     23                     24
                      A                      A                      A
 Frequencies --    416.4639               462.2227               462.5818
 Red. masses --      2.2177                 2.7561                 2.4169
 Frc consts  --      0.2266                 0.3469                 0.3047
 IR Inten    --      7.5947                20.2842                 0.0001

                     25                     26                     27
                      A                      A                      A
 Frequencies --    480.6674               518.0077               537.5572
 Red. masses --      2.6031                 2.6192                 2.5646
 Frc consts  --      0.3544                 0.4141                 0.4366
 IR Inten    --      1.6364                 0.0000                 0.0000

                     28                     29                     30
                      A                      A                      A
 Frequencies --    561.4834               603.4984               607.6283
 Red. masses --      2.2341                 3.8915                 3.1010
 Frc consts  --      0.4150                 0.8351                 0.6746
 IR Inten    --     15.7561                24.9708                 0.0000

                     31                     32                     33
                      A                      A                      A
 Frequencies --    609.5277               613.3088               712.5017
 Red. masses --      2.8662                 3.4690                 3.0000
 Frc consts  --      0.6274                 0.7688                 0.8973
 IR Inten    --     26.5405                 0.0000                 0.0000

                     34                     35                     36
                      A                      A                      A
 Frequencies --    714.2582               817.2682               822.0428
 Red. masses --      3.0971                 2.3861                 2.1890
 Frc consts  --      0.9309                 0.9390                 0.8716
 IR Inten    --      5.0777                 6.7568                 0.0000

                     37                     38                     39
                      A                      A                      A
 Frequencies --    892.3588               901.1928               926.0093
 Red. masses --      2.0983                 2.6098                 2.1629
 Frc consts  --      0.9845                 1.2488                 1.0928
 IR Inten    --     29.2000                 0.0000                 0.0000

                     40                     41                     42
                      A                      A                      A
 Frequencies --    937.2523               967.0116               998.6030
 Red. masses --      2.4402                 2.3167                 2.2854
 Frc consts  --      1.2630                 1.2764                 1.3427
 IR Inten    --      5.3388                 0.0000                 3.9473

                     43                     44                     45
                      A                      A                      A
 Frequencies --   1017.3219              1017.6328              1043.5610
 Red. masses --      1.7511                 1.9238                 2.3899
 Frc consts  --      1.0677                 1.1738                 1.5334
 IR Inten    --      0.0000                 7.3747                74.0600

                     46                     47                     48
                      A                      A                      A
 Frequencies --   1062.7170              1068.9267              1073.1567
 Red. masses --      2.8968                 2.1523                 1.7154
 Frc consts  --      1.9275                 1.4490                 1.1640
 IR Inten    --      0.0000                38.9238                 9.3722

                     49                     50                     51
                      A                      A                      A
 Frequencies --   1073.8796              1081.7027              1111.0100
 Red. masses --      1.7477                 2.0211                 2.2287
 Frc consts  --      1.1875                 1.3933                 1.6208
 IR Inten    --      0.0000                 0.0000                54.6229

                     52                     53                     54
                      A                      A                      A
 Frequencies --   1119.1317              1147.4713              1152.4295
 Red. masses --      2.1295                 5.2911                 4.0192
 Frc consts  --      1.5714                 4.1047                 3.1450
 IR Inten    --      0.0000                 0.0001               243.6804

                     55                     56                     57
                      A                      A                      A
 Frequencies --   1164.8175              1189.6663              1242.3432
 Red. masses --      2.3019                 2.9567                 2.0296
 Frc consts  --      1.8401                 2.4655                 1.8456
 IR Inten    --      0.0000                67.5861                46.1815

                     58                     59                     60
                      A                      A                      A
 Frequencies --   1246.7942              1282.3318              1282.4161
 Red. masses --      2.2794                 1.4051                 1.3978
 Frc consts  --      2.0876                 1.3613                 1.3545
 IR Inten    --      0.0000                 0.0488                73.0302

                     61                     62                     63
                      A                      A                      A
 Frequencies --   1307.7860              1312.7237              1329.0780
 Red. masses --      1.2454                 1.1673                 1.3258
 Frc consts  --      1.2550                 1.1851                 1.3799
 IR Inten    --      0.0000                17.7764                52.4687

                     64                     65                     66
                      A                      A                      A
 Frequencies --   1336.8300              1349.6162              1351.3012
 Red. masses --      1.1947                 1.3895                 1.3797
 Frc consts  --      1.2579                 1.4911                 1.4844
 IR Inten    --      0.0000                12.5595                 0.0000

                     67                     68                     69
                      A                      A                      A
 Frequencies --   1399.3790              1406.0019              1409.1391
 Red. masses --      1.2619                 1.4167                 1.3517
 Frc consts  --      1.4559                 1.6501                 1.5813
 IR Inten    --      0.0000                 0.0000                30.7982

                     70                     71                     72
                      A                      A                      A
 Frequencies --   1412.0870              1415.3861              1424.1878
 Red. masses --      1.2451                 1.3809                 1.3950
 Frc consts  --      1.4627                 1.6299                 1.6671
 IR Inten    --     84.3494                57.5376                 0.0000

                     73                     74                     75
                      A                      A                      A
 Frequencies --   1427.4510              1429.1817              1453.7068
 Red. masses --      1.3246                 1.3055                 1.3844
 Frc consts  --      1.5903                 1.5711                 1.7237
 IR Inten    --     96.7313                 0.0000                12.2406

                     76                     77                     78
                      A                      A                      A
 Frequencies --   1455.5940              1472.3216              1473.0586
 Red. masses --      1.3794                 1.6364                 1.7217
 Frc consts  --      1.7220                 2.0901                 2.2012
 IR Inten    --      0.0000                 0.0014               199.1165

                     79                     80                     81
                      A                      A                      A
 Frequencies --   1500.2113              1500.4809              1508.7225
 Red. masses --      1.1210                 1.1220                 1.0942
 Frc consts  --      1.4865                 1.4883                 1.4674
 IR Inten    --     22.7999                 0.0009                52.3647

                     82                     83                     84
                      A                      A                      A
 Frequencies --   1509.5793              1520.5369              1521.4918
 Red. masses --      1.1015                 1.0947                 1.1101
 Frc consts  --      1.4789                 1.4912                 1.5141
 IR Inten    --      0.0003                 0.0000                50.7535

                     85                     86                     87
                      A                      A                      A
 Frequencies --   1526.9663              1530.3145              1533.3219
 Red. masses --      1.0797                 1.0746                 1.1523
 Frc consts  --      1.4832                 1.4827                 1.5962
 IR Inten    --      6.4489                 0.0000                13.0628

                     88                     89                     90
                      A                      A                      A
 Frequencies --   1533.7347              1539.3112              1548.4792
 Red. masses --      1.1955                 1.0969                 1.1204
 Frc consts  --      1.6569                 1.5313                 1.5829
 IR Inten    --      0.0003                 0.0000                12.3054

                     91                     92                     93
                      A                      A                      A
 Frequencies --   1752.6388              1754.2399              3009.9648
 Red. masses --      8.8667                 8.8976                 1.0671
 Frc consts  --     16.0471                16.1324                 5.6960
 IR Inten    --      0.0001               503.2082                74.9425

                     94                     95                     96
                      A                      A                      A
 Frequencies --   3010.7276              3045.1960              3045.6026
 Red. masses --      1.0667                 1.0642                 1.0643
 Frc consts  --      5.6971                 5.8145                 5.8167
 IR Inten    --      0.0132                34.4468                 0.0001

                     97                     98                     99
                      A                      A                      A
 Frequencies --   3054.4256              3055.1553              3058.8938
 Red. masses --      1.0677                 1.0676                 1.0670
 Frc consts  --      5.8687                 5.8710                 5.8824
 IR Inten    --      0.0003                81.9821               147.6854

                    100                    101                    102
                      A                      A                      A
 Frequencies --   3059.5939              3059.9970              3060.4173
 Red. masses --      1.0535                 1.0438                 1.0570
 Frc consts  --      5.8104                 5.7583                 5.8327
 IR Inten    --      0.0003                26.2457                 0.0001

                    103                    104                    105
                      A                      A                      A
 Frequencies --   3092.5821              3093.6249              3110.6770
 Red. masses --      1.0951                 1.0955                 1.1002
 Frc consts  --      6.1708                 6.1774                 6.2725
 IR Inten    --     23.8129                 0.0196                13.9023

                    106                    107                    108
                      A                      A                      A
 Frequencies --   3110.7195              3131.1417              3131.2614
 Red. masses --      1.1002                 1.1011                 1.1010
 Frc consts  --      6.2725                 6.3601                 6.3600
 IR Inten    --      0.2273                 0.1206                41.5712

                    109                    110                    111
                      A                      A                      A
 Frequencies --   3133.8470              3133.8944              3148.2393
 Red. masses --      1.0937                 1.0937                 1.0931
 Frc consts  --      6.3284                 6.3287                 6.3836
 IR Inten    --      0.0033                10.1203                 0.0053

                    112                    113                    114
                      A                      A                      A
 Frequencies --   3148.3697              3179.4778              3179.4816
 Red. masses --      1.0932                 1.1036                 1.1036
 Frc consts  --      6.3843                 6.5732                 6.5732
 IR Inten    --     37.9846                 2.6844                 7.4423

 - Thermochemistry -
 -------------------
 Temperature   298.150 Kelvin.  Pressure   1.00000 Atm.
 Atom     1 has atomic number  6 and mass  12.00000

 Molecular mass:   258.15796 amu.
 Principal axes and moments of inertia in atomic units:
                           1         2         3
     Eigenvalues --  2723.883305716.366796647.67315
           X            0.99979   0.01898  -0.00807
           Y           -0.01884   0.99968   0.01711
           Z            0.00839  -0.01696   0.99982
 This molecule is an asymmetric top.
 Rotational symmetry number  1.
 Warning -- assumption of classical behavior for rotation
           may cause significant error
 Rotational temperatures (Kelvin)      0.03180     0.01515     0.01303
 Rotational constants (GHZ):           0.66256     0.31571     0.27148
 Zero-point vibrational energy     922310.2 (Joules/Mol)
                                  220.43742 (Kcal/Mol)
 Warning -- explicit consideration of  32 degrees of freedom as
           vibrations may cause significant error
 Vibrational temperatures:     47.90    82.22    87.99   132.90   160.85
          (Kelvin)            163.67   176.92   227.10   243.45   262.89
                              280.89   310.67   314.90   327.97   355.97
                              384.77   455.51   485.14   516.21   517.86
                              595.31   599.20   665.04   665.55   691.57
                              745.30   773.42   807.85   868.30   874.24
                              876.97   882.41  1025.13  1027.66  1175.87
                             1182.74  1283.91  1296.62  1332.32  1348.50
                             1391.31  1436.77  1463.70  1464.15  1501.45
                             1529.01  1537.95  1544.03  1545.07  1556.33
                             1598.50  1610.18  1650.96  1658.09  1675.91
                             1711.66  1787.45  1793.86  1844.99  1845.11
                             1881.61  1888.72  1912.25  1923.40  1941.80
                             1944.22  2013.39  2022.92  2027.44  2031.68
                             2036.42  2049.09  2053.78  2056.27  2091.56
                             2094.28  2118.34  2119.40  2158.47  2158.86
                             2170.72  2171.95  2187.71  2189.09  2196.96
                             2201.78  2206.11  2206.70  2214.73  2227.92
                             2521.66  2523.96  4330.67  4331.77  4381.36
                             4381.94  4394.64  4395.69  4401.07  4402.07
                             4402.65  4403.26  4449.54  4451.04  4475.57
                             4475.63  4505.01  4505.19  4508.91  4508.98
                             4529.61  4529.80  4574.56  4574.56

 Zero-point correction=                           0.351289 (Hartree/Particle)
 Thermal correction to Energy=                    0.369703
 Thermal correction to Enthalpy=                  0.370647
 Thermal correction to Gibbs Free Energy=         0.305334
 Sum of electronic and zero-point Energies=           -880.649242
 Sum of electronic and thermal Energies=              -880.630829
 Sum of electronic and thermal Enthalpies=            -880.629884
 Sum of electronic and thermal Free Energies=         -880.695198

                     E (Thermal)             CV                S
                      KCal/Mol        Cal/Mol-Kelvin    Cal/Mol-Kelvin
 Total                  231.992             69.904            137.463
 Electronic               0.000              0.000              0.000
 Translational            0.889              2.981             42.545
 Rotational               0.889              2.981             33.004
 Vibrational            230.215             63.943             61.915
 Vibration     1          0.594              1.983              5.623
 Vibration     2          0.596              1.975              4.553
 Vibration     3          0.597              1.973              4.420
 Vibration     4          0.602              1.955              3.609
 Vibration     5          0.607              1.940              3.238
 Vibration     6          0.607              1.938              3.204
 Vibration     7          0.610              1.930              3.053
 Vibration     8          0.621              1.894              2.576
 Vibration     9          0.625              1.880              2.444
 Vibration    10          0.630              1.863              2.300
 Vibration    11          0.636              1.847              2.178
 Vibration    12          0.645              1.817              1.993
 Vibration    13          0.647              1.812              1.968
 Vibration    14          0.651              1.798              1.895
 Vibration    15          0.661              1.767              1.749
 Vibration    16          0.673              1.733              1.613
 Vibration    17          0.703              1.642              1.328
 Vibration    18          0.718              1.601              1.225
 Vibration    19          0.734              1.557              1.127
 Vibration    20          0.734              1.555              1.122
 Vibration    21          0.777              1.440              0.913
 Vibration    22          0.780              1.434              0.904
 Vibration    23          0.820              1.334              0.760
 Vibration    24          0.820              1.333              0.759
 Vibration    25          0.837              1.293              0.708
 Vibration    26          0.873              1.210              0.615
 Vibration    27          0.893              1.167              0.571
 Vibration    28          0.917              1.115              0.521
 Vibration    29          0.962              1.024              0.444
 Vibration    30          0.966              1.016              0.437
 Vibration    31          0.968              1.012              0.434
 Vibration    32          0.973              1.004              0.427

                           ! Non-Optimized Parameters !
 Normal termination of Gaussian 16 at Mon Dec 14 13:42:51 2020.

 ----------------------------------------------------------------------
 # B3LYP/6-311++G(d,p) empiricaldispersion=gd3bj scf=xqc pop=npa geom=c
 heck
 ----------------------------------------------------------------------

 -------------------------------------
 CID_3792516_JID_8354_Energie_neutraal
 -------------------------------------
 Structure from the checkpoint file:  "JID_8354.chk"
 Charge =  0 Multiplicity = 1

 SCF Done:  E(RB3LYP) =  -881.256540114     A.U. after   13 cycles
 Normal termination of Gaussian 16 at Mon Dec 14 13:51:37 2020.

 ----------------------------------------------------------------------
 # B3LYP/6-311++G(d,p) empiricaldispersion=gd3bj scf=xqc pop=npa geom=c
 heck
 ----------------------------------------------------------------------

 -----------------------------------
 CID_3792516_JID_8354_Energie_kation
 -----------------------------------
 Structure from the checkpoint file:  "JID_8354.chk"
 Charge =  1 Multiplicity = 2

 SCF Done:  E(UB3LYP) =  -880.957493130     A.U. after   27 cycles
 Normal termination of Gaussian 16 at Mon Dec 14 14:17:34 2020.
 Gaussian 16:  ES64L-G16RevA.03 25-Dec-2016

 ----------------------------------------------------------------------
 # B3LYP/6-311++G(d,p) empiricaldispersion=gd3bj scf=xqc pop=npa geom=c
 heck
 ----------------------------------------------------------------------

 ----------------------------------
 CID_3792516_JID_8354_Energie_anion
 ----------------------------------
 Structure from the checkpoint file:  "JID_8354.chk"
 Charge = -1 Multiplicity = 2

                         Standard orientation:
 ---------------------------------------------------------------------
 Center     Atomic      Atomic             Coordinates (Angstroms)
 Number     Number       Type             X           Y           Z
 ---------------------------------------------------------------------
      1          6           0        3.175089    1.689954    0.830602
      2          6           0        3.031478    0.251351    0.362381
      3          8           0        3.581594   -0.674327    0.956723
      4          7           0        2.256331    0.011061   -0.745210
      5          6           0        1.620670    1.049263   -1.549503
      6          6           0        0.131456    1.230222   -1.289354
      7          8           0       -0.034829    1.829258   -0.010216
      8          6           0       -1.355088    2.293781    0.252893
      9          6           0       -2.130544    1.375293    1.196862
     10          7           0       -2.256394   -0.011088    0.745178
     11          6           0       -1.620837   -1.049349    1.549472
     12          6           0       -0.131591   -1.230302    1.289482
     13          8           0        0.034841   -1.829289    0.010349
     14          6           0        1.355151   -2.293752   -0.252646
     15          6           0        2.130490   -1.375355   -1.196786
     16          6           0       -3.031438   -0.251295   -0.362502
     17          8           0       -3.581429    0.674432   -0.956884
     18          6           0       -3.174958   -1.689863   -0.830860
     19          1           0        3.698010    1.670067    1.787346
     20          1           0        2.200355    2.172514    0.941095
     21          1           0        3.768416    2.280655    0.122105
     22          1           0        1.758785    0.795553   -2.607960
     23          1           0        2.125882    2.001863   -1.383240
     24          1           0       -0.284186    1.887365   -2.068705
     25          1           0       -0.382959    0.263984   -1.339288
     26          1           0       -1.914832    2.411515   -0.678505
     27          1           0       -1.264192    3.276845    0.732465
     28          1           0       -3.130328    1.805645    1.336036
     29          1           0       -1.628823    1.354502    2.168255
     30          1           0       -2.126031   -2.001935    1.383075
     31          1           0       -1.759080   -0.795716    2.607930
     32          1           0        0.283964   -1.887465    2.068865
     33          1           0        0.382829   -0.264063    1.339504
     34          1           0        1.264380   -3.276937   -0.731995
     35          1           0        1.914909   -2.411193    0.678778
     36          1           0        1.628691   -1.354670   -2.168141
     37          1           0        3.130281   -1.805679   -1.335995
     38          1           0       -2.200201   -2.172402   -0.941239
     39          1           0       -3.768387   -2.280625   -0.122500
     40          1           0       -3.697730   -1.669911   -1.787684
 ---------------------------------------------------------------------

 SCF Done:  E(UB3LYP) =  -881.244223227     A.U. after   33 cycles
 SCF Done:  E(UB3LYP) =  -881.244223227     a.u. after    1 cycles

 The electronic state is 2-A.
 Alpha  occ. eigenvalues --  -19.03755 -19.03755 -18.99271 -18.99271 -14.25119
 Alpha  occ. eigenvalues --  -14.25119 -10.17876 -10.17876 -10.12629 -10.12629
 Alpha  occ. eigenvalues --  -10.12498 -10.12498 -10.11965 -10.11965 -10.11442
 Alpha  occ. eigenvalues --  -10.11442 -10.07736 -10.07736  -0.95428  -0.94857
 Alpha  occ. eigenvalues --   -0.94512  -0.94193  -0.84683  -0.84235  -0.70281
 Alpha  occ. eigenvalues --   -0.67880  -0.66523  -0.65823  -0.63524  -0.61162
 Alpha  occ. eigenvalues --   -0.56061  -0.55820  -0.53092  -0.52353  -0.45485
 Alpha  occ. eigenvalues --   -0.45439  -0.42380  -0.42357  -0.41802  -0.40748
 Alpha  occ. eigenvalues --   -0.39255  -0.39065  -0.37237  -0.37217  -0.36586
 Alpha  occ. eigenvalues --   -0.35907  -0.34892  -0.34204  -0.33476  -0.32882
 Alpha  occ. eigenvalues --   -0.31899  -0.31430  -0.30729  -0.30487  -0.30105
 Alpha  occ. eigenvalues --   -0.30077  -0.28877  -0.28374  -0.27998  -0.27216
 Alpha  occ. eigenvalues --   -0.26664  -0.26224  -0.23646  -0.22975  -0.19118
 Alpha  occ. eigenvalues --   -0.17304  -0.16386  -0.16297  -0.15551  -0.14745
 Alpha  occ. eigenvalues --    0.04020
 Alpha virt. eigenvalues --    0.05646   0.06222   0.07434   0.07637   0.07838
 Alpha virt. eigenvalues --    0.08613   0.09209   0.09916   0.10225   0.10528
 Alpha virt. eigenvalues --    0.10609   0.10923   0.11053   0.11567   0.12355

  Beta  occ. eigenvalues --  -19.03748 -19.03748 -18.99259 -18.99259 -14.25122
  Beta  occ. eigenvalues --  -14.25122 -10.17869 -10.17868 -10.12620 -10.12619
  Beta  occ. eigenvalues --  -10.12488 -10.12487 -10.11939 -10.11939 -10.11425
  Beta  occ. eigenvalues --  -10.11425 -10.07719 -10.07719  -0.95416  -0.94845
  Beta  occ. eigenvalues --   -0.94495  -0.94177  -0.84673  -0.84225  -0.70254
  Beta  occ. eigenvalues --   -0.67855  -0.66491  -0.65793  -0.63495  -0.61130
  Beta  occ. eigenvalues --   -0.56025  -0.55784  -0.53059  -0.52316  -0.45453
  Beta  occ. eigenvalues --   -0.45401  -0.42353  -0.42333  -0.41769  -0.40720
  Beta  occ. eigenvalues --   -0.39230  -0.39035  -0.37213  -0.37184  -0.36559
  Beta  occ. eigenvalues --   -0.35876  -0.34864  -0.34170  -0.33446  -0.32858
  Beta  occ. eigenvalues --   -0.31875  -0.31406  -0.30709  -0.30466  -0.30080
  Beta  occ. eigenvalues --   -0.30038  -0.28858  -0.28342  -0.27970  -0.27186
  Beta  occ. eigenvalues --   -0.26624  -0.26184  -0.23619  -0.22942  -0.19103
  Beta  occ. eigenvalues --   -0.17290  -0.16367  -0.16280  -0.15533  -0.14726
  Beta virt. eigenvalues --    0.06197   0.06836   0.06920   0.07703   0.08135
  Beta virt. eigenvalues --    0.08579   0.08958   0.09465   0.10134   0.10340
  Beta virt. eigenvalues --    0.10735   0.11083   0.11165   0.11367   0.11957

 Mulliken charges and spin densities:
               1          2
     1  C    0.696548  -1.274735
     2  C   -0.806531   0.773669
     3  O   -0.322083   0.010602
     4  N    0.044924   0.102574
     5  C    1.128164  -1.673020
     6  C   -0.718642   0.553253
     7  O   -0.017898  -0.014193
     8  C   -0.378667  -0.051628
     9  C    0.393257  -0.414690
    10  N    0.044902   0.102581
    11  C    1.128404  -1.673190
    12  C   -0.718501   0.553086
    13  O   -0.017885  -0.014197
    14  C   -0.378791  -0.051514
    15  C    0.393258  -0.414698
    16  C   -0.806698   0.773837
    17  O   -0.322067   0.010602
    18  C    0.696656  -1.274844
    19  H    0.155687   0.018940
    20  H    0.048635   0.152557
    21  H   -0.181245   0.347926
    22  H   -0.705340   0.926051
    23  H    0.068565   0.114877
    24  H   -0.242699   0.394232
    25  H    0.559265  -0.379511
    26  H    0.259300  -0.059406
    27  H   -0.330668   0.484759
    28  H   -0.048563   0.224778
    29  H   -0.101909   0.262842
    30  H    0.068581   0.114859
    31  H   -0.705470   0.926185
    32  H   -0.242802   0.394337
    33  H    0.559021  -0.379283
    34  H   -0.330619   0.484720
    35  H    0.259304  -0.059399
    36  H   -0.101964   0.262893
    37  H   -0.048485   0.224700
    38  H    0.048666   0.152531
    39  H   -0.181299   0.347978
    40  H    0.155687   0.018943
 Sum of Mulliken charges =  -1.00000   1.00000

 Dipole moment (field-independent basis, Debye):
    X=              0.0006    Y=              0.0004    Z=             -0.0007  Tot=              0.0010
 Quadrupole moment (field-independent basis, Debye-Ang):
   XX=           -181.9675   YY=           -156.0983   ZZ=           -164.2682
   XY=              0.9833   XZ=              4.2743   YZ=              4.6392

 Summary of Natural Population Analysis:

                                       Natural Population
                Natural  -----------------------------------------------
    Atom  No    Charge         Core      Valence    Rydberg      Total
 -----------------------------------------------------------------------
      C    1   -0.33654      0.99962     2.33162    0.00529     3.33654
      C    2    0.34876      0.99965     1.62891    0.02267     2.65124
      O    3   -0.33114      0.99988     3.32618    0.00508     4.33114
      N    4   -0.26360      0.99964     2.74933    0.01463     3.76360
      C    5   -0.09056      0.99958     2.07865    0.01233     3.09056
      C    6   -0.01374      0.99955     2.00275    0.01144     3.01374
      O    7   -0.31079      0.99988     3.30082    0.01010     4.31079
      C    8   -0.01312      0.99956     2.00213    0.01143     3.01312
      C    9   -0.09395      0.99960     2.08281    0.01154     3.09395
      N   10   -0.26360      0.99964     2.74933    0.01464     3.76360
      C   11   -0.09056      0.99958     2.07865    0.01233     3.09056
      C   12   -0.01374      0.99955     2.00275    0.01144     3.01374
      O   13   -0.31080      0.99988     3.30082    0.01010     4.31080
      C   14   -0.01312      0.99956     2.00213    0.01143     3.01312
      C   15   -0.09395      0.99960     2.08281    0.01154     3.09395
      C   16    0.34876      0.99965     1.62891    0.02267     2.65124
      O   17   -0.33114      0.99988     3.32618    0.00508     4.33114
      C   18   -0.33654      0.99962     2.33163    0.00529     3.33654
      H   19    0.11099      0.00000     0.38821    0.00080     0.38901
      H   20    0.12008      0.00000     0.37835    0.00158     0.37992
      H   21    0.10742      0.00000     0.39161    0.00097     0.39258
      H   22    0.10155      0.00000     0.39655    0.00189     0.39845
      H   23    0.10535      0.00000     0.39270    0.00196     0.39465
      H   24    0.08284      0.00000     0.41584    0.00132     0.41716
      H   25    0.09127      0.00000     0.40584    0.00289     0.40873
      H   26    0.09562      0.00000     0.40283    0.00155     0.40438
      H   27    0.08748      0.00000     0.41149    0.00104     0.41252
      H   28    0.10378      0.00000     0.39515    0.00107     0.39622
      H   29    0.09831      0.00000     0.40019    0.00149     0.40169
      H   30    0.10535      0.00000     0.39270    0.00196     0.39465
      H   31    0.10155      0.00000     0.39655    0.00189     0.39845
      H   32    0.08284      0.00000     0.41584    0.00132     0.41716
      H   33    0.09127      0.00000     0.40584    0.00289     0.40873
      H   34    0.08748      0.00000     0.41149    0.00104     0.41252
      H   35    0.09563      0.00000     0.40282    0.00155     0.40437
      H   36    0.09831      0.00000     0.40019    0.00149     0.40169
      H   37    0.10378      0.00000     0.39515    0.00107     0.39622
      H   38    0.12008      0.00000     0.37835    0.00158     0.37992
      H   39    0.10742      0.00000     0.39161    0.00097     0.39258
      H   40    0.11099      0.00000     0.38821    0.00080     0.38901
 =======================================================================
   * Total *    0.00000     17.99391    51.76394    0.24215    70.00000

 Normal termination of Gaussian 16 at Mon Dec 14 14:48:17 2020.
