 Gaussian 16, Revision A.03,

 -----------------------------------------------------------
 # opt freq B3LYP/6-31G(d) empiricaldispersion=gd3bj scf=xqc
 -----------------------------------------------------------

 -------------------------------
 CID_143010543_JID_5633_neutraal
 -------------------------------
 Symbolic Z-matrix:
 Charge =  0 Multiplicity = 1

 SCF Done:  E(RB3LYP) =  -650.488108908     A.U. after   15 cycles
 SCF Done:  E(RB3LYP) =  -650.491947514     A.U. after   12 cycles
 SCF Done:  E(RB3LYP) =  -650.492645045     A.U. after   12 cycles
 SCF Done:  E(RB3LYP) =  -650.493389767     A.U. after   12 cycles
 SCF Done:  E(RB3LYP) =  -650.494082523     A.U. after   12 cycles
 SCF Done:  E(RB3LYP) =  -650.494685750     A.U. after   13 cycles
 SCF Done:  E(RB3LYP) =  -650.495073473     A.U. after   11 cycles
 SCF Done:  E(RB3LYP) =  -650.495357973     A.U. after   12 cycles
 SCF Done:  E(RB3LYP) =  -650.495452243     A.U. after   13 cycles
 SCF Done:  E(RB3LYP) =  -650.495465920     A.U. after   12 cycles
 SCF Done:  E(RB3LYP) =  -650.495507636     A.U. after   11 cycles
 SCF Done:  E(RB3LYP) =  -650.495508625     A.U. after    8 cycles
 SCF Done:  E(RB3LYP) =  -650.495508823     A.U. after    8 cycles
 SCF Done:  E(RB3LYP) =  -650.495508899     A.U. after    7 cycles
 SCF Done:  E(RB3LYP) =  -650.495508980     A.U. after    7 cycles
 Optimization completed.
    -- Stationary point found.
 Normal termination of Gaussian 16 at Thu Dec 10 16:43:12 2020.

 --------------------------------------------------------------------
 #N Geom=AllCheck Guess=TCheck SCRF=Check GenChk RB3LYP/6-31G(d) Freq
 --------------------------------------------------------------------

 Structure from the checkpoint file:  "JID_5633.chk"
 -------------------------------
 CID_143010543_JID_5633_neutraal
 -------------------------------
 Charge =  0 Multiplicity = 1

 SCF Done:  E(RB3LYP) =  -650.495508980     A.U. after    1 cycles

  Exact polarizability: 241.310  -2.622 135.840  -4.344  -2.957  73.778
 Approx polarizability: 338.971 -11.425 229.826 -14.693  -5.934 112.672

                      1                      2                      3
                      A                      A                      A
 Frequencies --     36.0420                52.8369                74.6161
 Red. masses --      4.0151                 4.6313                 4.8296
 Frc consts  --      0.0031                 0.0076                 0.0158
 IR Inten    --      0.6925                 1.7497                 1.0852

                      4                      5                      6
                      A                      A                      A
 Frequencies --    109.5947               154.3626               175.1772
 Red. masses --      3.1075                 2.3412                 1.9561
 Frc consts  --      0.0220                 0.0329                 0.0354
 IR Inten    --      0.8582                 5.3384                 1.5321

                      7                      8                      9
                      A                      A                      A
 Frequencies --    189.7481               210.3811               244.2394
 Red. masses --      1.3179                 1.7018                 2.5525
 Frc consts  --      0.0280                 0.0444                 0.0897
 IR Inten    --      0.7639                 1.6717                 8.6057

                     10                     11                     12
                      A                      A                      A
 Frequencies --    256.8644               297.6719               345.6574
 Red. masses --      3.4094                 3.5782                 3.9851
 Frc consts  --      0.1325                 0.1868                 0.2805
 IR Inten    --      2.2466                 3.5041                 0.4399

                     13                     14                     15
                      A                      A                      A
 Frequencies --    372.9528               422.4853               438.9632
 Red. masses --      3.6442                 3.2083                 3.6168
 Frc consts  --      0.2986                 0.3374                 0.4106
 IR Inten    --      5.7469                13.9832                 6.1835

                     16                     17                     18
                      A                      A                      A
 Frequencies --    474.9398               495.9799               522.4895
 Red. masses --      4.7781                 3.3739                 3.4075
 Frc consts  --      0.6350                 0.4890                 0.5481
 IR Inten    --      7.6191                 8.0524                17.7987

                     19                     20                     21
                      A                      A                      A
 Frequencies --    529.6696               554.3232               627.4067
 Red. masses --      1.8185                 4.5874                 4.9124
 Frc consts  --      0.3006                 0.8305                 1.1393
 IR Inten    --     18.4830                 5.1167                 3.5512

                     22                     23                     24
                      A                      A                      A
 Frequencies --    649.7936               670.9045               725.0061
 Red. masses --      2.0564                 2.9390                 2.0655
 Frc consts  --      0.5116                 0.7794                 0.6397
 IR Inten    --     53.5844                37.0818                18.5470

                     25                     26                     27
                      A                      A                      A
 Frequencies --    756.1638               760.4135               790.4170
 Red. masses --      4.1551                 1.8830                 4.1524
 Frc consts  --      1.3998                 0.6415                 1.5285
 IR Inten    --      3.5908                13.6430                 8.1821

                     28                     29                     30
                      A                      A                      A
 Frequencies --    807.2465               826.3937               870.9553
 Red. masses --      3.5827                 1.4947                 3.4261
 Frc consts  --      1.3755                 0.6014                 1.5312
 IR Inten    --      0.4101                15.2976                16.4880

                     31                     32                     33
                      A                      A                      A
 Frequencies --    887.2835               921.3848               937.9360
 Red. masses --      1.7394                 1.5192                 1.3578
 Frc consts  --      0.8068                 0.7599                 0.7038
 IR Inten    --     17.1235                 8.6720                 5.6379

                     34                     35                     36
                      A                      A                      A
 Frequencies --    949.2439               996.1200              1033.6777
 Red. masses --      2.3613                 2.8584                 1.8151
 Frc consts  --      1.2536                 1.6711                 1.1427
 IR Inten    --     15.5674                 1.3315                 4.1582

                     37                     38                     39
                      A                      A                      A
 Frequencies --   1042.1752              1068.1311              1075.9534
 Red. masses --      1.5696                 1.7108                 1.8000
 Frc consts  --      1.0044                 1.1500                 1.2278
 IR Inten    --     30.5620                 8.5137                30.1830

                     40                     41                     42
                      A                      A                      A
 Frequencies --   1156.9507              1162.1284              1193.3329
 Red. masses --      1.7009                 1.3169                 1.3715
 Frc consts  --      1.3414                 1.0479                 1.1507
 IR Inten    --     12.4316                30.4856                 6.5591

                     43                     44                     45
                      A                      A                      A
 Frequencies --   1206.5913              1215.9781              1239.4851
 Red. masses --      1.4186                 2.0315                 2.0442
 Frc consts  --      1.2168                 1.7697                 1.8503
 IR Inten    --     19.8786                72.2306                10.1241

                     46                     47                     48
                      A                      A                      A
 Frequencies --   1292.7529              1299.5908              1312.5695
 Red. masses --      2.7945                 1.3721                 1.7684
 Frc consts  --      2.7516                 1.3653                 1.7950
 IR Inten    --     20.7207                15.1745                10.3075

                     49                     50                     51
                      A                      A                      A
 Frequencies --   1346.6150              1353.4548              1376.5274
 Red. masses --      2.9811                 2.2648                 4.5469
 Frc consts  --      3.1850                 2.4444                 5.0762
 IR Inten    --     47.7108               376.0954                24.1091

                     52                     53                     54
                      A                      A                      A
 Frequencies --   1401.0137              1425.2635              1428.8898
 Red. masses --      1.7637                 1.6708                 1.5545
 Frc consts  --      2.0397                 1.9997                 1.8700
 IR Inten    --      8.5649                87.0741                30.0470

                     55                     56                     57
                      A                      A                      A
 Frequencies --   1474.2710              1494.0445              1502.4234
 Red. masses --      1.4511                 1.4477                 1.0534
 Frc consts  --      1.8583                 1.9040                 1.4010
 IR Inten    --     55.0740                 8.8418                20.7518

                     58                     59                     60
                      A                      A                      A
 Frequencies --   1511.4448              1515.8369              1523.7126
 Red. masses --      1.0702                 1.1032                 1.6410
 Frc consts  --      1.4405                 1.4935                 2.2448
 IR Inten    --     16.3029                12.6048                34.5909

                     61                     62                     63
                      A                      A                      A
 Frequencies --   1530.9136              1548.3412              1554.5193
 Red. masses --      1.2859                 2.9703                 1.2878
 Frc consts  --      1.7757                 4.1955                 1.8335
 IR Inten    --     27.7300               156.3207                15.8665

                     64                     65                     66
                      A                      A                      A
 Frequencies --   1628.8289              1667.8619              1692.6546
 Red. masses --      5.4495                 6.1982                 5.4127
 Frc consts  --      8.5183                10.1587                 9.1369
 IR Inten    --     10.2619               168.8826               180.9339

                     67                     68                     69
                      A                      A                      A
 Frequencies --   1791.7985              2889.6785              2979.7612
 Red. masses --      7.8643                 1.0745                 1.0574
 Frc consts  --     14.8762                 5.2865                 5.5316
 IR Inten    --    501.6338               105.5472               134.5065

                     70                     71                     72
                      A                      A                      A
 Frequencies --   3067.3519              3069.1267              3084.4473
 Red. masses --      1.0860                 1.0394                 1.0786
 Frc consts  --      6.0202                 5.7686                 6.0457
 IR Inten    --     29.7865                 3.3210                39.8552

                     73                     74                     75
                      A                      A                      A
 Frequencies --   3137.9051              3138.3957              3173.8573
 Red. masses --      1.0963                 1.1019                 1.1043
 Frc consts  --      6.3603                 6.3945                 6.5539
 IR Inten    --      8.0765                17.4554                14.0029

                     76                     77                     78
                      A                      A                      A
 Frequencies --   3177.3848              3181.7478              3198.2497
 Red. masses --      1.0896                 1.0903                 1.0881
 Frc consts  --      6.4809                 6.5029                 6.5573
 IR Inten    --     20.5730                 6.8840                 5.1728

                     79                     80                     81
                      A                      A                      A
 Frequencies --   3224.4538              3232.7646              3582.5948
 Red. masses --      1.0954                 1.0918                 1.0753
 Frc consts  --      6.7101                 6.7227                 8.1316
 IR Inten    --     18.7680                 7.7466                21.5565

 - Thermochemistry -
 -------------------
 Temperature   298.150 Kelvin.  Pressure   1.00000 Atm.
 Atom     1 has atomic number  6 and mass  12.00000

 Molecular mass:   202.11061 amu.
 Principal axes and moments of inertia in atomic units:
                           1         2         3
     Eigenvalues --   920.741366771.756117370.08346
           X            0.99999   0.00436   0.00290
           Y           -0.00438   0.99996   0.00810
           Z           -0.00286  -0.00811   0.99996
 This molecule is an asymmetric top.
 Rotational symmetry number  1.
 Warning -- assumption of classical behavior for rotation
           may cause significant error
 Rotational temperatures (Kelvin)      0.09407     0.01279     0.01175
 Rotational constants (GHZ):           1.96010     0.26651     0.24487
 Zero-point vibrational energy     636061.1 (Joules/Mol)
                                  152.02226 (Kcal/Mol)
 Warning -- explicit consideration of  20 degrees of freedom as
           vibrations may cause significant error
 Vibrational temperatures:     51.86    76.02   107.36   157.68   222.09
          (Kelvin)            252.04   273.01   302.69   351.41   369.57
                              428.28   497.32   536.60   607.86   631.57
                              683.33   713.60   751.75   762.08   797.55
                              902.70   934.91   965.28  1043.12  1087.95
                             1094.07  1137.23  1161.45  1189.00  1253.11
                             1276.60  1325.67  1349.48  1365.75  1433.19
                             1487.23  1499.46  1536.80  1548.06  1664.59
                             1672.04  1716.94  1736.02  1749.52  1783.34
                             1859.98  1869.82  1888.49  1937.48  1947.32
                             1980.52  2015.75  2050.64  2055.85  2121.15
                             2149.60  2161.65  2174.63  2180.95  2192.28
                             2202.64  2227.72  2236.61  2343.52  2399.68
                             2435.35  2578.00  4157.60  4287.21  4413.24
                             4415.79  4437.83  4514.75  4515.45  4566.47
                             4571.55  4577.83  4601.57  4639.27  4651.23
                             5154.55

 Zero-point correction=                           0.242263 (Hartree/Particle)
 Thermal correction to Energy=                    0.255943
 Thermal correction to Enthalpy=                  0.256887
 Thermal correction to Gibbs Free Energy=         0.201368
 Sum of electronic and zero-point Energies=           -650.253246
 Sum of electronic and thermal Energies=              -650.239566
 Sum of electronic and thermal Enthalpies=            -650.238622
 Sum of electronic and thermal Free Energies=         -650.294141

                     E (Thermal)             CV                S
                      KCal/Mol        Cal/Mol-Kelvin    Cal/Mol-Kelvin
 Total                  160.607             52.634            116.849
 Electronic               0.000              0.000              0.000
 Translational            0.889              2.981             41.815
 Rotational               0.889              2.981             32.197
 Vibrational            158.829             46.673             42.837
 Vibration     1          0.594              1.982              5.466
 Vibration     2          0.596              1.976              4.708
 Vibration     3          0.599              1.966              4.028
 Vibration     4          0.606              1.942              3.276
 Vibration     5          0.620              1.898              2.618
 Vibration     6          0.627              1.873              2.379
 Vibration     7          0.633              1.854              2.230
 Vibration     8          0.643              1.825              2.040
 Vibration     9          0.660              1.772              1.772
 Vibration    10          0.666              1.751              1.683
 Vibration    11          0.691              1.678              1.430
 Vibration    12          0.724              1.584              1.186
 Vibration    13          0.744              1.528              1.068
 Vibration    14          0.785              1.421              0.884
 Vibration    15          0.799              1.385              0.830
 Vibration    16          0.832              1.306              0.724
 Vibration    17          0.852              1.259              0.668
 Vibration    18          0.877              1.200              0.604
 Vibration    19          0.885              1.184              0.588
 Vibration    20          0.910              1.130              0.535

                           ! Non-Optimized Parameters !
 Normal termination of Gaussian 16 at Thu Dec 10 16:52:18 2020.

 ----------------------------------------------------------------------
 # B3LYP/6-311++G(d,p) empiricaldispersion=gd3bj scf=xqc pop=npa geom=c
 heck
 ----------------------------------------------------------------------

 ---------------------------------------
 CID_143010543_JID_5633_Energie_neutraal
 ---------------------------------------
 Structure from the checkpoint file:  "JID_5633.chk"
 Charge =  0 Multiplicity = 1

 SCF Done:  E(RB3LYP) =  -650.674541331     A.U. after   16 cycles
 Normal termination of Gaussian 16 at Thu Dec 10 16:57:15 2020.

 ----------------------------------------------------------------------
 # B3LYP/6-311++G(d,p) empiricaldispersion=gd3bj scf=xqc pop=npa geom=c
 heck
 ----------------------------------------------------------------------

 -------------------------------------
 CID_143010543_JID_5633_Energie_kation
 -------------------------------------
 Structure from the checkpoint file:  "JID_5633.chk"
 Charge =  1 Multiplicity = 2

 SCF Done:  E(UB3LYP) =  -650.417301299     A.U. after   23 cycles
 Normal termination of Gaussian 16 at Thu Dec 10 17:06:45 2020.
 Gaussian 16:  ES64L-G16RevA.03 25-Dec-2016

 ----------------------------------------------------------------------
 # B3LYP/6-311++G(d,p) empiricaldispersion=gd3bj scf=xqc pop=npa geom=c
 heck
 ----------------------------------------------------------------------

 ------------------------------------
 CID_143010543_JID_5633_Energie_anion
 ------------------------------------
 Structure from the checkpoint file:  "JID_5633.chk"
 Charge = -1 Multiplicity = 2

                         Standard orientation:
 ---------------------------------------------------------------------
 Center     Atomic      Atomic             Coordinates (Angstroms)
 Number     Number       Type             X           Y           Z
 ---------------------------------------------------------------------
      1          6           0        3.853867    1.093834    1.051406
      2          6           0        3.965879   -0.146244    0.185293
      3          8           0        5.028333   -0.729933    0.022789
      4          7           0        2.821156   -0.628296   -0.422008
      5          6           0        1.481230   -0.180397   -0.364897
      6          6           0        0.466232   -1.131909   -0.214058
      7          6           0       -0.881983   -0.756730   -0.192581
      8          6           0       -1.211724    0.612125   -0.311769
      9          6           0       -2.670778    0.997461   -0.395207
     10          7           0       -3.514696    0.093518    0.384787
     11          6           0       -3.194597   -1.247181    0.340367
     12          6           0       -1.958460   -1.704867    0.031152
     13          6           0       -4.909041    0.481965    0.447805
     14          6           0       -0.198679    1.553073   -0.447092
     15          6           0        1.143929    1.171839   -0.494803
     16          1           0        4.670535    1.059486    1.774413
     17          1           0        2.893144    1.167571    1.566632
     18          1           0        3.981377    1.995178    0.441492
     19          1           0        2.981912   -1.525045   -0.866145
     20          1           0        0.732770   -2.178415   -0.087248
     21          1           0       -2.822357    2.017899   -0.024644
     22          1           0       -3.005827    0.990688   -1.453997
     23          1           0       -3.995014   -1.922327    0.628955
     24          1           0       -1.746375   -2.766746    0.077200
     25          1           0       -5.374303    0.535636   -0.551833
     26          1           0       -5.467032   -0.236231    1.054398
     27          1           0       -4.997247    1.468221    0.916544
     28          1           0       -0.453993    2.605316   -0.550460
     29          1           0        1.915286    1.913855   -0.660773
 ---------------------------------------------------------------------

 SCF Done:  E(UB3LYP) =  -650.667153800     A.U. after   33 cycles
 SCF Done:  E(UB3LYP) =  -650.667153800     a.u. after    1 cycles

 The electronic state is 2-A.
 Alpha  occ. eigenvalues --  -19.00109 -14.25263 -14.22215 -10.18893 -10.11154
 Alpha  occ. eigenvalues --  -10.09665 -10.08874 -10.08789 -10.08475 -10.06630
 Alpha  occ. eigenvalues --  -10.06622 -10.06433 -10.06360 -10.05882 -10.04033
 Alpha  occ. eigenvalues --   -0.95377  -0.84458  -0.84121  -0.74651  -0.67652
 Alpha  occ. eigenvalues --   -0.66494  -0.65338  -0.62673  -0.59754  -0.54304
 Alpha  occ. eigenvalues --   -0.52634  -0.50181  -0.48249  -0.44388  -0.41822
 Alpha  occ. eigenvalues --   -0.40287  -0.38644  -0.37089  -0.36372  -0.36161
 Alpha  occ. eigenvalues --   -0.34777  -0.33643  -0.32818  -0.31731  -0.31001
 Alpha  occ. eigenvalues --   -0.30747  -0.30127  -0.29122  -0.28405  -0.27518
 Alpha  occ. eigenvalues --   -0.26189  -0.24104  -0.23198  -0.21734  -0.19636
 Alpha  occ. eigenvalues --   -0.17451  -0.15709  -0.12767  -0.07574   0.04442
 Alpha virt. eigenvalues --    0.06587   0.06894   0.07464   0.07906   0.08565
 Alpha virt. eigenvalues --    0.09165   0.09336   0.09893   0.10835   0.11219
 Alpha virt. eigenvalues --    0.11785   0.11996   0.12407   0.13012   0.13248

  Beta  occ. eigenvalues --  -19.00096 -14.25270 -14.22189 -10.18873 -10.11148
  Beta  occ. eigenvalues --  -10.09633 -10.08864 -10.08729 -10.08291 -10.06624
  Beta  occ. eigenvalues --  -10.06517 -10.06379 -10.06340 -10.05732 -10.04041
  Beta  occ. eigenvalues --   -0.95352  -0.84358  -0.84088  -0.74503  -0.67453
  Beta  occ. eigenvalues --   -0.66407  -0.65265  -0.62462  -0.59655  -0.54199
  Beta  occ. eigenvalues --   -0.52456  -0.50124  -0.48112  -0.44292  -0.41718
  Beta  occ. eigenvalues --   -0.40202  -0.38591  -0.36978  -0.36309  -0.36025
  Beta  occ. eigenvalues --   -0.34679  -0.33570  -0.32774  -0.31708  -0.30952
  Beta  occ. eigenvalues --   -0.30691  -0.30010  -0.29058  -0.28312  -0.27440
  Beta  occ. eigenvalues --   -0.25900  -0.24011  -0.23111  -0.21265  -0.19404
  Beta  occ. eigenvalues --   -0.17434  -0.15141  -0.12485  -0.07171
  Beta virt. eigenvalues --    0.06584   0.07433   0.07540   0.08218   0.08237
  Beta virt. eigenvalues --    0.08666   0.09463   0.09588   0.10605   0.11227
  Beta virt. eigenvalues --    0.11473   0.11771   0.12241   0.12541   0.13155

 Mulliken charges and spin densities:
               1          2
     1  C   -0.285011  -0.159382
     2  C   -0.001813   0.061923
     3  O   -0.352775   0.005990
     4  N   -0.171718  -0.005620
     5  C   -0.172979   0.035202
     6  C   -0.232581   0.130808
     7  C   -0.083702   0.397861
     8  C   -1.242329   1.045921
     9  C    1.162729  -1.824633
    10  N   -0.094513   0.339427
    11  C   -0.723099   0.430014
    12  C    0.702221  -0.535760
    13  C    1.443086  -1.706640
    14  C   -0.156480  -0.268753
    15  C    0.184039  -0.053638
    16  H    0.143272   0.021141
    17  H    0.167785   0.007144
    18  H    0.057474   0.110500
    19  H    0.272491   0.007822
    20  H    0.116466  -0.002512
    21  H    0.175478   0.014266
    22  H   -0.041986   0.177230
    23  H   -0.286527   0.407145
    24  H    0.045907   0.070857
    25  H   -0.597460   0.749843
    26  H   -0.297192   0.424070
    27  H   -0.538323   0.672933
    28  H   -0.363630   0.508132
    29  H    0.171171  -0.061292
 Sum of Mulliken charges =  -1.00000   1.00000

 Dipole moment (field-independent basis, Debye):
    X=              7.7269    Y=             -0.7561    Z=              0.7805  Tot=              7.8029
 Quadrupole moment (field-independent basis, Debye-Ang):
   XX=           -215.9158   YY=           -114.1208   ZZ=           -110.6636
   XY=              9.7643   XZ=             -1.6651   YZ=              0.1921

 Summary of Natural Population Analysis:

                                       Natural Population
                Natural  -----------------------------------------------
    Atom  No    Charge         Core      Valence    Rydberg      Total
 -----------------------------------------------------------------------
      C    1   -0.33441      0.99963     2.33027    0.00451     3.33441
      C    2    0.34451      0.99971     1.63459    0.02119     2.65549
      O    3   -0.32714      0.99988     3.32101    0.00626     4.32714
      N    4   -0.31217      0.99964     2.80225    0.01028     3.81217
      C    5    0.06809      0.99947     1.92274    0.00970     2.93191
      C    6   -0.10670      0.99949     2.09982    0.00739     3.10670
      C    7   -0.00069      0.99948     1.99129    0.00992     3.00069
      C    8   -0.01355      0.99948     2.00435    0.00972     3.01355
      C    9   -0.08159      0.99959     2.07022    0.01179     3.08159
      N   10   -0.24387      0.99968     2.73235    0.01185     3.74387
      C   11    0.06944      0.99953     1.91892    0.01211     2.93056
      C   12   -0.17020      0.99954     2.16007    0.01059     3.17020
      C   13   -0.17088      0.99964     2.16270    0.00854     3.17088
      C   14   -0.09523      0.99952     2.08594    0.00976     3.09523
      C   15   -0.10060      0.99953     2.09192    0.00915     3.10060
      H   16    0.10903      0.00000     0.38981    0.00116     0.39097
      H   17    0.11402      0.00000     0.38513    0.00085     0.38598
      H   18    0.10987      0.00000     0.38883    0.00130     0.39013
      H   19    0.19534      0.00000     0.30307    0.00159     0.30466
      H   20    0.09448      0.00000     0.40448    0.00105     0.40552
      H   21    0.09843      0.00000     0.39985    0.00173     0.40157
      H   22    0.08575      0.00000     0.41258    0.00167     0.41425
      H   23    0.09279      0.00000     0.40610    0.00111     0.40721
      H   24    0.09831      0.00000     0.40042    0.00127     0.40169
      H   25    0.09039      0.00000     0.40424    0.00537     0.40961
      H   26    0.09749      0.00000     0.40105    0.00146     0.40251
      H   27    0.09505      0.00000     0.40326    0.00169     0.40495
      H   28    0.09793      0.00000     0.40108    0.00100     0.40207
      H   29    0.09611      0.00000     0.40239    0.00150     0.40389
 =======================================================================
   * Total *    0.00001     14.99379    38.83071    0.17548    53.99999

 Normal termination of Gaussian 16 at Thu Dec 10 17:20:15 2020.
