 Gaussian 16, Revision A.03,

 -----------------------------------------------------------
 # opt freq B3LYP/6-31G(d) empiricaldispersion=gd3bj scf=xqc
 -----------------------------------------------------------

 -------------------------------
 CID_140841400_JID_2951_neutraal
 -------------------------------
 Symbolic Z-matrix:
 Charge =  0 Multiplicity = 1

 SCF Done:  E(RB3LYP) =  -577.071839080     A.U. after   14 cycles
 SCF Done:  E(RB3LYP) =  -577.080541190     A.U. after   12 cycles
 SCF Done:  E(RB3LYP) =  -577.080853216     A.U. after   12 cycles
 SCF Done:  E(RB3LYP) =  -577.080874874     A.U. after   12 cycles
 SCF Done:  E(RB3LYP) =  -577.081344958     A.U. after   11 cycles
 SCF Done:  E(RB3LYP) =  -577.081469885     A.U. after   12 cycles
 SCF Done:  E(RB3LYP) =  -577.081504247     A.U. after   11 cycles
 SCF Done:  E(RB3LYP) =  -577.081526210     A.U. after   10 cycles
 SCF Done:  E(RB3LYP) =  -577.081559384     A.U. after   11 cycles
 SCF Done:  E(RB3LYP) =  -577.081575534     A.U. after   10 cycles
 SCF Done:  E(RB3LYP) =  -577.081616564     A.U. after    9 cycles
 SCF Done:  E(RB3LYP) =  -577.081616595     A.U. after    7 cycles
 SCF Done:  E(RB3LYP) =  -577.081616433     A.U. after    9 cycles
 SCF Done:  E(RB3LYP) =  -577.081616566     A.U. after    8 cycles
 SCF Done:  E(RB3LYP) =  -577.081616535     A.U. after    7 cycles
 Optimization completed on the basis of negligible forces.
    -- Stationary point found.

 1\1\GINC-NODE201\FOpt\RB3LYP\6-31G(d)\C9H14O3\VSC10255\09-Dec-2020\0\\
 # opt freq B3LYP/6-31G(d) empiricaldispersion=gd3bj scf=xqc\\CID_14084
 1400_JID_2951_neutraal\\0,1\C,1.2648749696,-0.3323783626,-0.024125393\
 C,0.383547587,-0.7659225931,1.1580526899\C,0.9339153194,-0.2913592554,
 2.4832613142\O,0.3939747288,0.4784267526,3.2465403537\O,2.16062518,-0.
 8347636236,2.7208247193\C,2.7606655331,-0.4220520604,3.9342855789\C,3.
 4566615636,0.8581970506,4.0138723072\O,4.1554213614,-0.4199469433,3.90
 01244962\C,3.5682062622,1.6464747305,5.3215392442\C,3.8462276293,3.097

 Normal termination of Gaussian 16 at Wed Dec  9 18:27:10 2020.

 --------------------------------------------------------------------
 #N Geom=AllCheck Guess=TCheck SCRF=Check GenChk RB3LYP/6-31G(d) Freq
 --------------------------------------------------------------------

 Structure from the checkpoint file:  "JID_2951.chk"
 -------------------------------
 CID_140841400_JID_2951_neutraal
 -------------------------------
 Charge =  0 Multiplicity = 1

 SCF Done:  E(RB3LYP) =  -577.081616535     A.U. after    1 cycles

  Exact polarizability: 112.769  -0.111  89.921   1.773  -0.672  85.923
 Approx polarizability: 137.083   1.800 128.805   2.419   8.630 136.901

                      1                      2                      3
                      A                      A                      A
 Frequencies --     15.5856                28.3682                66.7251
 Red. masses --      2.8973                 2.7300                 3.1209
 Frc consts  --      0.0004                 0.0013                 0.0082
 IR Inten    --      0.2256                 0.6324                 0.6169

                      4                      5                      6
                      A                      A                      A
 Frequencies --     69.2203                99.6515               182.3576
 Red. masses --      5.2013                 3.1219                 3.2669
 Frc consts  --      0.0147                 0.0183                 0.0640
 IR Inten    --      2.3912                 2.6347                 0.3184

                      7                      8                      9
                      A                      A                      A
 Frequencies --    222.9882               250.4306               284.5926
 Red. masses --      1.2340                 1.9655                 2.6260
 Frc consts  --      0.0362                 0.0726                 0.1253
 IR Inten    --      0.1058                 0.8695                 3.3030

                     10                     11                     12
                      A                      A                      A
 Frequencies --    298.1912               351.1310               399.7369
 Red. masses --      4.2871                 3.0154                 2.9121
 Frc consts  --      0.2246                 0.2190                 0.2742
 IR Inten    --      3.6402                 3.8252                 1.9020

                     13                     14                     15
                      A                      A                      A
 Frequencies --    460.6340               515.1648               540.3567
 Red. masses --      4.0442                 4.3921                 3.6828
 Frc consts  --      0.5056                 0.6868                 0.6336
 IR Inten    --      3.7593                 2.5431                13.1666

                     16                     17                     18
                      A                      A                      A
 Frequencies --    578.0324               656.1986               715.8966
 Red. masses --      2.3558                 3.6530                 3.1225
 Frc consts  --      0.4638                 0.9268                 0.9429
 IR Inten    --      3.6589                 6.4095                 0.6113

                     19                     20                     21
                      A                      A                      A
 Frequencies --    735.6770               799.3683               816.2205
 Red. masses --      2.4816                 2.7708                 1.3139
 Frc consts  --      0.7913                 1.0431                 0.5157
 IR Inten    --      4.9915                33.3274                 3.8774

                     22                     23                     24
                      A                      A                      A
 Frequencies --    848.4190               878.4939               900.7744
 Red. masses --      2.0756                 2.0934                 4.5813
 Frc consts  --      0.8803                 0.9519                 2.1901
 IR Inten    --     16.3048                 1.2955                 8.0002

                     25                     26                     27
                      A                      A                      A
 Frequencies --    914.7058               940.1303               974.4546
 Red. masses --      2.5084                 1.7510                 1.7447
 Frc consts  --      1.2366                 0.9118                 0.9761
 IR Inten    --      2.4379                11.7839                 7.4878

                     28                     29                     30
                      A                      A                      A
 Frequencies --    991.8718              1015.3897              1042.2246
 Red. masses --      2.2464                 2.2506                 2.3455
 Frc consts  --      1.3021                 1.3672                 1.5011
 IR Inten    --      8.1580                75.1322                 7.1821

                     31                     32                     33
                      A                      A                      A
 Frequencies --   1050.6344              1073.2620              1100.0429
 Red. masses --      2.3831                 1.6258                 2.2105
 Frc consts  --      1.5498                 1.1034                 1.5760
 IR Inten    --     63.3924                22.0652                72.4209

                     34                     35                     36
                      A                      A                      A
 Frequencies --   1117.4408              1132.6470              1187.3498
 Red. masses --      1.9467                 1.8416                 1.4551
 Frc consts  --      1.4322                 1.3919                 1.2086
 IR Inten    --     88.6518                 7.2500                27.0967

                     37                     38                     39
                      A                      A                      A
 Frequencies --   1211.4148              1217.1597              1247.6186
 Red. masses --      1.7889                 2.8780                 2.1114
 Frc consts  --      1.5468                 2.5121                 1.9364
 IR Inten    --     25.6005                 6.2583               157.2596

                     40                     41                     42
                      A                      A                      A
 Frequencies --   1256.9703              1275.0695              1314.3420
 Red. masses --      1.4290                 1.3608                 1.3107
 Frc consts  --      1.3303                 1.3035                 1.3340
 IR Inten    --      8.0624                 0.5818                67.5835

                     43                     44                     45
                      A                      A                      A
 Frequencies --   1329.2109              1331.9504              1358.4109
 Red. masses --      1.3837                 1.3991                 1.4420
 Frc consts  --      1.4404                 1.4625                 1.5678
 IR Inten    --     15.0716                17.7395                 0.3073

                     46                     47                     48
                      A                      A                      A
 Frequencies --   1363.4418              1366.7438              1387.5337
 Red. masses --      1.3585                 1.4856                 1.4334
 Frc consts  --      1.4880                 1.6350                 1.6260
 IR Inten    --      2.6045                15.1289                 6.3763

                     49                     50                     51
                      A                      A                      A
 Frequencies --   1438.5964              1499.2337              1504.8416
 Red. masses --      1.2288                 2.6008                 1.0831
 Frc consts  --      1.4984                 3.4442                 1.4451
 IR Inten    --      6.4503                24.2077                 3.0526

                     52                     53                     54
                      A                      A                      A
 Frequencies --   1508.2180              1513.9751              1521.7424
 Red. masses --      1.2965                 1.1005                 1.0877
 Frc consts  --      1.7376                 1.4862                 1.4840
 IR Inten    --      7.6530                 3.7172                 3.0952

                     55                     56                     57
                      A                      A                      A
 Frequencies --   1529.0166              1537.4838              1540.9029
 Red. masses --      1.0407                 1.0649                 1.1234
 Frc consts  --      1.4335                 1.4831                 1.5716
 IR Inten    --      8.2142                10.6609                 5.1031

                     58                     59                     60
                      A                      A                      A
 Frequencies --   1827.5368              3053.1052              3056.3816
 Red. masses --     11.5545                 1.0702                 1.0687
 Frc consts  --     22.7370                 5.8775                 5.8818
 IR Inten    --    188.3055                23.4033                16.5900

                     61                     62                     63
                      A                      A                      A
 Frequencies --   3061.2182              3061.2726              3062.8427
 Red. masses --      1.0410                 1.0627                 1.0612
 Frc consts  --      5.7477                 5.8677                 5.8653
 IR Inten    --     18.3802                 5.1455                28.0471

                     64                     65                     66
                      A                      A                      A
 Frequencies --   3068.0396              3109.3646              3114.0714
 Red. masses --      1.0625                 1.0952                 1.1011
 Frc consts  --      5.8923                 6.2386                 6.2912
 IR Inten    --     14.9463                29.6857                30.9296

                     67                     68                     69
                      A                      A                      A
 Frequencies --   3121.5137              3125.0459              3130.7768
 Red. masses --      1.1032                 1.0992                 1.0973
 Frc consts  --      6.3336                 6.3247                 6.3371
 IR Inten    --     30.4729                22.8131                28.0233

                     70                     71                     72
                      A                      A                      A
 Frequencies --   3133.6198              3149.6240              3152.1932
 Red. masses --      1.1029                 1.0900                 1.1018
 Frc consts  --      6.3807                 6.3708                 6.4505
 IR Inten    --     11.5877                28.3999                22.8710

 - Thermochemistry -
 -------------------
 Temperature   298.150 Kelvin.  Pressure   1.00000 Atm.
 Atom     1 has atomic number  6 and mass  12.00000

 Molecular mass:   170.09429 amu.
 Principal axes and moments of inertia in atomic units:
                           1         2         3
     Eigenvalues --  1086.678613025.422333283.40319
           X            0.99983  -0.00047   0.01823
           Y            0.00250   0.99382  -0.11099
           Z           -0.01806   0.11102   0.99365
 This molecule is an asymmetric top.
 Rotational symmetry number  1.
 Warning -- assumption of classical behavior for rotation
           may cause significant error
 Rotational temperatures (Kelvin)      0.07971     0.02863     0.02638
 Rotational constants (GHZ):           1.66079     0.59653     0.54966
 Zero-point vibrational energy     584584.2 (Joules/Mol)
                                  139.71898 (Kcal/Mol)
 Warning -- explicit consideration of  16 degrees of freedom as
           vibrations may cause significant error
 Vibrational temperatures:     22.42    40.82    96.00    99.59   143.38
          (Kelvin)            262.37   320.83   360.31   409.47   429.03
                              505.20   575.13   662.75   741.21   777.45
                              831.66   944.12  1030.02  1058.48  1150.11
                             1174.36  1220.69  1263.96  1296.01  1316.06
                             1352.64  1402.02  1427.08  1460.92  1499.53
                             1511.63  1544.18  1582.72  1607.75  1629.63
                             1708.33  1742.96  1751.22  1795.04  1808.50
                             1834.54  1891.04  1912.44  1916.38  1954.45
                             1961.69  1966.44  1996.35  2069.82  2157.06
                             2165.13  2169.99  2178.27  2189.45  2199.91
                             2212.10  2217.02  2629.42  4392.74  4397.45
                             4404.41  4404.49  4406.75  4414.22  4473.68
                             4480.45  4491.16  4496.24  4504.49  4508.58
                             4531.61  4535.30

 Zero-point correction=                           0.222656 (Hartree/Particle)
 Thermal correction to Energy=                    0.234813
 Thermal correction to Enthalpy=                  0.235757
 Thermal correction to Gibbs Free Energy=         0.181746
 Sum of electronic and zero-point Energies=           -576.858960
 Sum of electronic and thermal Energies=              -576.846803
 Sum of electronic and thermal Enthalpies=            -576.845859
 Sum of electronic and thermal Free Energies=         -576.899870

                     E (Thermal)             CV                S
                      KCal/Mol        Cal/Mol-Kelvin    Cal/Mol-Kelvin
 Total                  147.347             44.335            113.675
 Electronic               0.000              0.000              0.000
 Translational            0.889              2.981             41.301
 Rotational               0.889              2.981             30.757
 Vibrational            145.570             38.373             41.617
 Vibration     1          0.593              1.986              7.129
 Vibration     2          0.593              1.984              5.940
 Vibration     3          0.598              1.970              4.248
 Vibration     4          0.598              1.969              4.175
 Vibration     5          0.604              1.949              3.461
 Vibration     6          0.630              1.864              2.304
 Vibration     7          0.649              1.806              1.935
 Vibration     8          0.663              1.762              1.728
 Vibration     9          0.683              1.702              1.506
 Vibration    10          0.691              1.677              1.427
 Vibration    11          0.728              1.573              1.161
 Vibration    12          0.766              1.471              0.964
 Vibration    13          0.818              1.337              0.764
 Vibration    14          0.870              1.216              0.621
 Vibration    15          0.895              1.161              0.565
 Vibration    16          0.935              1.079              0.489

 Optimization completed.
    -- Stationary point found.

 1\1\GINC-NODE201\Freq\RB3LYP\6-31G(d)\C9H14O3\VSC10255\09-Dec-2020\0\\
 #N Geom=AllCheck Guess=TCheck SCRF=Check GenChk RB3LYP/6-31G(d) Freq\\
 CID_140841400_JID_2951_neutraal\\0,1\C,1.2648749696,-0.3323783626,-0.0
 24125393\C,0.383547587,-0.7659225931,1.1580526899\C,0.9339153194,-0.29
 13592554,2.4832613142\O,0.3939747288,0.4784267526,3.2465403537\O,2.160
 62518,-0.8347636236,2.7208247193\C,2.7606655331,-0.4220520604,3.934285
 5789\C,3.4566615636,0.8581970506,4.0138723072\O,4.1554213614,-0.419946
 9433,3.9001244962\C,3.5682062622,1.6464747305,5.3215392442\C,3.8462276

 Normal termination of Gaussian 16 at Wed Dec  9 18:33:04 2020.

 ----------------------------------------------------------------------
 # B3LYP/6-311++G(d,p) empiricaldispersion=gd3bj scf=xqc pop=npa geom=c
 heck
 ----------------------------------------------------------------------

 ---------------------------------------
 CID_140841400_JID_2951_Energie_neutraal
 ---------------------------------------
 Structure from the checkpoint file:  "JID_2951.chk"
 Charge =  0 Multiplicity = 1

 SCF Done:  E(RB3LYP) =  -577.247259646     A.U. after   14 cycles
 Normal termination of Gaussian 16 at Wed Dec  9 18:35:28 2020.

 ----------------------------------------------------------------------
 # B3LYP/6-311++G(d,p) empiricaldispersion=gd3bj scf=xqc pop=npa geom=c
 heck
 ----------------------------------------------------------------------

 -------------------------------------
 CID_140841400_JID_2951_Energie_kation
 -------------------------------------
 Structure from the checkpoint file:  "JID_2951.chk"
 Charge =  1 Multiplicity = 2

 SCF Done:  E(UB3LYP) =  -576.893958750     A.U. after   25 cycles
 Normal termination of Gaussian 16 at Wed Dec  9 18:41:21 2020.
 Gaussian 16:  ES64L-G16RevA.03 25-Dec-2016

 ------------------------------------
 CID_140841400_JID_2951_Energie_anion
 ------------------------------------
 Structure from the checkpoint file:  "JID_2951.chk"
 Charge = -1 Multiplicity = 2

                         Standard orientation:
 ---------------------------------------------------------------------
 Center     Atomic      Atomic             Coordinates (Angstroms)
 Number     Number       Type             X           Y           Z
 ---------------------------------------------------------------------
      1          6           0       -3.210585    1.034517   -0.979829
      2          6           0       -3.177965    0.243873    0.337768
      3          6           0       -1.774834   -0.166106    0.721738
      4          8           0       -1.173009    0.187181    1.711534
      5          8           0       -1.238216   -0.994752   -0.217373
      6          6           0        0.087931   -1.408215    0.053275
      7          6           0        1.211812   -0.533345   -0.264964
      8          8           0        0.837827   -1.678506   -1.091764
      9          6           0        2.530116   -0.583077    0.511838
     10          6           0        3.180598    0.793249    0.258340
     11          6           0        1.982120    1.723395   -0.009666
     12          6           0        1.046104    0.856269   -0.866143
     13          1           0       -2.612525    1.949091   -0.902212
     14          1           0       -4.237496    1.323528   -1.223935
     15          1           0       -2.814244    0.433929   -1.802903
     16          1           0       -3.578507    0.834995    1.164725
     17          1           0       -3.785944   -0.663242    0.237252
     18          1           0        0.129781   -2.139161    0.860388
     19          1           0        3.144464   -1.426462    0.183524
     20          1           0        2.317714   -0.718993    1.578989
     21          1           0        3.816857    0.748619   -0.634449
     22          1           0        3.806498    1.126713    1.091438
     23          1           0        1.483558    1.972684    0.935219
     24          1           0        2.264277    2.660519   -0.499351
     25          1           0        0.008645    1.198688   -0.875108
     26          1           0        1.392321    0.824344   -1.906895
 ---------------------------------------------------------------------

 SCF Done:  E(UB3LYP) =  -577.231429764     A.U. after   33 cycles
 SCF Done:  E(UB3LYP) =  -577.231429764     a.u. after    1 cycles

 The electronic state is 2-A.
 Alpha  occ. eigenvalues --  -19.07504 -19.04909 -19.01449 -10.20247 -10.18598
 Alpha  occ. eigenvalues --  -10.13936 -10.08172 -10.07821 -10.07260 -10.07155
 Alpha  occ. eigenvalues --  -10.06876 -10.06274  -1.03191  -0.98572  -0.92216
 Alpha  occ. eigenvalues --   -0.74114  -0.68937  -0.62541  -0.60516  -0.59379
 Alpha  occ. eigenvalues --   -0.53994  -0.50181  -0.48558  -0.45261  -0.42230
 Alpha  occ. eigenvalues --   -0.39762  -0.39046  -0.38668  -0.35814  -0.35139
 Alpha  occ. eigenvalues --   -0.33758  -0.32557  -0.31467  -0.29901  -0.28447
 Alpha  occ. eigenvalues --   -0.28013  -0.26800  -0.25919  -0.25522  -0.25292
 Alpha  occ. eigenvalues --   -0.24616  -0.23410  -0.23273  -0.19624  -0.18973
 Alpha  occ. eigenvalues --   -0.17782   0.04680
 Alpha virt. eigenvalues --    0.06236   0.07616   0.08422   0.08816   0.08968
 Alpha virt. eigenvalues --    0.09602   0.10090   0.10871   0.11361   0.11639
 Alpha virt. eigenvalues --    0.12345   0.12458   0.13616   0.14957   0.15917

  Beta  occ. eigenvalues --  -19.07489 -19.04906 -19.01393 -10.20193 -10.18596
  Beta  occ. eigenvalues --  -10.13937 -10.08153 -10.07810 -10.07242 -10.07126
  Beta  occ. eigenvalues --  -10.06856 -10.06213  -1.03156  -0.98534  -0.92144
  Beta  occ. eigenvalues --   -0.74089  -0.68857  -0.62503  -0.60478  -0.59319
  Beta  occ. eigenvalues --   -0.53899  -0.50133  -0.48502  -0.45215  -0.42176
  Beta  occ. eigenvalues --   -0.39670  -0.39002  -0.38632  -0.35669  -0.35105
  Beta  occ. eigenvalues --   -0.33703  -0.32528  -0.31408  -0.29856  -0.28382
  Beta  occ. eigenvalues --   -0.27958  -0.26750  -0.25881  -0.25470  -0.25238
  Beta  occ. eigenvalues --   -0.24551  -0.23335  -0.23165  -0.19595  -0.18940
  Beta  occ. eigenvalues --   -0.17736
  Beta virt. eigenvalues --    0.06934   0.07631   0.08038   0.08909   0.09275
  Beta virt. eigenvalues --    0.09565   0.10174   0.10615   0.11277   0.11735
  Beta virt. eigenvalues --    0.12113   0.12598   0.12771   0.13948   0.14969

 Mulliken charges and spin densities:
               1          2
     1  C    1.208431  -1.671208
     2  C   -0.320282   0.048716
     3  C    0.039996  -0.211508
     4  O   -0.228524   0.036035
     5  O    0.009909   0.036787
     6  C   -0.271595   0.145638
     7  C   -0.342683   0.413872
     8  O   -0.097173   0.009406
     9  C    0.247089  -0.729583
    10  C    0.147145  -0.477753
    11  C   -0.134217  -0.264229
    12  C    0.480062  -0.410990
    13  H   -0.308960   0.457621
    14  H   -1.020919   1.197658
    15  H    0.098013   0.065141
    16  H    0.032858   0.124492
    17  H   -0.363427   0.544906
    18  H    0.097504   0.121013
    19  H    0.024901   0.155277
    20  H    0.078476   0.063275
    21  H    0.068055   0.072099
    22  H   -0.536520   0.699195
    23  H    0.189957  -0.040416
    24  H   -0.560265   0.739459
    25  H    0.671440  -0.533598
    26  H   -0.209272   0.408695
 Sum of Mulliken charges =  -1.00000   1.00000

 Dipole moment (field-independent basis, Debye):
    X=              3.3068    Y=             -4.1212    Z=              1.9935  Tot=              5.6474
 Quadrupole moment (field-independent basis, Debye-Ang):
   XX=           -160.2959   YY=           -108.7577   ZZ=           -105.5941
   XY=              0.2196   XZ=             -7.1571   YZ=             -0.2694

 Summary of Natural Population Analysis:

                                       Natural Population
                Natural  -----------------------------------------------
    Atom  No    Charge         Core      Valence    Rydberg      Total
 -----------------------------------------------------------------------
      C    1   -0.28241      0.99966     2.27726    0.00548     3.28241
      C    2   -0.23602      0.99960     2.22745    0.00898     3.23602
      C    3    0.41452      0.99969     1.55998    0.02581     2.58548
      O    4   -0.30054      0.99987     3.29499    0.00568     4.30054
      O    5   -0.28363      0.99985     3.27554    0.00824     4.28363
      C    6    0.20218      0.99935     1.78135    0.01712     2.79782
      C    7    0.11216      0.99950     1.87341    0.01493     2.88784
      O    8   -0.27534      0.99991     3.26892    0.00651     4.27534
      C    9   -0.20326      0.99960     2.19487    0.00880     3.20326
      C   10   -0.18978      0.99964     2.18205    0.00808     3.18978
      C   11   -0.19063      0.99964     2.18249    0.00851     3.19063
      C   12   -0.20178      0.99959     2.19310    0.00909     3.20178
      H   13    0.09848      0.00000     0.40009    0.00143     0.40152
      H   14    0.10588      0.00000     0.38950    0.00462     0.39412
      H   15    0.10258      0.00000     0.39592    0.00150     0.39742
      H   16    0.10786      0.00000     0.39105    0.00109     0.39214
      H   17    0.11159      0.00000     0.38625    0.00216     0.38841
      H   18    0.08352      0.00000     0.41536    0.00112     0.41648
      H   19    0.10740      0.00000     0.39147    0.00113     0.39260
      H   20    0.10407      0.00000     0.39482    0.00111     0.39593
      H   21    0.09598      0.00000     0.40236    0.00166     0.40402
      H   22    0.10125      0.00000     0.39741    0.00134     0.39875
      H   23    0.09866      0.00000     0.39996    0.00138     0.40134
      H   24    0.10293      0.00000     0.39552    0.00155     0.39707
      H   25    0.10939      0.00000     0.38917    0.00145     0.39061
      H   26    0.10497      0.00000     0.39373    0.00130     0.39503
 =======================================================================
   * Total *   -0.00000     11.99590    33.85402    0.15008    46.00000

 Normal termination of Gaussian 16 at Wed Dec  9 18:48:56 2020.
