 Gaussian 16, Revision A.03,

 -----------------------------------------------------------
 # opt freq B3LYP/6-31G(d) empiricaldispersion=gd3bj scf=xqc
 -----------------------------------------------------------

 ------------------------------
 CID_23422301_JID_1551_neutraal
 ------------------------------
 Symbolic Z-matrix:
 Charge =  0 Multiplicity = 1

 SCF Done:  E(RB3LYP) =  -526.504668112     A.U. after   15 cycles
 SCF Done:  E(RB3LYP) =  -526.510195518     A.U. after   13 cycles
 SCF Done:  E(RB3LYP) =  -526.510777451     A.U. after   12 cycles
 SCF Done:  E(RB3LYP) =  -526.510823863     A.U. after   11 cycles
 SCF Done:  E(RB3LYP) =  -526.510844836     A.U. after   11 cycles
 SCF Done:  E(RB3LYP) =  -526.510924459     A.U. after   10 cycles
 SCF Done:  E(RB3LYP) =  -526.511033467     A.U. after   11 cycles
 SCF Done:  E(RB3LYP) =  -526.511098490     A.U. after   11 cycles
 SCF Done:  E(RB3LYP) =  -526.511134817     A.U. after   10 cycles
 SCF Done:  E(RB3LYP) =  -526.511188363     A.U. after   11 cycles
 SCF Done:  E(RB3LYP) =  -526.511204222     A.U. after   10 cycles
 SCF Done:  E(RB3LYP) =  -526.511213971     A.U. after   10 cycles
 SCF Done:  E(RB3LYP) =  -526.511216899     A.U. after    9 cycles
 SCF Done:  E(RB3LYP) =  -526.511217188     A.U. after    8 cycles
 Optimization completed.
    -- Stationary point found.
 Normal termination of Gaussian 16 at Tue Dec  8 20:22:00 2020.

 --------------------------------------------------------------------
 #N Geom=AllCheck Guess=TCheck SCRF=Check GenChk RB3LYP/6-31G(d) Freq
 --------------------------------------------------------------------

 Structure from the checkpoint file:  "JID_1551.chk"
 ------------------------------
 CID_23422301_JID_1551_neutraal
 ------------------------------
 Charge =  0 Multiplicity = 1

 SCF Done:  E(RB3LYP) =  -526.511217188     A.U. after    1 cycles

  Exact polarizability: 127.332   2.509  94.390  -0.000   0.000  39.173
 Approx polarizability: 216.475  12.748 161.381  -0.002   0.002  60.141

                      1                      2                      3
                      A                      A                      A
 Frequencies --     86.6103               103.5062               124.4120
 Red. masses --      1.2033                 4.2120                 3.7578
 Frc consts  --      0.0053                 0.0266                 0.0343
 IR Inten    --      0.7015                 2.5258                 0.0035

                      4                      5                      6
                      A                      A                      A
 Frequencies --    211.7852               238.1126               316.1040
 Red. masses --      3.4240                 5.2721                 8.8888
 Frc consts  --      0.0905                 0.1761                 0.5233
 IR Inten    --      1.1714                 0.1169                 0.4598

                      7                      8                      9
                      A                      A                      A
 Frequencies --    427.3715               430.0966               478.8339
 Red. masses --      2.3725                 6.1051                 7.6946
 Frc consts  --      0.2553                 0.6654                 1.0395
 IR Inten    --     17.8458                 1.1315                 0.1322

                     10                     11                     12
                      A                      A                      A
 Frequencies --    520.6565               554.5276               628.4169
 Red. masses --      6.7944                 1.3719                 5.4316
 Frc consts  --      1.0852                 0.2486                 1.2638
 IR Inten    --      0.3963                75.0512                 4.9262

                     13                     14                     15
                      A                      A                      A
 Frequencies --    638.6751               709.9060               726.6091
 Red. masses --      3.7128                 6.9732                 5.3134
 Frc consts  --      0.8923                 2.0705                 1.6528
 IR Inten    --      4.0399                12.2205                 7.1936

                     16                     17                     18
                      A                      A                      A
 Frequencies --    779.2118               784.1496               793.0347
 Red. masses --      5.4326                 7.4807                 1.6753
 Frc consts  --      1.9434                 2.7101                 0.6208
 IR Inten    --     35.3694                21.7578                 1.5738

                     19                     20                     21
                      A                      A                      A
 Frequencies --    869.5729               905.1654               991.1634
 Red. masses --      8.4387                 3.3960                 1.4639
 Frc consts  --      3.7596                 1.6393                 0.8473
 IR Inten    --     16.8494                11.8028                 3.9998

                     22                     23                     24
                      A                      A                      A
 Frequencies --   1052.3807              1083.1334              1142.6142
 Red. masses --      2.0258                 6.2537                 4.1338
 Frc consts  --      1.3219                 4.3227                 3.1798
 IR Inten    --     23.4439                63.8204                 1.1838

                     25                     26                     27
                      A                      A                      A
 Frequencies --   1160.1954              1236.9740              1288.3736
 Red. masses --      1.2970                 1.9447                 1.9871
 Frc consts  --      1.0286                 1.7532                 1.9434
 IR Inten    --      0.1230                 4.6564                18.4588

                     28                     29                     30
                      A                      A                      A
 Frequencies --   1320.1059              1341.2742              1400.9753
 Red. masses --      2.7868                 1.4678                 3.0412
 Frc consts  --      2.8614                 1.5558                 3.5169
 IR Inten    --      6.0631                42.8644                10.4151

                     31                     32                     33
                      A                      A                      A
 Frequencies --   1447.5203              1479.2697              1513.4899
 Red. masses --      4.5101                 1.2785                 1.0397
 Frc consts  --      5.5678                 1.6483                 1.4031
 IR Inten    --     61.9993                 4.4693                 9.8545

                     34                     35                     36
                      A                      A                      A
 Frequencies --   1528.9968              1540.4301              1568.2157
 Red. masses --      2.9444                 1.2666                 5.0767
 Frc consts  --      4.0557                 1.7708                 7.3561
 IR Inten    --     64.3231                11.7737                15.3794

                     37                     38                     39
                      A                      A                      A
 Frequencies --   1605.3844              1687.3135              1813.4112
 Red. masses --      6.0393                 8.3130                10.1759
 Frc consts  --      9.1705                13.9444                19.7159
 IR Inten    --    214.0367               141.0371               704.2140

                     40                     41                     42
                      A                      A                      A
 Frequencies --   3060.7769              3123.2692              3163.1383
 Red. masses --      1.0346                 1.1068                 1.0912
 Frc consts  --      5.7107                 6.3615                 6.4326
 IR Inten    --     33.4735                14.1624                22.8643

                     43                     44                     45
                      A                      A                      A
 Frequencies --   3166.6490              3265.4871              3601.0384
 Red. masses --      1.1018                 1.0969                 1.0780
 Frc consts  --      6.5097                 6.8913                 8.2363
 IR Inten    --      4.4349                 0.0391                35.4622

 - Thermochemistry -
 -------------------
 Temperature   298.150 Kelvin.  Pressure   1.00000 Atm.
 Atom     1 has atomic number  6 and mass  12.00000

 Molecular mass:   150.05416 amu.
 Principal axes and moments of inertia in atomic units:
                           1         2         3
     Eigenvalues --   802.357961850.683722641.54706
           X            0.99873  -0.05048   0.00000
           Y            0.05048   0.99873  -0.00000
           Z           -0.00000   0.00000   1.00000
 This molecule is an asymmetric top.
 Rotational symmetry number  1.
 Warning -- assumption of classical behavior for rotation
           may cause significant error
 Rotational temperatures (Kelvin)      0.10795     0.04680     0.03279
 Rotational constants (GHZ):           2.24930     0.97518     0.68321
 Zero-point vibrational energy     334406.1 (Joules/Mol)
                                   79.92498 (Kcal/Mol)
 Warning -- explicit consideration of  11 degrees of freedom as
           vibrations may cause significant error
 Vibrational temperatures:    124.61   148.92   179.00   304.71   342.59
          (Kelvin)            454.80   614.89   618.81   688.94   749.11
                              797.84   904.15   918.91  1021.40  1045.43
                             1121.11  1128.22  1141.00  1251.12  1302.33
                             1426.06  1514.14  1558.39  1643.97  1669.26
                             1779.73  1853.68  1899.34  1929.79  2015.69
                             2082.66  2128.34  2177.57  2199.89  2216.34
                             2256.31  2309.79  2427.67  2609.09  4403.78
                             4493.69  4551.05  4556.10  4698.31  5181.09

 Zero-point correction=                           0.127369 (Hartree/Particle)
 Thermal correction to Energy=                    0.136108
 Thermal correction to Enthalpy=                  0.137052
 Thermal correction to Gibbs Free Energy=         0.093122
 Sum of electronic and zero-point Energies=           -526.383849
 Sum of electronic and thermal Energies=              -526.375110
 Sum of electronic and thermal Enthalpies=            -526.374165
 Sum of electronic and thermal Free Energies=         -526.418095

                     E (Thermal)             CV                S
                      KCal/Mol        Cal/Mol-Kelvin    Cal/Mol-Kelvin
 Total                   85.409             32.803             92.459
 Electronic               0.000              0.000              0.000
 Translational            0.889              2.981             40.928
 Rotational               0.889              2.981             29.752
 Vibrational             83.631             26.841             21.779
 Vibration     1          0.601              1.959              3.735
 Vibration     2          0.605              1.946              3.387
 Vibration     3          0.610              1.929              3.031
 Vibration     4          0.643              1.823              2.028
 Vibration     5          0.656              1.782              1.817
 Vibration     6          0.703              1.643              1.330
 Vibration     7          0.789              1.411              0.867
 Vibration     8          0.791              1.405              0.858
 Vibration     9          0.835              1.297              0.713
 Vibration    10          0.876              1.204              0.608
 Vibration    11          0.910              1.130              0.535

 Optimization completed.
    -- Stationary point found.
 Normal termination of Gaussian 16 at Tue Dec  8 20:25:02 2020.

 ----------------------------------------------------------------------
 # B3LYP/6-311++G(d,p) empiricaldispersion=gd3bj scf=xqc pop=npa geom=c
 heck
 ----------------------------------------------------------------------

 --------------------------------------
 CID_23422301_JID_1551_Energie_neutraal
 --------------------------------------
 Structure from the checkpoint file:  "JID_1551.chk"
 Charge =  0 Multiplicity = 1

 SCF Done:  E(RB3LYP) =  -526.656719214     A.U. after   16 cycles
 Normal termination of Gaussian 16 at Tue Dec  8 20:27:58 2020.

 ----------------------------------------------------------------------
 # B3LYP/6-311++G(d,p) empiricaldispersion=gd3bj scf=xqc pop=npa geom=c
 heck
 ----------------------------------------------------------------------

 ------------------------------------
 CID_23422301_JID_1551_Energie_kation
 ------------------------------------
 Structure from the checkpoint file:  "JID_1551.chk"
 Charge =  1 Multiplicity = 2

 SCF Done:  E(UB3LYP) =  -526.349679326     A.U. after   21 cycles
 Normal termination of Gaussian 16 at Tue Dec  8 20:32:13 2020.
 Gaussian 16:  ES64L-G16RevA.03 25-Dec-2016

 ----------------------------------------------------------------------
 # B3LYP/6-311++G(d,p) empiricaldispersion=gd3bj scf=xqc pop=npa geom=c
 heck
 ----------------------------------------------------------------------

 -----------------------------------
 CID_23422301_JID_1551_Energie_anion
 -----------------------------------
 Structure from the checkpoint file:  "JID_1551.chk"
 Charge = -1 Multiplicity = 2

                         Standard orientation:
 ---------------------------------------------------------------------
 Center     Atomic      Atomic             Coordinates (Angstroms)
 Number     Number       Type             X           Y           Z
 ---------------------------------------------------------------------
      1          6           0        2.319513   -1.808307    0.000087
      2          7           0        1.695507   -0.497750   -0.000046
      3          6           0        2.329662    0.754065    0.000053
      4          7           0        1.494921    1.755086    0.000053
      5          6           0        0.236098    1.167735   -0.000040
      6          6           0        0.361614   -0.217767   -0.000152
      7          7           0       -0.722582   -1.025435   -0.000170
      8          6           0       -2.045756   -0.466278    0.000002
      9          8           0       -2.989236   -1.234407    0.000148
     10          7           0       -2.149336    0.921912   -0.000032
     11          6           0       -1.081703    1.683969    0.000061
     12          1           0        3.402997   -1.677793   -0.000069
     13          1           0        2.035205   -2.374049   -0.893391
     14          1           0        2.035379   -2.373869    0.893737
     15          1           0        3.409665    0.818147    0.000072
     16          1           0       -0.673216   -2.036855   -0.000201
     17          1           0       -1.242282    2.762495   -0.000035
 ---------------------------------------------------------------------

 SCF Done:  E(UB3LYP) =  -526.663534796     A.U. after   33 cycles
 SCF Done:  E(UB3LYP) =  -526.663534796     a.u. after    1 cycles

 The electronic state is 2-A.
 Alpha  occ. eigenvalues --  -18.95736 -14.27576 -14.24885 -14.19404 -14.16853
 Alpha  occ. eigenvalues --  -10.16663 -10.13890 -10.12200 -10.11869 -10.08352
 Alpha  occ. eigenvalues --  -10.07527  -0.93523  -0.91652  -0.83552  -0.79988
 Alpha  occ. eigenvalues --   -0.76997  -0.65287  -0.62320  -0.54985  -0.52496
 Alpha  occ. eigenvalues --   -0.50552  -0.44485  -0.42168  -0.39578  -0.38466
 Alpha  occ. eigenvalues --   -0.37081  -0.33169  -0.33133  -0.32205  -0.30769
 Alpha  occ. eigenvalues --   -0.29150  -0.28482  -0.22935  -0.20489  -0.17825
 Alpha  occ. eigenvalues --   -0.16337  -0.14925  -0.13470  -0.10044   0.03701
 Alpha virt. eigenvalues --    0.05599   0.08024   0.09341   0.09922   0.10840
 Alpha virt. eigenvalues --    0.12122   0.12394   0.13059   0.14325   0.15449
 Alpha virt. eigenvalues --    0.15797   0.16024   0.17038   0.17495   0.18239

  Beta  occ. eigenvalues --  -18.95671 -14.27608 -14.24786 -14.19314 -14.16739
  Beta  occ. eigenvalues --  -10.16609 -10.13776 -10.12140 -10.11785 -10.08018
  Beta  occ. eigenvalues --  -10.07596  -0.93395  -0.91541  -0.83378  -0.79823
  Beta  occ. eigenvalues --   -0.76697  -0.65097  -0.62135  -0.54489  -0.52372
  Beta  occ. eigenvalues --   -0.50439  -0.44357  -0.42034  -0.39439  -0.38298
  Beta  occ. eigenvalues --   -0.36888  -0.33041  -0.32730  -0.32101  -0.30663
  Beta  occ. eigenvalues --   -0.28799  -0.28342  -0.22103  -0.19765  -0.17709
  Beta  occ. eigenvalues --   -0.15884  -0.14801  -0.13334  -0.09498
  Beta virt. eigenvalues --    0.06825   0.08094   0.08819   0.10204   0.10243
  Beta virt. eigenvalues --    0.11144   0.12676   0.12759   0.13387   0.14598
  Beta virt. eigenvalues --    0.15557   0.15802   0.16082   0.17190   0.17574

 Mulliken charges and spin densities:
               1          2
     1  C    1.607564  -1.969992
     2  N   -0.297615   0.216724
     3  C    0.236904   0.027076
     4  N   -0.232763   0.063568
     5  C    1.036315  -0.608877
     6  C   -0.673268   0.316425
     7  N   -0.513124   0.140518
     8  C    0.149746   0.077185
     9  O   -0.401585   0.027299
    10  N   -0.259346   0.040579
    11  C   -0.207812   0.066831
    12  H   -0.810281   0.959003
    13  H   -0.409382   0.586639
    14  H   -0.482093   0.663038
    15  H   -0.144273   0.329833
    16  H    0.232298   0.085054
    17  H    0.168715  -0.020902
 Sum of Mulliken charges =  -1.00000   1.00000

 Dipole moment (field-independent basis, Debye):
    X=              0.8288    Y=              2.0849    Z=             -0.8377  Tot=              2.3949
 Quadrupole moment (field-independent basis, Debye-Ang):
   XX=           -127.0341   YY=            -98.1149   ZZ=            -78.1224
   XY=              6.7101   XZ=             -2.5712   YZ=              1.0806

 Summary of Natural Population Analysis:

                                       Natural Population
                Natural  -----------------------------------------------
    Atom  No    Charge         Core      Valence    Rydberg      Total
 -----------------------------------------------------------------------
      C    1   -0.17529      0.99964     2.16739    0.00827     3.17529
      N    2   -0.22184      0.99963     2.71238    0.00983     3.72184
      C    3    0.11664      0.99964     1.86576    0.01797     2.88336
      N    4   -0.23074      0.99970     2.72139    0.00964     3.73074
      C    5   -0.02045      0.99944     2.00706    0.01395     3.02045
      C    6    0.21478      0.99945     1.77334    0.01243     2.78522
      N    7   -0.29610      0.99964     2.78817    0.00829     3.79610
      C    8    0.39478      0.99971     1.57873    0.02678     2.60522
      O    9   -0.32367      0.99987     3.31771    0.00609     4.32367
      N   10   -0.27005      0.99968     2.75987    0.01050     3.77005
      C   11    0.12584      0.99959     1.86102    0.01356     2.87416
      H   12    0.10885      0.00000     0.38730    0.00385     0.39115
      H   13    0.10040      0.00000     0.39731    0.00229     0.39960
      H   14    0.10149      0.00000     0.39623    0.00228     0.39851
      H   15    0.09132      0.00000     0.40723    0.00145     0.40868
      H   16    0.20240      0.00000     0.29497    0.00263     0.29760
      H   17    0.08163      0.00000     0.41690    0.00148     0.41837
 =======================================================================
   * Total *   -0.00000     10.99598    27.85275    0.15127    39.00000

 Normal termination of Gaussian 16 at Tue Dec  8 20:37:44 2020.
