 Gaussian 16, Revision A.03,

 -----------------------------------------------------------
 # opt freq B3LYP/6-31G(d) empiricaldispersion=gd3bj scf=xqc
 -----------------------------------------------------------

 -------------------------------
 CID_117345362_JID_7509_neutraal
 -------------------------------
 Symbolic Z-matrix:
 Charge =  0 Multiplicity = 1

 SCF Done:  E(RB3LYP) =  -767.407958892     A.U. after   15 cycles
 SCF Done:  E(RB3LYP) =  -767.415051288     A.U. after   13 cycles
 SCF Done:  E(RB3LYP) =  -767.415644949     A.U. after   13 cycles
 SCF Done:  E(RB3LYP) =  -767.416521064     A.U. after   12 cycles
 SCF Done:  E(RB3LYP) =  -767.416529974     A.U. after   13 cycles
 SCF Done:  E(RB3LYP) =  -767.417453162     A.U. after   12 cycles
 SCF Done:  E(RB3LYP) =  -767.417669596     A.U. after   13 cycles
 SCF Done:  E(RB3LYP) =  -767.417750289     A.U. after   12 cycles
 SCF Done:  E(RB3LYP) =  -767.417784899     A.U. after   11 cycles
 SCF Done:  E(RB3LYP) =  -767.417798586     A.U. after   11 cycles
 SCF Done:  E(RB3LYP) =  -767.417810941     A.U. after    9 cycles
 SCF Done:  E(RB3LYP) =  -767.417812385     A.U. after    9 cycles
 SCF Done:  E(RB3LYP) =  -767.417812776     A.U. after    8 cycles
 SCF Done:  E(RB3LYP) =  -767.417812843     A.U. after    7 cycles
 Optimization completed.
    -- Stationary point found.
 Normal termination of Gaussian 16 at Fri Dec 11 12:28:46 2020.

 --------------------------------------------------------------------
 #N Geom=AllCheck Guess=TCheck SCRF=Check GenChk RB3LYP/6-31G(d) Freq
 --------------------------------------------------------------------

 Structure from the checkpoint file:  "JID_7509.chk"
 -------------------------------
 CID_117345362_JID_7509_neutraal
 -------------------------------
 Charge =  0 Multiplicity = 1

 SCF Done:  E(RB3LYP) =  -767.417812843     A.U. after    1 cycles

  Exact polarizability: 199.518   1.628 152.366  -5.827 -17.762 117.290
 Approx polarizability: 294.604   0.420 232.997 -16.595 -39.078 183.943

                      1                      2                      3
                      A                      A                      A
 Frequencies --     30.1643                44.2516                48.7817
 Red. masses --      3.9969                 4.9562                 3.8559
 Frc consts  --      0.0021                 0.0057                 0.0054
 IR Inten    --      0.3702                 0.7813                 1.5263

                      4                      5                      6
                      A                      A                      A
 Frequencies --     66.0000                82.8981                97.3939
 Red. masses --      2.7679                 3.2686                 4.5114
 Frc consts  --      0.0071                 0.0132                 0.0252
 IR Inten    --      1.1649                 0.3544                 3.8063

                      7                      8                      9
                      A                      A                      A
 Frequencies --    134.4071               156.1276               172.2966
 Red. masses --      2.7346                 2.9814                 3.1590
 Frc consts  --      0.0291                 0.0428                 0.0553
 IR Inten    --      0.3489                 1.5300                 3.1138

                     10                     11                     12
                      A                      A                      A
 Frequencies --    207.3587               234.7477               253.7377
 Red. masses --      1.7268                 2.1047                 1.2708
 Frc consts  --      0.0437                 0.0683                 0.0482
 IR Inten    --      3.4875                 2.8641                 0.6062

                     13                     14                     15
                      A                      A                      A
 Frequencies --    261.9537               285.8753               305.6744
 Red. masses --      3.2812                 1.3075                 4.0627
 Frc consts  --      0.1327                 0.0630                 0.2237
 IR Inten    --      2.8365                 2.9587                 2.9659

                     16                     17                     18
                      A                      A                      A
 Frequencies --    318.6170               320.7011               331.5870
 Red. masses --      1.9903                 2.6189                 1.2194
 Frc consts  --      0.1190                 0.1587                 0.0790
 IR Inten    --      1.4135                 6.6821                42.2911

                     19                     20                     21
                      A                      A                      A
 Frequencies --    347.4108               371.6549               388.8686
 Red. masses --      2.2655                 2.0125                 1.7107
 Frc consts  --      0.1611                 0.1638                 0.1524
 IR Inten    --     12.6188                37.1211                48.8909

                     22                     23                     24
                      A                      A                      A
 Frequencies --    405.3373               431.8663               441.7973
 Red. masses --      2.7671                 2.3106                 2.4663
 Frc consts  --      0.2679                 0.2539                 0.2836
 IR Inten    --      3.4688                 2.5072                 2.0921

                     25                     26                     27
                      A                      A                      A
 Frequencies --    456.3734               509.1013               531.9418
 Red. masses --      2.5545                 3.5868                 3.5861
 Frc consts  --      0.3135                 0.5477                 0.5979
 IR Inten    --      0.4506                 2.4210                 1.7581

                     28                     29                     30
                      A                      A                      A
 Frequencies --    559.7598               586.7397               616.2490
 Red. masses --      4.0046                 4.1134                 3.5317
 Frc consts  --      0.7393                 0.8343                 0.7902
 IR Inten    --      7.7294                14.0553                 5.2195

                     31                     32                     33
                      A                      A                      A
 Frequencies --    683.0214               724.5494               750.4550
 Red. masses --      4.7783                 5.3138                 3.4130
 Frc consts  --      1.3134                 1.6436                 1.1325
 IR Inten    --      2.3351                 2.1390                 9.2000

                     34                     35                     36
                      A                      A                      A
 Frequencies --    770.5067               814.0013               849.7712
 Red. masses --      4.0613                 1.4985                 2.0627
 Frc consts  --      1.4206                 0.5850                 0.8776
 IR Inten    --      3.4142                31.9314                71.2337

                     37                     38                     39
                      A                      A                      A
 Frequencies --    864.0096               871.5490               881.4390
 Red. masses --      3.6759                 2.6927                 2.4887
 Frc consts  --      1.6168                 1.2051                 1.1392
 IR Inten    --     37.8580                10.6714                 3.3819

                     40                     41                     42
                      A                      A                      A
 Frequencies --    911.8154               946.8518               971.1551
 Red. masses --      1.5303                 1.3694                 2.1297
 Frc consts  --      0.7496                 0.7234                 1.1834
 IR Inten    --     88.0455                13.1148                 2.1882

                     43                     44                     45
                      A                      A                      A
 Frequencies --    999.4954              1032.6254              1052.4248
 Red. masses --      1.9613                 2.1967                 2.3769
 Frc consts  --      1.1544                 1.3801                 1.5511
 IR Inten    --     27.6941                24.2949                52.1069

                     46                     47                     48
                      A                      A                      A
 Frequencies --   1064.2748              1068.9646              1079.1965
 Red. masses --      2.1441                 1.9204                 1.5255
 Frc consts  --      1.4309                 1.2929                 1.0468
 IR Inten    --     57.8801                40.5218                 5.2897

                     49                     50                     51
                      A                      A                      A
 Frequencies --   1089.9893              1134.7845              1141.1860
 Red. masses --      1.8803                 1.3523                 1.9778
 Frc consts  --      1.3162                 1.0260                 1.5176
 IR Inten    --     10.2733                21.1194                18.3055

                     52                     53                     54
                      A                      A                      A
 Frequencies --   1166.6275              1187.9332              1195.6794
 Red. masses --      1.2743                 1.4431                 1.4590
 Frc consts  --      1.0218                 1.1999                 1.2290
 IR Inten    --     16.0481                 1.6858                46.8412

                     55                     56                     57
                      A                      A                      A
 Frequencies --   1216.8332              1225.8175              1245.4921
 Red. masses --      1.6640                 2.0284                 1.5849
 Frc consts  --      1.4516                 1.7958                 1.4486
 IR Inten    --     15.0528                19.9138                48.7486

                     58                     59                     60
                      A                      A                      A
 Frequencies --   1274.0355              1306.6475              1309.7797
 Red. masses --      2.4075                 2.0193                 2.3830
 Frc consts  --      2.3024                 2.0312                 2.4086
 IR Inten    --     37.7795                61.4790                17.6364

                     61                     62                     63
                      A                      A                      A
 Frequencies --   1328.2310              1335.1858              1351.4485
 Red. masses --      1.6256                 2.8040                 1.5350
 Frc consts  --      1.6897                 2.9452                 1.6518
 IR Inten    --     47.2106               102.2302                77.1159

                     64                     65                     66
                      A                      A                      A
 Frequencies --   1377.3847              1398.6991              1410.5517
 Red. masses --      3.6673                 1.3183                 1.1804
 Frc consts  --      4.0992                 1.5195                 1.3837
 IR Inten    --     26.8219                22.6382                 1.4185

                     67                     68                     69
                      A                      A                      A
 Frequencies --   1422.0634              1445.0807              1464.8354
 Red. masses --      1.4267                 1.2069                 1.1618
 Frc consts  --      1.6999                 1.4850                 1.4688
 IR Inten    --     25.6894                 0.9849                 4.7681

                     70                     71                     72
                      A                      A                      A
 Frequencies --   1484.0031              1496.4657              1502.4271
 Red. masses --      4.1213                 1.2102                 1.1505
 Frc consts  --      5.3476                 1.5967                 1.5301
 IR Inten    --     44.0919                 0.5321                 8.7701

                     73                     74                     75
                      A                      A                      A
 Frequencies --   1508.4734              1512.2398              1518.4863
 Red. masses --      1.2727                 1.0468                 1.0728
 Frc consts  --      1.7062                 1.4105                 1.4575
 IR Inten    --     11.9818                12.7209                 6.6359

                     76                     77                     78
                      A                      A                      A
 Frequencies --   1520.0511              1528.7847              1529.7556
 Red. masses --      1.0964                 1.1063                 1.3070
 Frc consts  --      1.4925                 1.5233                 1.8021
 IR Inten    --      5.7630                 8.6591                 6.7968

                     79                     80                     81
                      A                      A                      A
 Frequencies --   1535.6602              1541.1958              1549.8546
 Red. masses --      1.2016                 1.0819                 1.1634
 Frc consts  --      1.6695                 1.5142                 1.6466
 IR Inten    --      1.6326                 6.0166                18.7283

                     82                     83                     84
                      A                      A                      A
 Frequencies --   1642.2766              1650.5150              1706.5831
 Red. masses --      6.4166                 5.9391                 1.0869
 Frc consts  --     10.1964                 9.5326                 1.8651
 IR Inten    --     71.3621                80.6048                20.5581

                     85                     86                     87
                      A                      A                      A
 Frequencies --   1762.7325              2916.2202              2929.0713
 Red. masses --     11.1452                 1.0626                 1.0632
 Frc consts  --     20.4037                 5.3244                 5.3745
 IR Inten    --    193.5440                44.4090               125.9568

                     88                     89                     90
                      A                      A                      A
 Frequencies --   2975.4908              3057.5459              3059.7805
 Red. masses --      1.0715                 1.0604                 1.0441
 Frc consts  --      5.5892                 5.8407                 5.7596
 IR Inten    --     76.5876                44.1886                17.3877

                     91                     92                     93
                      A                      A                      A
 Frequencies --   3078.4039              3080.1253              3084.1909
 Red. masses --      1.0689                 1.0620                 1.0679
 Frc consts  --      5.9684                 5.9363                 5.9851
 IR Inten    --     35.2351                16.0601                33.7517

                     94                     95                     96
                      A                      A                      A
 Frequencies --   3098.7958              3101.5996              3121.2619
 Red. masses --      1.0880                 1.1052                 1.0949
 Frc consts  --      6.1557                 6.2643                 6.2849
 IR Inten    --     13.6726                24.1300                13.5847

                     97                     98                     99
                      A                      A                      A
 Frequencies --   3124.0338              3127.9320              3141.3585
 Red. masses --      1.1039                 1.1029                 1.1027
 Frc consts  --      6.3478                 6.3580                 6.4114
 IR Inten    --     26.3960                44.1415                31.2246

                    100                    101                    102
                      A                      A                      A
 Frequencies --   3159.3768              3173.0167              3220.5807
 Red. masses --      1.0988                 1.0899                 1.0921
 Frc consts  --      6.4618                 6.4653                 6.6737
 IR Inten    --      6.9810                18.1960                 2.4814

                    103                    104                    105
                      A                      A                      A
 Frequencies --   3474.1197              3560.9036              3751.0303
 Red. masses --      1.0498                 1.0918                 1.0660
 Frc consts  --      7.4649                 8.1565                 8.8367
 IR Inten    --      1.5804                 3.4608                53.9732

 - Thermochemistry -
 -------------------
 Temperature   298.150 Kelvin.  Pressure   1.00000 Atm.
 Atom     1 has atomic number  6 and mass  12.00000

 Molecular mass:   236.15248 amu.
 Principal axes and moments of inertia in atomic units:
                           1         2         3
     Eigenvalues --  2513.542155697.645456624.69588
           X            0.99995  -0.00356   0.00974
           Y            0.00382   0.99962  -0.02715
           Z           -0.00964   0.02718   0.99958
 This molecule is an asymmetric top.
 Rotational symmetry number  1.
 Warning -- assumption of classical behavior for rotation
           may cause significant error
 Rotational temperatures (Kelvin)      0.03446     0.01520     0.01307
 Rotational constants (GHZ):           0.71801     0.31675     0.27243
 Zero-point vibrational energy     840905.4 (Joules/Mol)
                                  200.98122 (Kcal/Mol)
 Warning -- explicit consideration of  30 degrees of freedom as
           vibrations may cause significant error
 Vibrational temperatures:     43.40    63.67    70.19    94.96   119.27
          (Kelvin)            140.13   193.38   224.63   247.90   298.34
                              337.75   365.07   376.89   411.31   439.80
                              458.42   461.42   477.08   499.85   534.73
                              559.50   583.19   621.36   635.65   656.62
                              732.48   765.35   805.37   844.19   886.64
                              982.72  1042.46  1079.74  1108.59  1171.17
                             1222.63  1243.12  1253.96  1268.19  1311.90
                             1362.31  1397.28  1438.05  1485.72  1514.20
                             1531.25  1538.00  1552.72  1568.25  1632.70
                             1641.91  1678.52  1709.17  1720.32  1750.75
                             1763.68  1791.99  1833.05  1879.97  1884.48
                             1911.03  1921.03  1944.43  1981.75  2012.42
                             2029.47  2046.03  2079.15  2107.57  2135.15
                             2153.08  2161.66  2170.36  2175.78  2184.76
                             2187.01  2199.58  2200.98  2209.47  2217.44
                             2229.90  2362.87  2374.72  2455.39  2536.18
                             4195.79  4214.28  4281.07  4399.13  4402.34
                             4429.14  4431.61  4437.46  4458.48  4462.51
                             4490.80  4494.79  4500.40  4519.71  4545.64
                             4565.26  4633.70  4998.48  5123.35  5396.90

 Zero-point correction=                           0.320284 (Hartree/Particle)
 Thermal correction to Energy=                    0.338368
 Thermal correction to Enthalpy=                  0.339312
 Thermal correction to Gibbs Free Energy=         0.274079
 Sum of electronic and zero-point Energies=           -767.097529
 Sum of electronic and thermal Energies=              -767.079445
 Sum of electronic and thermal Enthalpies=            -767.078501
 Sum of electronic and thermal Free Energies=         -767.143734

                     E (Thermal)             CV                S
                      KCal/Mol        Cal/Mol-Kelvin    Cal/Mol-Kelvin
 Total                  212.329             68.239            137.294
 Electronic               0.000              0.000              0.000
 Translational            0.889              2.981             42.279
 Rotational               0.889              2.981             32.917
 Vibrational            210.552             62.278             62.098
 Vibration     1          0.594              1.984              5.819
 Vibration     2          0.595              1.980              5.059
 Vibration     3          0.595              1.978              4.866
 Vibration     4          0.597              1.970              4.269
 Vibration     5          0.600              1.961              3.821
 Vibration     6          0.603              1.951              3.506
 Vibration     7          0.613              1.919              2.882
 Vibration     8          0.620              1.896              2.596
 Vibration     9          0.626              1.877              2.410
 Vibration    10          0.641              1.829              2.067
 Vibration    11          0.655              1.788              1.842
 Vibration    12          0.665              1.756              1.704
 Vibration    13          0.669              1.742              1.649
 Vibration    14          0.684              1.700              1.498
 Vibration    15          0.696              1.663              1.386
 Vibration    16          0.705              1.638              1.317
 Vibration    17          0.706              1.634              1.307
 Vibration    18          0.714              1.612              1.252
 Vibration    19          0.725              1.581              1.178
 Vibration    20          0.743              1.530              1.073
 Vibration    21          0.757              1.494              1.004
 Vibration    22          0.770              1.459              0.943
 Vibration    23          0.793              1.401              0.853
 Vibration    24          0.802              1.379              0.821
 Vibration    25          0.815              1.347              0.777
 Vibration    26          0.864              1.230              0.636
 Vibration    27          0.887              1.179              0.583
 Vibration    28          0.915              1.118              0.524
 Vibration    29          0.944              1.060              0.473
 Vibration    30          0.976              0.998              0.423

                           ! Non-Optimized Parameters !
 Normal termination of Gaussian 16 at Fri Dec 11 12:43:32 2020.

 ----------------------------------------------------------------------
 # B3LYP/6-311++G(d,p) empiricaldispersion=gd3bj scf=xqc pop=npa geom=c
 heck
 ----------------------------------------------------------------------

 ---------------------------------------
 CID_117345362_JID_7509_Energie_neutraal
 ---------------------------------------
 Structure from the checkpoint file:  "JID_7509.chk"
 Charge =  0 Multiplicity = 1

 SCF Done:  E(RB3LYP) =  -767.645158109     A.U. after   16 cycles
 Normal termination of Gaussian 16 at Fri Dec 11 12:51:34 2020.

 ----------------------------------------------------------------------
 # B3LYP/6-311++G(d,p) empiricaldispersion=gd3bj scf=xqc pop=npa geom=c
 heck
 ----------------------------------------------------------------------

 -------------------------------------
 CID_117345362_JID_7509_Energie_kation
 -------------------------------------
 Structure from the checkpoint file:  "JID_7509.chk"
 Charge =  1 Multiplicity = 2

 SCF Done:  E(UB3LYP) =  -767.353716794     A.U. after   33 cycles
 SCF Done:  E(UB3LYP) =  -767.353883203     a.u. after   10 cycles
 Normal termination of Gaussian 16 at Fri Dec 11 15:38:02 2020.
 Gaussian 16:  ES64L-G16RevA.03 25-Dec-2016

 ----------------------------------------------------------------------
 # B3LYP/6-311++G(d,p) empiricaldispersion=gd3bj scf=xqc pop=npa geom=c
 heck
 ----------------------------------------------------------------------

 ------------------------------------
 CID_117345362_JID_7509_Energie_anion
 ------------------------------------
 Structure from the checkpoint file:  "JID_7509.chk"
 Charge = -1 Multiplicity = 2

                         Standard orientation:
 ---------------------------------------------------------------------
 Center     Atomic      Atomic             Coordinates (Angstroms)
 Number     Number       Type             X           Y           Z
 ---------------------------------------------------------------------
      1          6           0       -0.213619   -1.031892    1.922027
      2          6           0       -0.152256    0.108161    0.924307
      3          6           0       -1.338405    0.728225    0.468976
      4          6           0       -1.259899    1.896150   -0.301288
      5          6           0       -0.033996    2.413779   -0.690345
      6          6           0        1.136631    1.759411   -0.301697
      7          6           0        1.093661    0.611767    0.513128
      8          6           0        2.413154   -0.044476    0.853078
      9          7           0        2.936282   -0.811903   -0.283085
     10          6           0        4.324448   -1.183488   -0.066134
     11          6           0        2.120425   -1.971781   -0.598128
     12          8           0        2.366457    2.220265   -0.665766
     13          6           0       -2.725685    0.191554    0.665141
     14          8           0       -3.660452    0.951137    0.879575
     15          6           0       -3.001910   -1.268870    0.341930
     16          6           0       -3.159863   -1.448681   -1.197614
     17          7           0       -1.955599   -1.328622   -2.012818
     18          1           0        0.507716   -0.877943    2.729098
     19          1           0       -1.197843   -1.101193    2.387036
     20          1           0        0.019356   -2.002372    1.468205
     21          1           0       -2.183611    2.378833   -0.602506
     22          1           0        0.019377    3.312821   -1.300915
     23          1           0        3.147516    0.734734    1.076969
     24          1           0        2.324630   -0.673330    1.755835
     25          1           0        4.468614   -1.848971    0.809133
     26          1           0        4.707065   -1.703630   -0.950761
     27          1           0        4.926369   -0.281837    0.087473
     28          1           0        2.090710   -2.720583    0.220000
     29          1           0        1.094445   -1.656637   -0.811783
     30          1           0        2.516664   -2.464694   -1.491962
     31          1           0        2.254130    3.026318   -1.193100
     32          1           0       -2.212872   -1.942463    0.684008
     33          1           0       -3.940864   -1.544588    0.833202
     34          1           0       -3.587288   -2.442382   -1.374520
     35          1           0       -3.894795   -0.721175   -1.560475
     36          1           0       -1.256873   -2.006309   -1.711542
     37          1           0       -1.531391   -0.411284   -1.892840
 ---------------------------------------------------------------------

 SCF Done:  E(UB3LYP) =  -767.645421689     A.U. after   33 cycles
 SCF Done:  E(UB3LYP) =  -767.645421655     a.u. after    3 cycles

 The electronic state is 2-A.
 Alpha  occ. eigenvalues --  -19.04198 -18.93060 -14.20628 -14.16906 -10.10260
 Alpha  occ. eigenvalues --  -10.09770 -10.08917 -10.08536 -10.07461 -10.06782
 Alpha  occ. eigenvalues --  -10.05467 -10.05377 -10.04918 -10.04891 -10.04492
 Alpha  occ. eigenvalues --  -10.03206 -10.03010  -0.95431  -0.87083  -0.82616
 Alpha  occ. eigenvalues --   -0.75944  -0.73254  -0.65968  -0.64437  -0.61181
 Alpha  occ. eigenvalues --   -0.61014  -0.58932  -0.56691  -0.51489  -0.50141
 Alpha  occ. eigenvalues --   -0.49310  -0.46042  -0.41432  -0.40734  -0.38445
 Alpha  occ. eigenvalues --   -0.37871  -0.37779  -0.35657  -0.35553  -0.33518
 Alpha  occ. eigenvalues --   -0.31926  -0.31323  -0.30654  -0.30100  -0.29762
 Alpha  occ. eigenvalues --   -0.29390  -0.29269  -0.28734  -0.27706  -0.26975
 Alpha  occ. eigenvalues --   -0.26507  -0.26361  -0.25959  -0.24713  -0.23418
 Alpha  occ. eigenvalues --   -0.21752  -0.21666  -0.20980  -0.19909  -0.12839
 Alpha  occ. eigenvalues --   -0.12384  -0.11912  -0.10219  -0.08846   0.04893
 Alpha virt. eigenvalues --    0.06502   0.07201   0.08235   0.09051   0.09542
 Alpha virt. eigenvalues --    0.10077   0.10172   0.10711   0.11071   0.11458
 Alpha virt. eigenvalues --    0.12498   0.12656   0.12948   0.13377   0.14076

  Beta  occ. eigenvalues --  -19.04137 -18.92594 -14.20629 -14.16897 -10.10000
  Beta  occ. eigenvalues --  -10.09770 -10.08911 -10.08530 -10.07125 -10.06731
  Beta  occ. eigenvalues --  -10.05476 -10.05237 -10.04929 -10.04924 -10.04411
  Beta  occ. eigenvalues --  -10.03173 -10.03040  -0.95263  -0.86220  -0.82616
  Beta  occ. eigenvalues --   -0.75900  -0.73033  -0.65859  -0.64158  -0.61126
  Beta  occ. eigenvalues --   -0.60858  -0.58748  -0.56616  -0.51151  -0.50042
  Beta  occ. eigenvalues --   -0.49191  -0.45905  -0.41093  -0.40534  -0.38379
  Beta  occ. eigenvalues --   -0.37836  -0.37725  -0.35547  -0.35447  -0.33328
  Beta  occ. eigenvalues --   -0.31829  -0.31109  -0.30491  -0.29902  -0.29551
  Beta  occ. eigenvalues --   -0.29075  -0.28920  -0.28627  -0.27667  -0.26887
  Beta  occ. eigenvalues --   -0.26427  -0.26128  -0.25785  -0.24546  -0.23142
  Beta  occ. eigenvalues --   -0.21563  -0.21286  -0.20565  -0.18323  -0.12399
  Beta  occ. eigenvalues --   -0.12261  -0.11898  -0.09405  -0.08336
  Beta virt. eigenvalues --    0.06493   0.07161   0.08348   0.08960   0.09566
  Beta virt. eigenvalues --    0.10050   0.10327   0.10586   0.10914   0.11123
  Beta virt. eigenvalues --    0.11672   0.12491   0.12724   0.12972   0.13471

 Mulliken charges and spin densities:
               1          2
     1  C   -0.324715  -0.297781
     2  C    0.615654   0.152858
     3  C   -0.077577   0.126398
     4  C   -0.483268   0.143400
     5  C   -0.119140  -0.006375
     6  C   -0.877605   0.056084
     7  C    0.796452  -0.077648
     8  C   -0.642574   0.006559
     9  N    0.217566   0.011437
    10  C   -0.286565  -0.005938
    11  C   -0.350387  -0.142884
    12  O   -0.210918   0.012824
    13  C   -0.402196   0.121265
    14  O   -0.340621   0.157558
    15  C    0.030388   0.041817
    16  C   -0.056008  -0.575198
    17  N   -0.334737   0.007439
    18  H    0.147901  -0.007213
    19  H    0.210302  -0.028139
    20  H    0.039989   0.136438
    21  H    0.184707  -0.002708
    22  H    0.062886   0.044544
    23  H    0.175358  -0.000476
    24  H    0.072237  -0.004170
    25  H    0.091180   0.001987
    26  H    0.113856   0.000837
    27  H    0.131374   0.001353
    28  H   -0.036733   0.151848
    29  H    0.230250  -0.051692
    30  H    0.069407   0.058591
    31  H    0.226478   0.019488
    32  H   -0.201102   0.322837
    33  H    0.029861   0.144052
    34  H   -0.275938   0.452057
    35  H    0.207725  -0.054137
    36  H    0.123923   0.075990
    37  H    0.242587   0.006697
 Sum of Mulliken charges =  -1.00000   1.00000

 Dipole moment (field-independent basis, Debye):
    X=              8.5910    Y=              1.7681    Z=              0.0201  Tot=              8.7711
 Quadrupole moment (field-independent basis, Debye-Ang):
   XX=           -160.4091   YY=           -131.1017   ZZ=           -125.1591
   XY=             -0.9250   XZ=              2.8470   YZ=             -8.8359

 Summary of Natural Population Analysis:

                                       Natural Population
                Natural  -----------------------------------------------
    Atom  No    Charge         Core      Valence    Rydberg      Total
 -----------------------------------------------------------------------
      C    1   -0.29984      0.99964     2.29443    0.00577     3.29984
      C    2    0.04046      0.99945     1.95109    0.00900     2.95954
      C    3   -0.07116      0.99943     2.05945    0.01228     3.07116
      C    4   -0.06021      0.99953     2.05229    0.00839     3.06021
      C    5   -0.16155      0.99952     2.15382    0.00821     3.16155
      C    6    0.20618      0.99934     1.78073    0.01375     2.79382
      C    7   -0.07493      0.99944     2.06447    0.01102     3.07493
      C    8   -0.09005      0.99959     2.08032    0.01014     3.09005
      N    9   -0.27221      0.99972     2.76192    0.01056     3.77221
      C   10   -0.17373      0.99966     2.16767    0.00640     3.17373
      C   11   -0.18136      0.99965     2.17163    0.01008     3.18136
      O   12   -0.33766      0.99987     3.33152    0.00627     4.33766
      C   13    0.31336      0.99961     1.66437    0.02266     2.68664
      O   14   -0.26254      0.99988     3.25631    0.00634     4.26254
      C   15   -0.24165      0.99959     2.23272    0.00934     3.24165
      C   16   -0.08104      0.99964     2.06875    0.01265     3.08104
      N   17   -0.42537      0.99978     2.91584    0.00975     3.92537
      H   18    0.09886      0.00000     0.40036    0.00078     0.40114
      H   19    0.10774      0.00000     0.39149    0.00077     0.39226
      H   20    0.10422      0.00000     0.39436    0.00142     0.39578
      H   21    0.10505      0.00000     0.39357    0.00138     0.39495
      H   22    0.09049      0.00000     0.40798    0.00153     0.40951
      H   23    0.10128      0.00000     0.39757    0.00115     0.39872
      H   24    0.08322      0.00000     0.41537    0.00140     0.41678
      H   25    0.07419      0.00000     0.42371    0.00210     0.42581
      H   26    0.09120      0.00000     0.40778    0.00102     0.40880
      H   27    0.09341      0.00000     0.40571    0.00088     0.40659
      H   28    0.07692      0.00000     0.42135    0.00172     0.42308
      H   29    0.10259      0.00000     0.39554    0.00187     0.39741
      H   30    0.09130      0.00000     0.40788    0.00082     0.40870
      H   31    0.22733      0.00000     0.26970    0.00297     0.27267
      H   32    0.09736      0.00000     0.40042    0.00222     0.40264
      H   33    0.10430      0.00000     0.39447    0.00123     0.39570
      H   34    0.08637      0.00000     0.41200    0.00163     0.41363
      H   35    0.08868      0.00000     0.41023    0.00109     0.41132
      H   36    0.16877      0.00000     0.32895    0.00228     0.33123
      H   37    0.18001      0.00000     0.31825    0.00174     0.31999
 =======================================================================
   * Total *   -0.00000     16.99335    46.80401    0.20264    64.00000

 Normal termination of Gaussian 16 at Fri Dec 11 16:26:43 2020.
