 Gaussian 16, Revision A.03,

 -----------------------------------------------------------
 # opt freq B3LYP/6-31G(d) empiricaldispersion=gd3bj scf=xqc
 -----------------------------------------------------------

 -------------------------------
 CID_107832025_JID_9878_neutraal
 -------------------------------
 Symbolic Z-matrix:
 Charge =  0 Multiplicity = 1

 SCF Done:  E(RB3LYP) =  -953.775665360     A.U. after   15 cycles
 SCF Done:  E(RB3LYP) =  -953.779747708     A.U. after   13 cycles
 SCF Done:  E(RB3LYP) =  -953.774507681     A.U. after   14 cycles
 SCF Done:  E(RB3LYP) =  -953.781105369     A.U. after   13 cycles
 SCF Done:  E(RB3LYP) =  -953.782174674     A.U. after   13 cycles
 SCF Done:  E(RB3LYP) =  -953.783357600     A.U. after   12 cycles
 SCF Done:  E(RB3LYP) =  -953.783204410     A.U. after   12 cycles
 SCF Done:  E(RB3LYP) =  -953.783919929     A.U. after   12 cycles
 SCF Done:  E(RB3LYP) =  -953.784083690     A.U. after   11 cycles
 SCF Done:  E(RB3LYP) =  -953.784214805     A.U. after   12 cycles
 SCF Done:  E(RB3LYP) =  -953.786010538     A.U. after   11 cycles
 SCF Done:  E(RB3LYP) =  -953.786025203     A.U. after   10 cycles
 SCF Done:  E(RB3LYP) =  -953.786027364     A.U. after   10 cycles
 SCF Done:  E(RB3LYP) =  -953.786028564     A.U. after    9 cycles
 SCF Done:  E(RB3LYP) =  -953.786028660     A.U. after    8 cycles
 Optimization completed.
    -- Stationary point found.
 Normal termination of Gaussian 16 at Sat Dec 12 10:27:50 2020.

 --------------------------------------------------------------------
 #N Geom=AllCheck Guess=TCheck SCRF=Check GenChk RB3LYP/6-31G(d) Freq
 --------------------------------------------------------------------

 Structure from the checkpoint file:  "JID_9878.chk"
 -------------------------------
 CID_107832025_JID_9878_neutraal
 -------------------------------
 Charge =  0 Multiplicity = 1

 SCF Done:  E(RB3LYP) =  -953.786028660     A.U. after    1 cycles

  Exact polarizability: 196.891   5.348 145.498  -8.998   1.162 111.343
 Approx polarizability: 259.349   3.851 233.255 -15.216  10.083 166.865

                      1                      2                      3
                      A                      A                      A
 Frequencies --     22.2146                26.3682                41.0669
 Red. masses --      5.2266                 5.2305                 5.8628
 Frc consts  --      0.0015                 0.0021                 0.0058
 IR Inten    --      0.5059                 0.2207                 0.3744

                      4                      5                      6
                      A                      A                      A
 Frequencies --     48.2021                67.3285                74.5861
 Red. masses --      3.5872                 5.6743                 6.1648
 Frc consts  --      0.0049                 0.0152                 0.0202
 IR Inten    --      0.5935                 4.0119                 0.2284

                      7                      8                      9
                      A                      A                      A
 Frequencies --     95.9909               115.1867               124.6817
 Red. masses --      5.2619                 2.5779                 4.8818
 Frc consts  --      0.0286                 0.0202                 0.0447
 IR Inten    --      2.0936                 1.9030                 1.8835

                     10                     11                     12
                      A                      A                      A
 Frequencies --    134.6671               157.8884               183.0427
 Red. masses --      1.4758                 4.8857                 3.2649
 Frc consts  --      0.0158                 0.0718                 0.0645
 IR Inten    --      2.1400                 3.7277                 2.5852

                     13                     14                     15
                      A                      A                      A
 Frequencies --    195.2972               222.6943               234.0510
 Red. masses --      3.0493                 2.4817                 1.1006
 Frc consts  --      0.0685                 0.0725                 0.0355
 IR Inten    --      0.2735                 4.1161                 0.2920

                     16                     17                     18
                      A                      A                      A
 Frequencies --    265.1173               273.8685               288.5125
 Red. masses --      1.2496                 3.6313                 2.6207
 Frc consts  --      0.0517                 0.1605                 0.1285
 IR Inten    --      0.5643                 5.7698                 1.0609

                     19                     20                     21
                      A                      A                      A
 Frequencies --    299.6013               310.1297               332.5749
 Red. masses --      2.6742                 1.9803                 3.5966
 Frc consts  --      0.1414                 0.1122                 0.2344
 IR Inten    --      1.9530                47.8249                 7.0112

                     22                     23                     24
                      A                      A                      A
 Frequencies --    361.5892               385.4812               415.0294
 Red. masses --      3.3190                 1.8384                 3.6486
 Frc consts  --      0.2557                 0.1609                 0.3703
 IR Inten    --      4.4724                34.1722                 3.1609

                     25                     26                     27
                      A                      A                      A
 Frequencies --    429.3984               454.5203               480.4110
 Red. masses --      3.1524                 4.6088                 3.8929
 Frc consts  --      0.3425                 0.5610                 0.5294
 IR Inten    --     11.6984                 5.5946                16.2049

                     28                     29                     30
                      A                      A                      A
 Frequencies --    534.1525               577.4253               595.9210
 Red. masses --      4.0618                 2.1477                 3.9110
 Frc consts  --      0.6828                 0.4219                 0.8183
 IR Inten    --     14.8258                28.3740                27.9770

                     31                     32                     33
                      A                      A                      A
 Frequencies --    609.7234               648.1522               656.0907
 Red. masses --      3.2173                 4.9303                 1.9323
 Frc consts  --      0.7047                 1.2203                 0.4901
 IR Inten    --     15.1256                20.0819                64.5802

                     34                     35                     36
                      A                      A                      A
 Frequencies --    681.9244               709.8223               730.5793
 Red. masses --      3.5155                 4.2679                 3.2314
 Frc consts  --      0.9632                 1.2670                 1.0162
 IR Inten    --      8.4071                15.5550                50.4995

                     37                     38                     39
                      A                      A                      A
 Frequencies --    744.9786               782.2525               800.9848
 Red. masses --      2.6777                 3.3893                 3.0733
 Frc consts  --      0.8756                 1.2220                 1.1617
 IR Inten    --     16.5543                28.0454                 8.3345

                     40                     41                     42
                      A                      A                      A
 Frequencies --    822.8538               890.5638               921.2652
 Red. masses --      2.8025                 2.7564                 2.0508
 Frc consts  --      1.1180                 1.2880                 1.0255
 IR Inten    --     61.8382                 0.8249                 5.2530

                     43                     44                     45
                      A                      A                      A
 Frequencies --    926.7296               950.9726               953.1345
 Red. masses --      6.8811                 1.4315                 1.7290
 Frc consts  --      3.4819                 0.7628                 0.9254
 IR Inten    --      8.4932                 2.2865                 9.8392

                     46                     47                     48
                      A                      A                      A
 Frequencies --    981.5974              1039.7324              1048.1484
 Red. masses --      1.5186                 2.8108                 1.9451
 Frc consts  --      0.8621                 1.7903                 1.2591
 IR Inten    --      0.5893                28.7911                11.5405

                     49                     50                     51
                      A                      A                      A
 Frequencies --   1069.4511              1088.5833              1096.0791
 Red. masses --      2.7604                 1.4968                 2.3340
 Frc consts  --      1.8601                 1.0450                 1.6521
 IR Inten    --     83.5502                 2.2495                21.6678

                     52                     53                     54
                      A                      A                      A
 Frequencies --   1099.9715              1103.5725              1136.2310
 Red. masses --      2.1573                 2.4984                 2.2703
 Frc consts  --      1.5379                 1.7927                 1.7269
 IR Inten    --      9.4075                 2.9414                 6.7064

                     55                     56                     57
                      A                      A                      A
 Frequencies --   1150.9406              1167.6319              1196.4460
 Red. masses --      3.6872                 4.1959                 2.3720
 Frc consts  --      2.8778                 3.3705                 2.0006
 IR Inten    --    192.8731                80.2174                94.3036

                     58                     59                     60
                      A                      A                      A
 Frequencies --   1207.8989              1234.4514              1265.1851
 Red. masses --      1.8915                 1.3982                 1.2093
 Frc consts  --      1.6260                 1.2553                 1.1405
 IR Inten    --      1.0927                32.6226                24.7450

                     61                     62                     63
                      A                      A                      A
 Frequencies --   1315.9672              1328.6271              1345.1546
 Red. masses --      5.7001                 1.1864                 1.2911
 Frc consts  --      5.8160                 1.2340                 1.3765
 IR Inten    --      8.3280                15.7652                37.2913

                     64                     65                     66
                      A                      A                      A
 Frequencies --   1345.7068              1354.8696              1363.7473
 Red. masses --      1.4042                 1.6715                 1.5929
 Frc consts  --      1.4982                 1.8078                 1.7454
 IR Inten    --     12.1727                48.9784                66.8054

                     67                     68                     69
                      A                      A                      A
 Frequencies --   1390.9538              1410.9625              1420.7735
 Red. masses --      1.3911                 1.9999                 1.7455
 Frc consts  --      1.5857                 2.3457                 2.0759
 IR Inten    --     60.8826                89.8157                15.1657

                     70                     71                     72
                      A                      A                      A
 Frequencies --   1421.8028              1438.3488              1447.2972
 Red. masses --      1.2289                 1.5956                 1.2428
 Frc consts  --      1.4637                 1.9449                 1.5338
 IR Inten    --      5.1965                50.6233                 1.7297

                     73                     74                     75
                      A                      A                      A
 Frequencies --   1466.5126              1472.3332              1483.8701
 Red. masses --      1.8048                 2.6034                 1.4980
 Frc consts  --      2.2869                 3.3251                 1.9433
 IR Inten    --     58.9985                37.8798                16.8655

                     76                     77                     78
                      A                      A                      A
 Frequencies --   1503.1471              1515.7465              1519.2722
 Red. masses --      1.4482                 1.1748                 1.0504
 Frc consts  --      1.9278                 1.5902                 1.4285
 IR Inten    --      5.7289                12.6019                 5.2579

                     79                     80                     81
                      A                      A                      A
 Frequencies --   1519.3526              1521.9233              1532.3860
 Red. masses --      1.1169                 1.0437                 1.0542
 Frc consts  --      1.5191                 1.4243                 1.4586
 IR Inten    --      2.1743                 1.4957                 0.3010

                     82                     83                     84
                      A                      A                      A
 Frequencies --   1542.0043              1550.3276              1558.2934
 Red. masses --      1.1278                 1.0996                 2.0936
 Frc consts  --      1.5800                 1.5572                 2.9953
 IR Inten    --     26.9952                 6.0494                15.0982

                     85                     86                     87
                      A                      A                      A
 Frequencies --   1652.6810              1758.7578              1835.7316
 Red. masses --      7.8272                 7.7965                10.0518
 Frc consts  --     12.5960                14.2089                19.9577
 IR Inten    --    132.1247               348.2603               325.2460

                     88                     89                     90
                      A                      A                      A
 Frequencies --   2986.8572              3020.0536              3055.1581
 Red. masses --      1.0808                 1.0751                 1.0352
 Frc consts  --      5.6811                 5.7771                 5.6931
 IR Inten    --     24.6953                37.5822                23.0705

                     91                     92                     93
                      A                      A                      A
 Frequencies --   3059.5232              3067.1565              3072.8938
 Red. masses --      1.0353                 1.0622                 1.0358
 Frc consts  --      5.7101                 5.8873                 5.7624
 IR Inten    --     29.4212                18.4441                 5.9323

                     94                     95                     96
                      A                      A                      A
 Frequencies --   3077.4907              3108.7383              3123.8845
 Red. masses --      1.0842                 1.1032                 1.1033
 Frc consts  --      6.0501                 6.2818                 6.3435
 IR Inten    --      4.8034                17.4442                12.5712

                     97                     98                     99
                      A                      A                      A
 Frequencies --   3126.8405              3137.3977              3140.1549
 Red. masses --      1.1030                 1.1023                 1.1007
 Frc consts  --      6.3538                 6.3927                 6.3948
 IR Inten    --     33.6920                28.5308                 3.5455

                    100                    101                    102
                      A                      A                      A
 Frequencies --   3151.7460              3155.1643              3159.5756
 Red. masses --      1.1025                 1.1024                 1.0890
 Frc consts  --      6.4528                 6.4658                 6.4054
 IR Inten    --     11.1239                10.0275                 7.6829

                    103                    104                    105
                      A                      A                      A
 Frequencies --   3537.1809              3673.8811              3675.0882
 Red. masses --      1.0745                 1.0651                 1.0642
 Frc consts  --      7.9206                 8.4699                 8.4683
 IR Inten    --     14.6067               103.9902                34.3737

 - Thermochemistry -
 -------------------
 Temperature   298.150 Kelvin.  Pressure   1.00000 Atm.
 Atom     1 has atomic number  6 and mass  12.00000

 Molecular mass:   270.12157 amu.
 Principal axes and moments of inertia in atomic units:
                           1         2         3
     Eigenvalues --  2385.331629867.61673**********
           X            0.99997   0.00463  -0.00563
           Y           -0.00478   0.99964  -0.02633
           Z            0.00550   0.02636   0.99964
 This molecule is an asymmetric top.
 Rotational symmetry number  1.
 Warning -- assumption of classical behavior for rotation
           may cause significant error
 Rotational temperatures (Kelvin)      0.03631     0.00878     0.00788
 Rotational constants (GHZ):           0.75660     0.18290     0.16424
 Zero-point vibrational energy     800351.3 (Joules/Mol)
                                  191.28854 (Kcal/Mol)
 Warning -- explicit consideration of  31 degrees of freedom as
           vibrations may cause significant error
 Vibrational temperatures:     31.96    37.94    59.09    69.35    96.87
          (Kelvin)            107.31   138.11   165.73   179.39   193.76
                              227.17   263.36   280.99   320.41   336.75
                              381.44   394.04   415.11   431.06   446.21
                              478.50   520.25   554.62   597.13   617.81
                              653.95   691.20   768.53   830.79   857.40
                              877.26   932.55   943.97   981.14  1021.28
                             1051.14  1071.86  1125.49  1152.44  1183.90
                             1281.32  1325.50  1333.36  1368.24  1371.35
                             1412.30  1495.94  1508.05  1538.70  1566.23
                             1577.01  1582.61  1587.79  1634.78  1655.95
                             1679.96  1721.42  1737.90  1776.10  1820.32
                             1893.38  1911.60  1935.38  1936.17  1949.36
                             1962.13  2001.27  2030.06  2044.18  2045.66
                             2069.46  2082.34  2109.98  2118.36  2134.96
                             2162.69  2180.82  2185.89  2186.01  2189.71
                             2204.76  2218.60  2230.58  2242.04  2377.84
                             2530.46  2641.21  4297.42  4345.18  4395.69
                             4401.97  4412.95  4421.21  4427.82  4472.78
                             4494.57  4498.83  4514.02  4517.98  4534.66
                             4539.58  4545.92  5089.21  5285.90  5287.63

 Zero-point correction=                           0.304838 (Hartree/Particle)
 Thermal correction to Energy=                    0.325036
 Thermal correction to Enthalpy=                  0.325981
 Thermal correction to Gibbs Free Energy=         0.254060
 Sum of electronic and zero-point Energies=           -953.481191
 Sum of electronic and thermal Energies=              -953.460992
 Sum of electronic and thermal Enthalpies=            -953.460048
 Sum of electronic and thermal Free Energies=         -953.531969

                     E (Thermal)             CV                S
                      KCal/Mol        Cal/Mol-Kelvin    Cal/Mol-Kelvin
 Total                  203.963             73.285            151.370
 Electronic               0.000              0.000              0.000
 Translational            0.889              2.981             42.680
 Rotational               0.889              2.981             33.913
 Vibrational            202.186             67.323             74.777
 Vibration     1          0.593              1.985              6.426
 Vibration     2          0.593              1.985              6.085
 Vibration     3          0.594              1.981              5.207
 Vibration     4          0.595              1.978              4.890
 Vibration     5          0.598              1.970              4.230
 Vibration     6          0.599              1.966              4.029
 Vibration     7          0.603              1.952              3.534
 Vibration     8          0.608              1.937              3.180
 Vibration     9          0.610              1.928              3.026
 Vibration    10          0.613              1.919              2.878
 Vibration    11          0.621              1.894              2.575
 Vibration    12          0.631              1.863              2.297
 Vibration    13          0.636              1.846              2.177
 Vibration    14          0.648              1.807              1.937
 Vibration    15          0.654              1.789              1.848
 Vibration    16          0.671              1.737              1.628
 Vibration    17          0.676              1.722              1.572
 Vibration    18          0.685              1.695              1.483
 Vibration    19          0.692              1.674              1.419
 Vibration    20          0.699              1.654              1.362
 Vibration    21          0.715              1.610              1.248
 Vibration    22          0.736              1.551              1.115
 Vibration    23          0.754              1.501              1.018
 Vibration    24          0.778              1.438              0.909
 Vibration    25          0.791              1.406              0.861
 Vibration    26          0.813              1.351              0.782
 Vibration    27          0.837              1.294              0.709
 Vibration    28          0.889              1.174              0.578
 Vibration    29          0.934              1.080              0.490
 Vibration    30          0.954              1.040              0.457
 Vibration    31          0.969              1.011              0.433

                           ! Non-Optimized Parameters !
 Normal termination of Gaussian 16 at Sat Dec 12 10:44:37 2020.

 ----------------------------------------------------------------------
 # B3LYP/6-311++G(d,p) empiricaldispersion=gd3bj scf=xqc pop=npa geom=c
 heck
 ----------------------------------------------------------------------

 ---------------------------------------
 CID_107832025_JID_9878_Energie_neutraal
 ---------------------------------------
 Structure from the checkpoint file:  "JID_9878.chk"
 Charge =  0 Multiplicity = 1

 SCF Done:  E(RB3LYP) =  -954.076999455     A.U. after   15 cycles
 Normal termination of Gaussian 16 at Sat Dec 12 10:51:08 2020.

 ----------------------------------------------------------------------
 # B3LYP/6-311++G(d,p) empiricaldispersion=gd3bj scf=xqc pop=npa geom=c
 heck
 ----------------------------------------------------------------------

 -------------------------------------
 CID_107832025_JID_9878_Energie_kation
 -------------------------------------
 Structure from the checkpoint file:  "JID_9878.chk"
 Charge =  1 Multiplicity = 2

 SCF Done:  E(UB3LYP) =  -953.750907147     A.U. after   29 cycles
 Normal termination of Gaussian 16 at Sat Dec 12 11:07:41 2020.
 Gaussian 16:  ES64L-G16RevA.03 25-Dec-2016

 ----------------------------------------------------------------------
 # B3LYP/6-311++G(d,p) empiricaldispersion=gd3bj scf=xqc pop=npa geom=c
 heck
 ----------------------------------------------------------------------

 ------------------------------------
 CID_107832025_JID_9878_Energie_anion
 ------------------------------------
 Structure from the checkpoint file:  "JID_9878.chk"
 Charge = -1 Multiplicity = 2

                         Standard orientation:
 ---------------------------------------------------------------------
 Center     Atomic      Atomic             Coordinates (Angstroms)
 Number     Number       Type             X           Y           Z
 ---------------------------------------------------------------------
      1          6           0        0.400968    1.751436   -1.336144
      2          6           0       -0.904357    1.395025   -0.696931
      3          7           0       -1.775818    2.341381   -0.431653
      4          8           0       -2.903129    1.681051    0.096646
      5          6           0       -2.688513    0.354993    0.103272
      6          6           0       -1.425608    0.099123   -0.365980
      7          6           0       -0.878420   -1.256740   -0.597996
      8          8           0       -1.562810   -2.146687   -1.096721
      9          7           0        0.444561   -1.479614   -0.262525
     10          6           0        1.075663   -0.932755    0.944238
     11          6           0        2.560483   -1.295279    0.971684
     12          6           0        3.404635   -0.632327   -0.132060
     13          6           0        3.982197    0.712342    0.285616
     14          8           0        5.141207    1.022180    0.109590
     15          8           0        3.077832    1.538369    0.853194
     16          8           0        4.467218   -1.490721   -0.482182
     17          6           0       -3.806401   -0.539880    0.538220
     18          6           0       -4.562162    0.032580    1.746266
     19          6           0       -4.742740   -0.808520   -0.657284
     20          1           0        0.343632    2.762894   -1.745618
     21          1           0        1.223902    1.719943   -0.616574
     22          1           0        0.634162    1.051511   -2.144459
     23          1           0        0.679314   -2.452939   -0.440632
     24          1           0        0.937270    0.148559    0.963804
     25          1           0        0.596603   -1.334623    1.849057
     26          1           0        2.973317   -1.065585    1.959639
     27          1           0        2.675278   -2.376519    0.831668
     28          1           0        2.752438   -0.444812   -1.002295
     29          1           0        3.541749    2.374307    1.052558
     30          1           0        5.245274   -0.922584   -0.629406
     31          1           0       -3.345273   -1.494648    0.813100
     32          1           0       -5.032907    0.988308    1.496196
     33          1           0       -5.346701   -0.664559    2.057798
     34          1           0       -3.892393    0.198389    2.596774
     35          1           0       -4.183126   -1.273509   -1.472864
     36          1           0       -5.549936   -1.484372   -0.354461
     37          1           0       -5.190805    0.124337   -1.016666
 ---------------------------------------------------------------------

 SCF Done:  E(UB3LYP) =  -954.073917017     A.U. after   33 cycles
 SCF Done:  E(UB3LYP) =  -954.073917017     a.u. after    1 cycles

 The electronic state is 2-A.
 Alpha  occ. eigenvalues --  -19.10711 -19.08240 -19.03777 -19.03385 -18.99008
 Alpha  occ. eigenvalues --  -14.25879 -14.23615 -10.21717 -10.17339 -10.14970
 Alpha  occ. eigenvalues --  -10.14187 -10.12356 -10.11515 -10.10334 -10.08981
 Alpha  occ. eigenvalues --  -10.08363 -10.08096 -10.08085 -10.07549  -1.04338
 Alpha  occ. eigenvalues --   -1.02709  -0.95355  -0.94096  -0.93019  -0.82641
 Alpha  occ. eigenvalues --   -0.78697  -0.73527  -0.70148  -0.68164  -0.63389
 Alpha  occ. eigenvalues --   -0.62233  -0.60447  -0.55970  -0.55153  -0.52742
 Alpha  occ. eigenvalues --   -0.50666  -0.48555  -0.45167  -0.44748  -0.42426
 Alpha  occ. eigenvalues --   -0.41925  -0.40123  -0.39242  -0.38649  -0.38166
 Alpha  occ. eigenvalues --   -0.36795  -0.36231  -0.35079  -0.34153  -0.32998
 Alpha  occ. eigenvalues --   -0.32731  -0.32481  -0.31786  -0.31223  -0.30974
 Alpha  occ. eigenvalues --   -0.30401  -0.29852  -0.28979  -0.28473  -0.27724
 Alpha  occ. eigenvalues --   -0.26449  -0.26360  -0.26010  -0.25820  -0.24313
 Alpha  occ. eigenvalues --   -0.21616  -0.20847  -0.19659  -0.19429  -0.17763
 Alpha  occ. eigenvalues --   -0.16209  -0.15211   0.03989
 Alpha virt. eigenvalues --    0.05733   0.06220   0.07009   0.07350   0.08301
 Alpha virt. eigenvalues --    0.08575   0.08925   0.09008   0.09241   0.09796
 Alpha virt. eigenvalues --    0.10333   0.11083   0.11721   0.11737   0.12446

  Beta  occ. eigenvalues --  -19.10654 -19.08148 -19.03771 -19.03332 -18.98877
  Beta  occ. eigenvalues --  -14.25892 -14.23621 -10.21648 -10.17213 -10.14957
  Beta  occ. eigenvalues --  -10.14023 -10.12351 -10.11480 -10.10342 -10.08950
  Beta  occ. eigenvalues --  -10.08381 -10.08080 -10.08076 -10.07527  -1.04243
  Beta  occ. eigenvalues --   -1.02556  -0.95289  -0.93864  -0.92935  -0.82564
  Beta  occ. eigenvalues --   -0.78661  -0.73418  -0.70074  -0.68105  -0.63356
  Beta  occ. eigenvalues --   -0.62107  -0.60412  -0.55770  -0.55021  -0.52670
  Beta  occ. eigenvalues --   -0.50541  -0.48480  -0.45091  -0.44669  -0.42344
  Beta  occ. eigenvalues --   -0.41822  -0.40004  -0.39166  -0.38504  -0.38016
  Beta  occ. eigenvalues --   -0.36691  -0.36151  -0.34948  -0.34052  -0.32871
  Beta  occ. eigenvalues --   -0.32610  -0.32392  -0.31705  -0.31144  -0.30907
  Beta  occ. eigenvalues --   -0.30365  -0.29729  -0.28916  -0.28199  -0.27673
  Beta  occ. eigenvalues --   -0.26401  -0.26305  -0.25881  -0.25784  -0.24094
  Beta  occ. eigenvalues --   -0.21610  -0.20774  -0.19608  -0.19299  -0.17577
  Beta  occ. eigenvalues --   -0.16022  -0.14920
  Beta virt. eigenvalues --    0.06068   0.06948   0.07155   0.07665   0.08034
  Beta virt. eigenvalues --    0.08605   0.08794   0.08961   0.09320   0.09369
  Beta virt. eigenvalues --    0.10097   0.10592   0.11173   0.11684   0.11854

 Mulliken charges and spin densities:
               1          2
     1  C    0.175127  -0.776952
     2  C    0.280207   0.567057
     3  N   -0.365368  -0.000678
     4  O    0.220729   0.012650
     5  C    0.450481  -0.744703
     6  C    0.337016   0.333464
     7  C   -0.701343  -0.160343
     8  O   -0.300547   0.041515
     9  N   -0.157610   0.064211
    10  C    0.184904  -0.395013
    11  C   -0.435572  -0.161526
    12  C    0.299718  -0.691186
    13  C    0.306495  -0.160933
    14  O   -0.301746   0.017181
    15  O   -0.204957   0.051168
    16  O   -0.229562   0.028334
    17  C   -0.771287   0.927204
    18  C   -0.402206  -0.261043
    19  C   -0.356503  -0.300710
    20  H   -0.004405   0.181484
    21  H    0.268676  -0.079686
    22  H    0.137990   0.042611
    23  H    0.310425  -0.014258
    24  H    0.216140  -0.029557
    25  H   -0.316388   0.519615
    26  H   -0.183602   0.371590
    27  H    0.029367   0.154332
    28  H    0.058063   0.181911
    29  H   -0.475990   0.817216
    30  H    0.247493   0.004220
    31  H    0.143305   0.066143
    32  H    0.153495   0.004668
    33  H    0.043465   0.105905
    34  H    0.048046   0.099970
    35  H    0.188163   0.005635
    36  H   -0.018776   0.154449
    37  H    0.126558   0.024054
 Sum of Mulliken charges =  -1.00000   1.00000

 Dipole moment (field-independent basis, Debye):
    X=             -3.8348    Y=             -2.6868    Z=             -1.6942  Tot=              4.9794
 Quadrupole moment (field-independent basis, Debye-Ang):
   XX=           -192.4019   YY=           -161.8849   ZZ=           -141.3405
   XY=            -11.4418   XZ=            -10.4687   YZ=             -6.8530

 Summary of Natural Population Analysis:

                                       Natural Population
                Natural  -----------------------------------------------
    Atom  No    Charge         Core      Valence    Rydberg      Total
 -----------------------------------------------------------------------
      C    1   -0.30714      0.99961     2.30136    0.00617     3.30714
      C    2    0.09831      0.99958     1.88805    0.01405     2.90169
      N    3   -0.09593      0.99966     2.58364    0.01263     3.59593
      O    4   -0.16660      0.99984     3.15891    0.00785     4.16660
      C    5    0.23613      0.99943     1.74770    0.01673     2.76387
      C    6   -0.13867      0.99934     2.12957    0.00976     3.13867
      C    7    0.35680      0.99963     1.62230    0.02127     2.64320
      O    8   -0.30814      0.99988     3.30303    0.00523     4.30814
      N    9   -0.32708      0.99968     2.81831    0.00909     3.82708
      C   10   -0.08953      0.99960     2.07991    0.01002     3.08953
      C   11   -0.19769      0.99961     2.18686    0.01123     3.19769
      C   12    0.01717      0.99953     1.96968    0.01363     2.98283
      C   13    0.40822      0.99970     1.56707    0.02501     2.59178
      O   14   -0.31153      0.99987     3.30487    0.00680     4.31153
      O   15   -0.34291      0.99987     3.33474    0.00830     4.34291
      O   16   -0.37198      0.99989     3.36596    0.00612     4.37198
      C   17   -0.14020      0.99957     2.13099    0.00963     3.14020
      C   18   -0.28062      0.99965     2.27601    0.00495     3.28062
      C   19   -0.27786      0.99964     2.27348    0.00473     3.27786
      H   20    0.11072      0.00000     0.38817    0.00111     0.38928
      H   21    0.11754      0.00000     0.38073    0.00173     0.38246
      H   22    0.10669      0.00000     0.39232    0.00098     0.39331
      H   23    0.18703      0.00000     0.31030    0.00267     0.31297
      H   24    0.10601      0.00000     0.39134    0.00265     0.39399
      H   25    0.09236      0.00000     0.40586    0.00178     0.40764
      H   26    0.10885      0.00000     0.38976    0.00139     0.39115
      H   27    0.10404      0.00000     0.39461    0.00134     0.39596
      H   28    0.09813      0.00000     0.39971    0.00216     0.40187
      H   29    0.25109      0.00000     0.22158    0.02733     0.24891
      H   30    0.23947      0.00000     0.25745    0.00309     0.26053
      H   31    0.11223      0.00000     0.38589    0.00188     0.38777
      H   32    0.10117      0.00000     0.39774    0.00109     0.39883
      H   33    0.09672      0.00000     0.40247    0.00081     0.40328
      H   34    0.10247      0.00000     0.39666    0.00087     0.39753
      H   35    0.11290      0.00000     0.38620    0.00090     0.38710
      H   36    0.09572      0.00000     0.40331    0.00096     0.40428
      H   37    0.09612      0.00000     0.40295    0.00092     0.40388
 =======================================================================
   * Total *    0.00000     18.99360    52.74948    0.25692    72.00000

 Normal termination of Gaussian 16 at Sat Dec 12 11:27:01 2020.
