 Gaussian 16, Revision A.03,

 -----------------------------------------------------------
 # opt freq B3LYP/6-31G(d) empiricaldispersion=gd3bj scf=xqc
 -----------------------------------------------------------

 ------------------------------
 CID_152168823_JID_323_neutraal
 ------------------------------
 Symbolic Z-matrix:
 Charge =  0 Multiplicity = 1

 SCF Done:  E(RB3LYP) =  -508.192238325     A.U. after   18 cycles
 SCF Done:  E(RB3LYP) =  -508.197946361     A.U. after   16 cycles
 SCF Done:  E(RB3LYP) =  -508.199564033     A.U. after   15 cycles
 SCF Done:  E(RB3LYP) =  -508.200686535     A.U. after   14 cycles
 SCF Done:  E(RB3LYP) =  -508.200890975     A.U. after   14 cycles
 SCF Done:  E(RB3LYP) =  -508.200928940     A.U. after   12 cycles
 SCF Done:  E(RB3LYP) =  -508.200982985     A.U. after   11 cycles
 SCF Done:  E(RB3LYP) =  -508.200984205     A.U. after   10 cycles
 SCF Done:  E(RB3LYP) =  -508.200985826     A.U. after    8 cycles
 Optimization completed.
    -- Stationary point found.
 Normal termination of Gaussian 16 at Tue Dec  8 10:21:32 2020.

 --------------------------------------------------------------------
 #N Geom=AllCheck Guess=TCheck SCRF=Check GenChk RB3LYP/6-31G(d) Freq
 --------------------------------------------------------------------

 Structure from the checkpoint file:  "JID_323.chk"
 ------------------------------
 CID_152168823_JID_323_neutraal
 ------------------------------
 Charge =  0 Multiplicity = 1

 SCF Done:  E(RB3LYP) =  -508.200985826     A.U. after    1 cycles

  Exact polarizability: 109.067  -0.341  81.950   1.261  -6.425  41.887
 Approx polarizability: 186.875  -3.522 143.074   4.709 -19.841  64.211

                      1                      2                      3
                      A                      A                      A
 Frequencies --     80.4153               115.4051               129.0962
 Red. masses --      6.7838                 9.4256                 4.4591
 Frc consts  --      0.0258                 0.0740                 0.0438
 IR Inten    --      0.5345                 1.8777                 0.2921

                      4                      5                      6
                      A                      A                      A
 Frequencies --    177.9133               236.0689               244.8896
 Red. masses --      7.6998                 1.9844                 1.3558
 Frc consts  --      0.1436                 0.0652                 0.0479
 IR Inten    --      5.5078                 1.2881                 0.2112

                      7                      8                      9
                      A                      A                      A
 Frequencies --    358.1407               409.3987               500.6212
 Red. masses --      7.1219                 4.2785                 8.5200
 Frc consts  --      0.5382                 0.4225                 1.2581
 IR Inten    --      7.2258                 2.0289                 2.3046

                     10                     11                     12
                      A                      A                      A
 Frequencies --    540.6434               549.5859               616.2936
 Red. masses --      5.4914                12.7476                 4.4924
 Frc consts  --      0.9457                 2.2686                 1.0053
 IR Inten    --      4.6098                 8.5109                 3.5436

                     13                     14                     15
                      A                      A                      A
 Frequencies --    685.8140               721.9490               740.6474
 Red. masses --      6.6298                 4.9076                 3.9010
 Frc consts  --      1.8372                 1.5071                 1.2608
 IR Inten    --      1.2783                 3.4730                 3.2207

                     16                     17                     18
                      A                      A                      A
 Frequencies --    843.5320               851.9695               906.3452
 Red. masses --      1.6775                 3.3319                 2.9648
 Frc consts  --      0.7033                 1.4249                 1.4349
 IR Inten    --     36.3233                22.2656                14.8195

                     19                     20                     21
                      A                      A                      A
 Frequencies --    973.0380              1067.5715              1105.0557
 Red. masses --      3.1950                 1.9984                 3.1730
 Frc consts  --      1.7823                 1.3419                 2.2829
 IR Inten    --     47.8196                 5.2745                66.3701

                     22                     23                     24
                      A                      A                      A
 Frequencies --   1130.9404              1162.0618              1173.8498
 Red. masses --      2.7376                 2.3971                 2.1038
 Frc consts  --      2.0630                 1.9072                 1.7079
 IR Inten    --     11.2037                 6.6488               129.6877

                     25                     26                     27
                      A                      A                      A
 Frequencies --   1307.0782              1342.1138              1367.1136
 Red. masses --      2.4626                 2.6920                 1.3606
 Frc consts  --      2.4788                 2.8570                 1.4982
 IR Inten    --     31.5175               225.5610                 2.0119

                     28                     29                     30
                      A                      A                      A
 Frequencies --   1388.8570              1433.7348              1517.2670
 Red. masses --      3.6833                 1.2562                 1.0531
 Frc consts  --      4.1860                 1.5214                 1.4283
 IR Inten    --    118.8331                 8.5890                 7.2017

                     31                     32                     33
                      A                      A                      A
 Frequencies --   1524.4326              1672.9674              1878.2909
 Red. masses --      1.0527                 8.5823                12.6412
 Frc consts  --      1.4413                14.1523                26.2762
 IR Inten    --      4.3559               201.2968               500.9187

                     34                     35                     36
                      A                      A                      A
 Frequencies --   2283.3323              3055.0635              3068.8866
 Red. masses --     13.9884                 1.0844                 1.0342
 Frc consts  --     42.9690                 5.9630                 5.7385
 IR Inten    --    569.7760                16.6978                11.1503

                     37                     38                     39
                      A                      A                      A
 Frequencies --   3145.9214              3153.2484              3272.0137
 Red. masses --      1.1036                 1.1041                 1.0975
 Frc consts  --      6.4353                 6.4679                 6.9230
 IR Inten    --     14.4513                13.4964                 1.1628

 - Thermochemistry -
 -------------------
 Temperature   298.150 Kelvin.  Pressure   1.00000 Atm.
 Atom     1 has atomic number  6 and mass  12.00000

 Molecular mass:   139.03818 amu.
 Principal axes and moments of inertia in atomic units:
                           1         2         3
     Eigenvalues --   767.928891887.488622551.67464
           X            0.99971  -0.02412  -0.00144
           Y            0.02414   0.99963   0.01252
           Z            0.00114  -0.01256   0.99992
 This molecule is an asymmetric top.
 Rotational symmetry number  1.
 Warning -- assumption of classical behavior for rotation
           may cause significant error
 Rotational temperatures (Kelvin)      0.11279     0.04589     0.03394
 Rotational constants (GHZ):           2.35014     0.95616     0.70728
 Zero-point vibrational energy     279516.8 (Joules/Mol)
                                   66.80613 (Kcal/Mol)
 Warning -- explicit consideration of  12 degrees of freedom as
           vibrations may cause significant error
 Vibrational temperatures:    115.70   166.04   185.74   255.98   339.65
          (Kelvin)            352.34   515.28   589.03   720.28   777.87
                              790.73   886.71   986.73  1038.72  1065.63
                             1213.65  1225.79  1304.03  1399.98  1536.00
                             1589.93  1627.17  1671.95  1688.91  1880.59
                             1931.00  1966.97  1998.26  2062.82  2183.01
                             2193.32  2407.03  2702.44  3285.21  4395.55
                             4415.44  4526.28  4536.82  4707.70

 Zero-point correction=                           0.106462 (Hartree/Particle)
 Thermal correction to Energy=                    0.115177
 Thermal correction to Enthalpy=                  0.116121
 Thermal correction to Gibbs Free Energy=         0.072184
 Sum of electronic and zero-point Energies=           -508.094523
 Sum of electronic and thermal Energies=              -508.085809
 Sum of electronic and thermal Enthalpies=            -508.084865
 Sum of electronic and thermal Free Energies=         -508.128801

                     E (Thermal)             CV                S
                      KCal/Mol        Cal/Mol-Kelvin    Cal/Mol-Kelvin
 Total                   72.274             31.306             92.472
 Electronic               0.000              0.000              0.000
 Translational            0.889              2.981             40.700
 Rotational               0.889              2.981             29.693
 Vibrational             70.497             25.344             22.078
 Vibration     1          0.600              1.962              3.881
 Vibration     2          0.608              1.937              3.176
 Vibration     3          0.612              1.924              2.959
 Vibration     4          0.628              1.870              2.350
 Vibration     5          0.655              1.786              1.832
 Vibration     6          0.660              1.771              1.767
 Vibration     7          0.733              1.559              1.130
 Vibration     8          0.774              1.450              0.929
 Vibration     9          0.856              1.249              0.657
 Vibration    10          0.896              1.160              0.564
 Vibration    11          0.905              1.141              0.545
 Vibration    12          0.976              0.997              0.422

 Optimization completed.
    -- Stationary point found.
 Normal termination of Gaussian 16 at Tue Dec  8 10:23:49 2020.

 ----------------------------------------------------------------------
 # B3LYP/6-311++G(d,p) empiricaldispersion=gd3bj scf=xqc pop=npa geom=c
 heck
 ----------------------------------------------------------------------

 --------------------------------------
 CID_152168823_JID_323_Energie_neutraal
 --------------------------------------
 Structure from the checkpoint file:  "JID_323.chk"
 Charge =  0 Multiplicity = 1

 SCF Done:  E(RB3LYP) =  -508.345923411     A.U. after   17 cycles
 Normal termination of Gaussian 16 at Tue Dec  8 10:24:39 2020.

 ----------------------------------------------------------------------
 # B3LYP/6-311++G(d,p) empiricaldispersion=gd3bj scf=xqc pop=npa geom=c
 heck
 ----------------------------------------------------------------------

 ------------------------------------
 CID_152168823_JID_323_Energie_kation
 ------------------------------------
 Structure from the checkpoint file:  "JID_323.chk"
 Charge =  1 Multiplicity = 2

 SCF Done:  E(UB3LYP) =  -507.992992505     A.U. after   29 cycles
 Normal termination of Gaussian 16 at Tue Dec  8 10:27:05 2020.
 Gaussian 16:  ES64L-G16RevA.03 25-Dec-2016

 ----------------------------------------------------------------------
 # B3LYP/6-311++G(d,p) empiricaldispersion=gd3bj scf=xqc pop=npa geom=c
 heck
 ----------------------------------------------------------------------

 -----------------------------------
 CID_152168823_JID_323_Energie_anion
 -----------------------------------
 Structure from the checkpoint file:  "JID_323.chk"
 Charge = -1 Multiplicity = 2

                         Standard orientation:
 ---------------------------------------------------------------------
 Center     Atomic      Atomic             Coordinates (Angstroms)
 Number     Number       Type             X           Y           Z
 ---------------------------------------------------------------------
      1          6           0       -0.749254    2.280151    0.530141
      2          6           0       -0.726775    1.103705   -0.438995
      3          6           0        0.379662    0.113152   -0.172850
      4          6           0       -0.141450   -1.093762    0.104676
      5          6           0       -1.609428   -0.983881    0.025110
      6          8           0       -2.455534   -1.822513    0.198601
      7          8           0       -1.921728    0.323671   -0.304952
      8          7           0        1.689067    0.584152   -0.241453
      9          7           0        2.599578   -0.236995   -0.014668
     10          7           0        3.522536   -0.872783    0.167804
     11          1           0       -0.824143    1.916788    1.559455
     12          1           0       -1.610313    2.919595    0.318778
     13          1           0        0.166430    2.870498    0.426895
     14          1           0       -0.672527    1.464841   -1.474220
     15          1           0        0.363841   -2.017784    0.349631
 ---------------------------------------------------------------------

 SCF Done:  E(UB3LYP) =  -508.365236831     A.U. after   29 cycles

 The electronic state is 2-A.
 Alpha  occ. eigenvalues --  -19.00493 -18.93758 -14.30894 -14.22394 -14.22264
 Alpha  occ. eigenvalues --  -10.12723 -10.10126 -10.05941 -10.04411 -10.00597
 Alpha  occ. eigenvalues --   -0.99030  -0.94417  -0.86617  -0.83677  -0.66734
 Alpha  occ. eigenvalues --   -0.62611  -0.53971  -0.49807  -0.42674  -0.38360
 Alpha  occ. eigenvalues --   -0.37170  -0.36237  -0.34484  -0.32406  -0.31004
 Alpha  occ. eigenvalues --   -0.29575  -0.28244  -0.26932  -0.24971  -0.23221
 Alpha  occ. eigenvalues --   -0.21271  -0.19395  -0.17472  -0.14908  -0.11766
 Alpha  occ. eigenvalues --   -0.09511   0.04660
 Alpha virt. eigenvalues --    0.08843   0.10732   0.10951   0.11764   0.12614
 Alpha virt. eigenvalues --    0.13919   0.15636   0.16075   0.16951   0.16988
 Alpha virt. eigenvalues --    0.18563   0.19213   0.19561   0.20249   0.21164

  Beta  occ. eigenvalues --  -19.00463 -18.93552 -14.30388 -14.22500 -14.21811
  Beta  occ. eigenvalues --  -10.12620 -10.10166 -10.05487 -10.04349 -10.00447
  Beta  occ. eigenvalues --   -0.98176  -0.94268  -0.86315  -0.83360  -0.66191
  Beta  occ. eigenvalues --   -0.62302  -0.53431  -0.49601  -0.42469  -0.37923
  Beta  occ. eigenvalues --   -0.36234  -0.34943  -0.33840  -0.32097  -0.29878
  Beta  occ. eigenvalues --   -0.29285  -0.27974  -0.26760  -0.24315  -0.23060
  Beta  occ. eigenvalues --   -0.21053  -0.17721  -0.17414  -0.14234  -0.11553
  Beta  occ. eigenvalues --   -0.07982
  Beta virt. eigenvalues --    0.08645   0.10922   0.11229   0.11750   0.12032
  Beta virt. eigenvalues --    0.12769   0.13866   0.15875   0.16663   0.16996
  Beta virt. eigenvalues --    0.17806   0.18846   0.19188   0.19782   0.20285

 Mulliken charges and spin densities:
               1          2
     1  C   -0.193529  -0.300149
     2  C   -0.171133   0.187222
     3  C   -0.666529   0.119303
     4  C    0.419763   0.128960
     5  C   -0.116779   0.064015
     6  O   -0.431474   0.065694
     7  O   -0.122768   0.005585
     8  N   -0.189255  -0.000125
     9  N    0.316749   0.075323
    10  N   -0.267242   0.299978
    11  H    0.133417   0.023821
    12  H   -0.017308   0.157557
    13  H    0.048231   0.091368
    14  H    0.100206   0.087833
    15  H    0.157651  -0.006386
 Sum of Mulliken charges =  -1.00000   1.00000

 Dipole moment (field-independent basis, Debye):
    X=              1.0643    Y=              3.2044    Z=             -0.3192  Tot=              3.3916
 Quadrupole moment (field-independent basis, Debye-Ang):
   XX=           -101.9820   YY=            -76.0620   ZZ=            -62.9455
   XY=             -3.7312   XZ=             -0.5099   YZ=              0.8495

 Summary of Natural Population Analysis:

                                       Natural Population
                Natural  -----------------------------------------------
    Atom  No    Charge         Core      Valence    Rydberg      Total
 -----------------------------------------------------------------------
      C    1   -0.28537      0.99964     2.28024    0.00549     3.28537
      C    2    0.05011      0.99954     1.93406    0.01629     2.94989
      C    3    0.16287      0.99940     1.82524    0.01250     2.83713
      C    4   -0.18765      0.99941     2.17929    0.00896     3.18765
      C    5    0.39943      0.99967     1.57432    0.02657     2.60057
      O    6   -0.30206      0.99986     3.29546    0.00673     4.30206
      O    7   -0.29496      0.99987     3.28661    0.00848     4.29496
      N    8   -0.23774      0.99964     2.72427    0.01383     3.73774
      N    9    0.16907      0.99970     2.31494    0.01629     3.33093
      N   10    0.03425      0.99982     2.45314    0.01279     3.46575
      H   11    0.09993      0.00000     0.39883    0.00124     0.40007
      H   12    0.09630      0.00000     0.40206    0.00164     0.40370
      H   13    0.10116      0.00000     0.39722    0.00161     0.39884
      H   14    0.09138      0.00000     0.40675    0.00187     0.40862
      H   15    0.10328      0.00000     0.39587    0.00085     0.39672
 =======================================================================
   * Total *    0.00000      9.99655    25.86832    0.13513    36.00000

 Normal termination of Gaussian 16 at Tue Dec  8 10:29:33 2020.
