 Gaussian 16, Revision A.03,

 -----------------------------------------------------------
 # opt freq B3LYP/6-31G(d) empiricaldispersion=gd3bj scf=xqc
 -----------------------------------------------------------

 ------------------------------
 CID_12592481_JID_4745_neutraal
 ------------------------------
 Symbolic Z-matrix:
 Charge =  0 Multiplicity = 1

 SCF Done:  E(RB3LYP) =  -577.887777847     A.U. after   14 cycles
 SCF Done:  E(RB3LYP) =  -577.889896481     A.U. after   12 cycles
 SCF Done:  E(RB3LYP) =  -577.890338984     A.U. after   12 cycles
 SCF Done:  E(RB3LYP) =  -577.890460048     A.U. after   11 cycles
 SCF Done:  E(RB3LYP) =  -577.890480379     A.U. after    9 cycles
 SCF Done:  E(RB3LYP) =  -577.890486757     A.U. after    9 cycles
 SCF Done:  E(RB3LYP) =  -577.890487725     A.U. after    8 cycles
 SCF Done:  E(RB3LYP) =  -577.890488664     A.U. after    8 cycles
 SCF Done:  E(RB3LYP) =  -577.890488991     A.U. after    8 cycles
 SCF Done:  E(RB3LYP) =  -577.890489151     A.U. after    8 cycles
 Optimization completed.
    -- Stationary point found.
 Normal termination of Gaussian 16 at Thu Dec 10 10:28:35 2020.

 --------------------------------------------------------------------
 #N Geom=AllCheck Guess=TCheck SCRF=Check GenChk RB3LYP/6-31G(d) Freq
 --------------------------------------------------------------------

 Structure from the checkpoint file:  "JID_4745.chk"
 ------------------------------
 CID_12592481_JID_4745_neutraal
 ------------------------------
 Charge =  0 Multiplicity = 1

 SCF Done:  E(RB3LYP) =  -577.890489151     A.U. after    1 cycles

  Exact polarizability: 205.058  -4.577 137.971   2.993   8.798  67.185
 Approx polarizability: 294.674 -10.636 241.395   6.914  19.059 108.287

                      1                      2                      3
                      A                      A                      A
 Frequencies --     59.1914                73.1625               105.8958
 Red. masses --      3.8614                 4.4376                 4.1991
 Frc consts  --      0.0080                 0.0140                 0.0277
 IR Inten    --      0.1258                 0.9954                 0.4925

                      4                      5                      6
                      A                      A                      A
 Frequencies --    170.0431               181.3066               243.9928
 Red. masses --      1.6601                 1.5960                 3.3477
 Frc consts  --      0.0283                 0.0309                 0.1174
 IR Inten    --      3.8342                 0.7079                 5.3932

                      7                      8                      9
                      A                      A                      A
 Frequencies --    272.0379               303.9520               311.3020
 Red. masses --      4.5229                 5.4679                 1.1516
 Frc consts  --      0.1972                 0.2976                 0.0658
 IR Inten    --      0.4858                 0.1846                83.3869

                     10                     11                     12
                      A                      A                      A
 Frequencies --    330.2483               352.9019               418.2661
 Red. masses --      3.1756                 4.7728                 3.0303
 Frc consts  --      0.2041                 0.3502                 0.3124
 IR Inten    --      2.4227                 1.5668                 0.0669

                     13                     14                     15
                      A                      A                      A
 Frequencies --    461.4373               514.5149               555.8128
 Red. masses --      4.0800                 4.6356                 3.9002
 Frc consts  --      0.5118                 0.7230                 0.7099
 IR Inten    --      1.9951                 2.7958                 0.9970

                     16                     17                     18
                      A                      A                      A
 Frequencies --    564.1348               576.1811               608.0756
 Red. masses --      4.1060                 3.6995                 6.6666
 Frc consts  --      0.7699                 0.7236                 1.4523
 IR Inten    --      2.4286                 4.2564                10.6656

                     19                     20                     21
                      A                      A                      A
 Frequencies --    637.7219               695.7615               713.6426
 Red. masses --      6.3484                 5.8409                 1.8416
 Frc consts  --      1.5212                 1.6659                 0.5526
 IR Inten    --      0.1141                 1.7459                28.5060

                     22                     23                     24
                      A                      A                      A
 Frequencies --    740.0386               772.6431               797.9608
 Red. masses --      3.7222                 1.4895                 1.7902
 Frc consts  --      1.2010                 0.5239                 0.6716
 IR Inten    --      2.3358                52.9432                 5.2326

                     25                     26                     27
                      A                      A                      A
 Frequencies --    844.4924               858.5940               874.7996
 Red. masses --      5.6515                 1.2483                 3.8851
 Frc consts  --      2.3747                 0.5422                 1.7517
 IR Inten    --     12.0279                 0.4401                 5.2061

                     28                     29                     30
                      A                      A                      A
 Frequencies --    913.2056               931.5147               959.9259
 Red. masses --      1.3279                 1.4292                 1.2611
 Frc consts  --      0.6525                 0.7306                 0.6847
 IR Inten    --      0.3010                 1.3671                 0.6872

                     31                     32                     33
                      A                      A                      A
 Frequencies --    968.1926               991.8795              1017.1660
 Red. masses --      1.3409                 1.2426                 1.7132
 Frc consts  --      0.7406                 0.7203                 1.0443
 IR Inten    --      0.5462                 0.1776                 3.4073

                     34                     35                     36
                      A                      A                      A
 Frequencies --   1022.5449              1060.0973              1070.9445
 Red. masses --      5.6656                 2.4815                 1.4645
 Frc consts  --      3.4903                 1.6431                 0.9896
 IR Inten    --      0.3305                 8.5837                 1.7556

                     37                     38                     39
                      A                      A                      A
 Frequencies --   1100.9886              1115.2102              1129.6057
 Red. masses --      2.3891                 1.6349                 1.7385
 Frc consts  --      1.7063                 1.1980                 1.3070
 IR Inten    --     19.8782                 2.2569                 3.5182

                     40                     41                     42
                      A                      A                      A
 Frequencies --   1193.8167              1199.8801              1220.3332
 Red. masses --      1.0926                 1.1664                 1.1401
 Frc consts  --      0.9175                 0.9894                 1.0004
 IR Inten    --      0.0760                 3.8134                 0.7770

                     43                     44                     45
                      A                      A                      A
 Frequencies --   1246.8578              1294.0345              1304.1117
 Red. masses --      2.4964                 2.6043                 2.0429
 Frc consts  --      2.2866                 2.5694                 2.0471
 IR Inten    --     89.2774                13.4345                51.0409

                     46                     47                     48
                      A                      A                      A
 Frequencies --   1325.1300              1345.1212              1368.9520
 Red. masses --      3.2810                 3.2152                 1.7378
 Frc consts  --      3.3945                 3.4275                 1.9188
 IR Inten    --      6.8255                 3.3576                 0.6340

                     49                     50                     51
                      A                      A                      A
 Frequencies --   1387.8407              1442.1003              1477.2821
 Red. masses --      2.5218                 1.3059                 2.4026
 Frc consts  --      2.8618                 1.6001                 3.0892
 IR Inten    --     23.6159                 7.2036                55.7237

                     52                     53                     54
                      A                      A                      A
 Frequencies --   1505.2240              1520.9464              1521.8733
 Red. masses --      2.0779                 2.2390                 1.0484
 Frc consts  --      2.7738                 3.0517                 1.4306
 IR Inten    --     15.5257                10.5553                 7.9086

                     55                     56                     57
                      A                      A                      A
 Frequencies --   1540.8812              1555.2947              1636.5835
 Red. masses --      1.4119                 2.1945                 5.1921
 Frc consts  --      1.9752                 3.1276                 8.1935
 IR Inten    --     27.6696                 2.5927                 1.1925

                     58                     59                     60
                      A                      A                      A
 Frequencies --   1653.0921              1665.8895              1667.3681
 Red. masses --      5.6584                 5.7647                 6.1931
 Frc consts  --      9.1105                 9.4259                10.1442
 IR Inten    --      9.5645                 8.3768                 0.6176

                     61                     62                     63
                      A                      A                      A
 Frequencies --   3016.6133              3059.9682              3133.4103
 Red. masses --      1.0425                 1.1006                 1.0947
 Frc consts  --      5.5895                 6.0715                 6.3328
 IR Inten    --     35.4426                24.4012                11.7905

                     64                     65                     66
                      A                      A                      A
 Frequencies --   3179.5857              3181.3143              3187.9330
 Red. masses --      1.0847                 1.0872                 1.0883
 Frc consts  --      6.4608                 6.4832                 6.5167
 IR Inten    --      1.9993                 8.2987                10.9629

                     67                     68                     69
                      A                      A                      A
 Frequencies --   3195.7959              3199.4674              3208.2926
 Red. masses --      1.0901                 1.0916                 1.0970
 Frc consts  --      6.5594                 6.5835                 6.6526
 IR Inten    --     33.2714                13.5731                33.8724

                     70                     71                     72
                      A                      A                      A
 Frequencies --   3212.8260              3231.3251              3769.7018
 Red. masses --      1.0960                 1.0927                 1.0652
 Frc consts  --      6.6655                 6.7222                 8.9189
 IR Inten    --     22.5873                 6.6762                50.3944

 - Thermochemistry -
 -------------------
 Temperature   298.150 Kelvin.  Pressure   1.00000 Atm.
 Atom     1 has atomic number  6 and mass  12.00000

 Molecular mass:   184.08882 amu.
 Principal axes and moments of inertia in atomic units:
                           1         2         3
     Eigenvalues --  1124.363294120.159504992.86850
           X            0.99995   0.00998  -0.00101
           Y           -0.00997   0.99992   0.00831
           Z            0.00109  -0.00830   0.99996
 This molecule is an asymmetric top.
 Rotational symmetry number  1.
 Warning -- assumption of classical behavior for rotation
           may cause significant error
 Rotational temperatures (Kelvin)      0.07703     0.02102     0.01735
 Rotational constants (GHZ):           1.60512     0.43803     0.36146
 Zero-point vibrational energy     562054.9 (Joules/Mol)
                                  134.33433 (Kcal/Mol)
 Warning -- explicit consideration of  18 degrees of freedom as
           vibrations may cause significant error
 Vibrational temperatures:     85.16   105.26   152.36   244.65   260.86
          (Kelvin)            351.05   391.40   437.32   447.89   475.15
                              507.75   601.79   663.91   740.27   799.69
                              811.66   829.00   874.89   917.54  1001.05
                             1026.77  1064.75  1111.66  1148.09  1215.04
                             1235.33  1258.64  1313.90  1340.24  1381.12
                             1393.01  1427.09  1463.47  1471.21  1525.24
                             1540.85  1584.08  1604.54  1625.25  1717.64
                             1726.36  1755.79  1793.95  1861.83  1876.33
                             1906.57  1935.33  1969.62  1996.79  2074.86
                             2125.48  2165.68  2188.30  2189.64  2216.98
                             2237.72  2354.68  2378.43  2396.84  2398.97
                             4340.23  4402.61  4508.28  4574.71  4577.20
                             4586.72  4598.04  4603.32  4616.02  4622.54
                             4649.16  5423.76

 Zero-point correction=                           0.214075 (Hartree/Particle)
 Thermal correction to Energy=                    0.225802
 Thermal correction to Enthalpy=                  0.226746
 Thermal correction to Gibbs Free Energy=         0.176324
 Sum of electronic and zero-point Energies=           -577.676414
 Sum of electronic and thermal Energies=              -577.664688
 Sum of electronic and thermal Enthalpies=            -577.663743
 Sum of electronic and thermal Free Energies=         -577.714165

                     E (Thermal)             CV                S
                      KCal/Mol        Cal/Mol-Kelvin    Cal/Mol-Kelvin
 Total                  141.693             46.837            106.121
 Electronic               0.000              0.000              0.000
 Translational            0.889              2.981             41.537
 Rotational               0.889              2.981             31.515
 Vibrational            139.915             40.876             33.069
 Vibration     1          0.597              1.974              4.484
 Vibration     2          0.599              1.967              4.066
 Vibration     3          0.605              1.945              3.343
 Vibration     4          0.625              1.879              2.435
 Vibration     5          0.630              1.865              2.315
 Vibration     6          0.659              1.773              1.774
 Vibration     7          0.675              1.725              1.583
 Vibration     8          0.695              1.666              1.395
 Vibration     9          0.700              1.652              1.355
 Vibration    10          0.713              1.615              1.259
 Vibration    11          0.729              1.569              1.153
 Vibration    12          0.781              1.431              0.898
 Vibration    13          0.819              1.336              0.762
 Vibration    14          0.870              1.218              0.623
 Vibration    15          0.911              1.127              0.532
 Vibration    16          0.920              1.109              0.516
 Vibration    17          0.933              1.083              0.492
 Vibration    18          0.967              1.015              0.436

 Optimization completed.
    -- Stationary point found.
 Normal termination of Gaussian 16 at Thu Dec 10 10:35:35 2020.

 ----------------------------------------------------------------------
 # B3LYP/6-311++G(d,p) empiricaldispersion=gd3bj scf=xqc pop=npa geom=c
 heck
 ----------------------------------------------------------------------

 --------------------------------------
 CID_12592481_JID_4745_Energie_neutraal
 --------------------------------------
 Structure from the checkpoint file:  "JID_4745.chk"
 Charge =  0 Multiplicity = 1

 SCF Done:  E(RB3LYP) =  -578.047798181     A.U. after   16 cycles
 Normal termination of Gaussian 16 at Thu Dec 10 10:38:50 2020.

 ----------------------------------------------------------------------
 # B3LYP/6-311++G(d,p) empiricaldispersion=gd3bj scf=xqc pop=npa geom=c
 heck
 ----------------------------------------------------------------------

 ------------------------------------
 CID_12592481_JID_4745_Energie_kation
 ------------------------------------
 Structure from the checkpoint file:  "JID_4745.chk"
 Charge =  1 Multiplicity = 2

 SCF Done:  E(UB3LYP) =  -577.765147284     A.U. after   26 cycles
 Normal termination of Gaussian 16 at Thu Dec 10 10:47:52 2020.
 Gaussian 16:  ES64L-G16RevA.03 25-Dec-2016

 ----------------------------------------------------------------------
 # B3LYP/6-311++G(d,p) empiricaldispersion=gd3bj scf=xqc pop=npa geom=c
 heck
 ----------------------------------------------------------------------

 -----------------------------------
 CID_12592481_JID_4745_Energie_anion
 -----------------------------------
 Structure from the checkpoint file:  "JID_4745.chk"
 Charge = -1 Multiplicity = 2

                         Standard orientation:
 ---------------------------------------------------------------------
 Center     Atomic      Atomic             Coordinates (Angstroms)
 Number     Number       Type             X           Y           Z
 ---------------------------------------------------------------------
      1          6           0       -3.629786   -1.390087    0.296332
      2          6           0       -2.623255   -0.287624    0.069394
      3          6           0       -1.247110   -0.572622    0.107475
      4          6           0       -0.280614    0.432030   -0.092119
      5          6           0       -0.737489    1.736018   -0.333189
      6          6           0       -2.094803    2.039727   -0.374965
      7          6           0       -3.029185    1.026211   -0.173399
      8          6           0        1.177310    0.158759   -0.036919
      9          6           0        1.750185   -0.957255   -0.667476
     10          6           0        3.127925   -1.161075   -0.639123
     11          6           0        3.963005   -0.258666    0.021875
     12          6           0        3.406521    0.851783    0.656893
     13          6           0        2.028413    1.056703    0.627059
     14          8           0       -0.801254   -1.844975    0.358146
     15          1           0       -3.536306   -2.196184   -0.445474
     16          1           0       -3.531938   -1.844536    1.293356
     17          1           0       -4.649654   -1.003579    0.223102
     18          1           0       -0.001964    2.514679   -0.510873
     19          1           0       -2.422095    3.055968   -0.571978
     20          1           0       -4.092731    1.248871   -0.206769
     21          1           0        1.109738   -1.662790   -1.183359
     22          1           0        3.551539   -2.028065   -1.138962
     23          1           0        5.036894   -0.421864    0.044879
     24          1           0        4.044380    1.556970    1.182905
     25          1           0        1.598849    1.912182    1.140354
     26          1           0       -1.563390   -2.415262    0.536611
 ---------------------------------------------------------------------

 SCF Done:  E(UB3LYP) =  -578.035442582     A.U. after   33 cycles
 SCF Done:  E(UB3LYP) =  -578.035442582     a.u. after    1 cycles

 The electronic state is 2-A.
 Alpha  occ. eigenvalues --  -19.03946 -10.11919 -10.07031 -10.06978 -10.06714
 Alpha  occ. eigenvalues --  -10.06702 -10.06476 -10.06434 -10.06425 -10.06092
 Alpha  occ. eigenvalues --  -10.05898 -10.05883 -10.05703 -10.05634  -0.95084
 Alpha  occ. eigenvalues --   -0.75639  -0.73764  -0.67722  -0.64707  -0.63950
 Alpha  occ. eigenvalues --   -0.61284  -0.57938  -0.51582  -0.50702  -0.48638
 Alpha  occ. eigenvalues --   -0.46931  -0.42985  -0.41318  -0.38058  -0.36127
 Alpha  occ. eigenvalues --   -0.34799  -0.34007  -0.32428  -0.31854  -0.31501
 Alpha  occ. eigenvalues --   -0.30269  -0.28765  -0.28301  -0.27830  -0.26319
 Alpha  occ. eigenvalues --   -0.25531  -0.24576  -0.23575  -0.22626  -0.22042
 Alpha  occ. eigenvalues --   -0.16530  -0.14974  -0.12587  -0.10877   0.04843
 Alpha virt. eigenvalues --    0.06710   0.06980   0.07736   0.08601   0.08914
 Alpha virt. eigenvalues --    0.09205   0.10049   0.10316   0.10764   0.10890
 Alpha virt. eigenvalues --    0.12010   0.12313   0.12362   0.13009   0.13710

  Beta  occ. eigenvalues --  -19.03914 -10.11892 -10.06990 -10.06953 -10.06705
  Beta  occ. eigenvalues --  -10.06700 -10.06430 -10.06386 -10.06324 -10.06063
  Beta  occ. eigenvalues --  -10.05849 -10.05808 -10.05711 -10.05548  -0.95012
  Beta  occ. eigenvalues --   -0.75508  -0.73661  -0.67571  -0.64594  -0.63859
  Beta  occ. eigenvalues --   -0.61149  -0.57788  -0.51360  -0.50654  -0.48585
  Beta  occ. eigenvalues --   -0.46806  -0.42898  -0.41259  -0.37978  -0.36043
  Beta  occ. eigenvalues --   -0.34725  -0.33920  -0.32327  -0.31768  -0.31464
  Beta  occ. eigenvalues --   -0.30193  -0.28664  -0.28230  -0.27734  -0.26132
  Beta  occ. eigenvalues --   -0.25384  -0.24517  -0.23506  -0.22438  -0.21966
  Beta  occ. eigenvalues --   -0.16025  -0.14740  -0.12233  -0.10600
  Beta virt. eigenvalues --    0.06844   0.07635   0.07805   0.08024   0.08749
  Beta virt. eigenvalues --    0.09216   0.09373   0.10547   0.10684   0.11062
  Beta virt. eigenvalues --    0.11169   0.12249   0.12606   0.12775   0.13538

 Mulliken charges and spin densities:
               1          2
     1  C    4.399795  -4.999827
     2  C   -2.776936   3.745627
     3  C   -2.528981   1.330860
     4  C    1.898225  -0.411568
     5  C   -0.294096  -0.507336
     6  C   -0.488968   0.138944
     7  C    1.217916  -1.957778
     8  C    1.531789   0.018936
     9  C   -0.944185   0.312516
    10  C    0.138379  -0.197449
    11  C   -0.361359  -0.084571
    12  C   -0.092335  -0.049219
    13  C   -0.863342   0.157399
    14  O   -0.247308   0.023665
    15  H   -0.403845   0.563178
    16  H   -0.510399   0.678714
    17  H   -0.857570   1.037646
    18  H    0.097107   0.028165
    19  H   -0.059184   0.202867
    20  H   -0.136413   0.239541
    21  H    0.041110   0.129693
    22  H    0.028609   0.119803
    23  H    0.083184   0.029188
    24  H    0.086629   0.052941
    25  H    0.126265   0.013408
    26  H   -0.084086   0.384658
 Sum of Mulliken charges =  -1.00000   1.00000

 Dipole moment (field-independent basis, Debye):
    X=              7.6892    Y=              4.3397    Z=             -1.2344  Tot=              8.9152
 Quadrupole moment (field-independent basis, Debye-Ang):
   XX=           -159.3940   YY=           -115.5491   ZZ=           -106.5536
   XY=            -14.0816   XZ=              7.5420   YZ=              5.4220

 Summary of Natural Population Analysis:

                                       Natural Population
                Natural  -----------------------------------------------
    Atom  No    Charge         Core      Valence    Rydberg      Total
 -----------------------------------------------------------------------
      C    1   -0.30471      0.99964     2.29761    0.00746     3.30471
      C    2   -0.04772      0.99948     2.03815    0.01009     3.04772
      C    3    0.17264      0.99930     1.81458    0.01348     2.82736
      C    4   -0.04320      0.99946     2.03326    0.01048     3.04320
      C    5   -0.08348      0.99954     2.07625    0.00769     3.08348
      C    6   -0.12183      0.99956     2.11248    0.00979     3.12183
      C    7   -0.07987      0.99952     2.07021    0.01013     3.07987
      C    8   -0.00778      0.99950     1.99755    0.01073     3.00778
      C    9   -0.08151      0.99952     2.07339    0.00860     3.08151
      C   10   -0.10706      0.99957     2.09755    0.00995     3.10706
      C   11   -0.09363      0.99957     2.08363    0.01043     3.09363
      C   12   -0.11144      0.99957     2.10169    0.01018     3.11144
      C   13   -0.09087      0.99953     2.08366    0.00768     3.09087
      O   14   -0.34313      0.99988     3.33631    0.00695     4.34313
      H   15    0.10326      0.00000     0.39482    0.00192     0.39674
      H   16    0.10630      0.00000     0.38964    0.00406     0.39370
      H   17    0.11109      0.00000     0.38625    0.00266     0.38891
      H   18    0.09691      0.00000     0.40166    0.00144     0.40309
      H   19    0.09640      0.00000     0.40281    0.00079     0.40360
      H   20    0.09754      0.00000     0.40154    0.00092     0.40246
      H   21    0.10695      0.00000     0.39189    0.00117     0.39305
      H   22    0.09628      0.00000     0.40291    0.00082     0.40372
      H   23    0.09381      0.00000     0.40540    0.00080     0.40619
      H   24    0.09520      0.00000     0.40397    0.00083     0.40480
      H   25    0.09842      0.00000     0.40014    0.00143     0.40158
      H   26    0.24145      0.00000     0.25476    0.00378     0.25855
 =======================================================================
   * Total *   -0.00000     13.99365    34.85209    0.15426    49.00000

 Normal termination of Gaussian 16 at Thu Dec 10 11:01:25 2020.
