 Gaussian 16, Revision A.03,

 -----------------------------------------------------------
 # opt freq B3LYP/6-31G(d) empiricaldispersion=gd3bj scf=xqc
 -----------------------------------------------------------

 -------------------------------
 CID_131492447_JID_3714_neutraal
 -------------------------------
 Symbolic Z-matrix:
 Charge =  0 Multiplicity = 1

 SCF Done:  E(RB3LYP) =  -571.834498366     A.U. after   15 cycles
 SCF Done:  E(RB3LYP) =  -571.837509408     A.U. after   13 cycles
 SCF Done:  E(RB3LYP) =  -571.837766719     A.U. after   12 cycles
 SCF Done:  E(RB3LYP) =  -571.837724393     A.U. after   13 cycles
 SCF Done:  E(RB3LYP) =  -571.837801350     A.U. after   12 cycles
 SCF Done:  E(RB3LYP) =  -571.837867128     A.U. after   12 cycles
 SCF Done:  E(RB3LYP) =  -571.837869243     A.U. after    9 cycles
 SCF Done:  E(RB3LYP) =  -571.837869519     A.U. after    8 cycles
 SCF Done:  E(RB3LYP) =  -571.837869594     A.U. after    8 cycles
 Optimization completed.
    -- Stationary point found.
 Normal termination of Gaussian 16 at Thu Dec 10 00:00:23 2020.

 --------------------------------------------------------------------
 #N Geom=AllCheck Guess=TCheck SCRF=Check GenChk RB3LYP/6-31G(d) Freq
 --------------------------------------------------------------------

 Structure from the checkpoint file:  "JID_3714.chk"
 -------------------------------
 CID_131492447_JID_3714_neutraal
 -------------------------------
 Charge =  0 Multiplicity = 1

 SCF Done:  E(RB3LYP) =  -571.837869594     A.U. after    1 cycles

  Exact polarizability: 177.526  -3.419 115.387   1.394  -1.778  62.046
 Approx polarizability: 281.093 -13.661 189.942   5.397  -5.596  91.553

                      1                      2                      3
                      A                      A                      A
 Frequencies --     56.4323                70.6817               100.2049
 Red. masses --      4.1908                 3.2760                 5.8524
 Frc consts  --      0.0079                 0.0096                 0.0346
 IR Inten    --      0.2015                 1.4406                10.8987

                      4                      5                      6
                      A                      A                      A
 Frequencies --    125.0332               181.7104               195.0468
 Red. masses --      7.8182                 3.8767                 3.5250
 Frc consts  --      0.0720                 0.0754                 0.0790
 IR Inten    --      6.4425                 2.3670                 3.4504

                      7                      8                      9
                      A                      A                      A
 Frequencies --    215.4113               228.2962               253.9344
 Red. masses --      2.3946                 1.2098                 1.2684
 Frc consts  --      0.0655                 0.0372                 0.0482
 IR Inten    --      1.6636                 0.4189                 1.4386

                     10                     11                     12
                      A                      A                      A
 Frequencies --    273.4222               305.8939               352.7606
 Red. masses --      2.5453                 4.1669                 4.0766
 Frc consts  --      0.1121                 0.2297                 0.2989
 IR Inten    --      0.4046                 2.7547                 4.7160

                     13                     14                     15
                      A                      A                      A
 Frequencies --    422.9748               431.0121               446.2061
 Red. masses --      6.6787                 3.9089                 4.2152
 Frc consts  --      0.7040                 0.4278                 0.4945
 IR Inten    --      0.7037                 0.8305                 0.5625

                     16                     17                     18
                      A                      A                      A
 Frequencies --    496.5746               521.3113               568.1940
 Red. masses --      4.2348                 4.6305                 6.4356
 Frc consts  --      0.6153                 0.7414                 1.2241
 IR Inten    --      1.0878                 0.7698                 1.6362

                     19                     20                     21
                      A                      A                      A
 Frequencies --    610.9054               690.1702               712.7130
 Red. masses --      3.7396                 6.1387                 3.8396
 Frc consts  --      0.8223                 1.7228                 1.1491
 IR Inten    --      5.1288                 0.8366                 1.4612

                     22                     23                     24
                      A                      A                      A
 Frequencies --    765.7933               803.1985               897.0435
 Red. masses --      6.3158                 5.6451                 2.6520
 Frc consts  --      2.1822                 2.1457                 1.2573
 IR Inten    --     54.5696                 6.0661                 5.3079

                     25                     26                     27
                      A                      A                      A
 Frequencies --    940.1425               950.6665               967.8952
 Red. masses --      1.4672                 1.1736                 1.4011
 Frc consts  --      0.7641                 0.6249                 0.7733
 IR Inten    --     11.7315                 3.9806                 0.2349

                     28                     29                     30
                      A                      A                      A
 Frequencies --    982.8899               984.7118              1030.6157
 Red. masses --      1.8814                 3.1024                 1.8164
 Frc consts  --      1.0709                 1.7724                 1.1367
 IR Inten    --      4.8338                13.6887                 0.4962

                     31                     32                     33
                      A                      A                      A
 Frequencies --   1103.1856              1120.2380              1150.2416
 Red. masses --      1.6185                 2.8469                 2.6232
 Frc consts  --      1.1605                 2.1050                 2.0449
 IR Inten    --     18.8163                24.3388                13.5182

                     34                     35                     36
                      A                      A                      A
 Frequencies --   1195.5682              1230.9739              1263.7846
 Red. masses --      1.6939                 1.9894                 4.9959
 Frc consts  --      1.4266                 1.7761                 4.7012
 IR Inten    --     16.5823                 0.0892                14.9467

                     37                     38                     39
                      A                      A                      A
 Frequencies --   1306.4263              1319.9020              1341.6596
 Red. masses --      7.0898                 1.8417                 1.3222
 Frc consts  --      7.1294                 1.8904                 1.4023
 IR Inten    --     15.5316                 4.8091                 2.2965

                     40                     41                     42
                      A                      A                      A
 Frequencies --   1399.3367              1420.0485              1434.8538
 Red. masses --      1.6153                 1.2427                 1.9887
 Frc consts  --      1.8636                 1.4765                 2.4123
 IR Inten    --     12.9693                 8.5146                 2.4147

                     43                     44                     45
                      A                      A                      A
 Frequencies --   1444.0915              1455.9815              1502.4283
 Red. masses --      1.4013                 1.5419                 2.1836
 Frc consts  --      1.7217                 1.9258                 2.9041
 IR Inten    --      6.5556                19.4860                36.1957

                     46                     47                     48
                      A                      A                      A
 Frequencies --   1517.1004              1518.4335              1531.5432
 Red. masses --      1.0427                 1.0546                 1.0490
 Frc consts  --      1.4140                 1.4327                 1.4498
 IR Inten    --      1.8808                 2.3730                 8.3188

                     49                     50                     51
                      A                      A                      A
 Frequencies --   1541.4684              1581.1542              1655.0995
 Red. masses --      1.0887                 5.7514                 5.6644
 Frc consts  --      1.5241                 8.4717                 9.1423
 IR Inten    --     11.9250                70.9721                74.8340

                     52                     53                     54
                      A                      A                      A
 Frequencies --   1804.2072              2355.6673              2912.0933
 Red. masses --     10.1451                12.6762                 1.0838
 Frc consts  --     19.4572                41.4444                 5.4150
 IR Inten    --    226.9841                26.8854               117.7543

                     55                     56                     57
                      A                      A                      A
 Frequencies --   3055.1095              3061.0577              3107.3483
 Red. masses --      1.0349                 1.0366                 1.0858
 Frc consts  --      5.6911                 5.7227                 6.1773
 IR Inten    --     24.4720                27.1125                 2.3532

                     58                     59                     60
                      A                      A                      A
 Frequencies --   3123.2183              3127.7375              3142.3442
 Red. masses --      1.1028                 1.1014                 1.1021
 Frc consts  --      6.3382                 6.3485                 6.4120
 IR Inten    --     22.5858                24.4357                19.3981

                     61                     62                     63
                      A                      A                      A
 Frequencies --   3150.2319              3191.9127              3199.8512
 Red. masses --      1.1001                 1.0920                 1.0915
 Frc consts  --      6.4320                 6.5549                 6.5848
 IR Inten    --     22.2773                 8.1713                 1.8634

 - Thermochemistry -
 -------------------
 Temperature   298.150 Kelvin.  Pressure   1.00000 Atm.
 Atom     1 has atomic number  6 and mass  12.00000

 Molecular mass:   174.07931 amu.
 Principal axes and moments of inertia in atomic units:
                           1         2         3
     Eigenvalues --  1268.873483425.647034391.40650
           X            0.99951   0.03110  -0.00453
           Y           -0.03107   0.99949   0.00697
           Z            0.00475  -0.00683   0.99997
 This molecule is an asymmetric top.
 Rotational symmetry number  1.
 Warning -- assumption of classical behavior for rotation
           may cause significant error
 Rotational temperatures (Kelvin)      0.06826     0.02528     0.01972
 Rotational constants (GHZ):           1.42232     0.52683     0.41097
 Zero-point vibrational energy     477586.0 (Joules/Mol)
                                  114.14579 (Kcal/Mol)
 Warning -- explicit consideration of  19 degrees of freedom as
           vibrations may cause significant error
 Vibrational temperatures:     81.19   101.70   144.17   179.89   261.44
          (Kelvin)            280.63   309.93   328.47   365.35   393.39
                              440.11   507.54   608.57   620.13   641.99
                              714.46   750.05   817.50   878.96   993.00
                             1025.44  1101.81  1155.62  1290.65  1352.66
                             1367.80  1392.59  1414.16  1416.78  1482.83
                             1587.24  1611.77  1654.94  1720.16  1771.10
                             1818.30  1879.66  1899.04  1930.35  2013.33
                             2043.13  2064.43  2077.73  2094.83  2161.66
                             2182.77  2184.69  2203.55  2217.83  2274.93
                             2381.32  2595.85  3389.28  4189.85  4395.62
                             4404.18  4470.78  4493.61  4500.12  4521.13
                             4532.48  4592.45  4603.87

 Zero-point correction=                           0.181903 (Hartree/Particle)
 Thermal correction to Energy=                    0.194189
 Thermal correction to Enthalpy=                  0.195134
 Thermal correction to Gibbs Free Energy=         0.143273
 Sum of electronic and zero-point Energies=           -571.655967
 Sum of electronic and thermal Energies=              -571.643680
 Sum of electronic and thermal Enthalpies=            -571.642736
 Sum of electronic and thermal Free Energies=         -571.694597

                     E (Thermal)             CV                S
                      KCal/Mol        Cal/Mol-Kelvin    Cal/Mol-Kelvin
 Total                  121.856             45.228            109.150
 Electronic               0.000              0.000              0.000
 Translational            0.889              2.981             41.370
 Rotational               0.889              2.981             31.324
 Vibrational            120.078             39.267             36.456
 Vibration     1          0.596              1.975              4.578
 Vibration     2          0.598              1.968              4.134
 Vibration     3          0.604              1.949              3.450
 Vibration     4          0.610              1.928              3.021
 Vibration     5          0.630              1.865              2.311
 Vibration     6          0.636              1.847              2.179
 Vibration     7          0.645              1.818              1.997
 Vibration     8          0.651              1.798              1.892
 Vibration     9          0.665              1.756              1.703
 Vibration    10          0.676              1.722              1.574
 Vibration    11          0.696              1.663              1.384
 Vibration    12          0.729              1.570              1.154
 Vibration    13          0.785              1.420              0.882
 Vibration    14          0.792              1.403              0.855
 Vibration    15          0.805              1.369              0.807
 Vibration    16          0.852              1.258              0.667
 Vibration    17          0.876              1.203              0.607
 Vibration    18          0.924              1.100              0.508
 Vibration    19          0.970              1.009              0.431

                           ! Non-Optimized Parameters !
 Normal termination of Gaussian 16 at Thu Dec 10 00:05:34 2020.

 ----------------------------------------------------------------------
 # B3LYP/6-311++G(d,p) empiricaldispersion=gd3bj scf=xqc pop=npa geom=c
 heck
 ----------------------------------------------------------------------

 ---------------------------------------
 CID_131492447_JID_3714_Energie_neutraal
 ---------------------------------------
 Structure from the checkpoint file:  "JID_3714.chk"
 Charge =  0 Multiplicity = 1

 SCF Done:  E(RB3LYP) =  -571.990264166     A.U. after   15 cycles
 Normal termination of Gaussian 16 at Thu Dec 10 00:07:24 2020.

 ----------------------------------------------------------------------
 # B3LYP/6-311++G(d,p) empiricaldispersion=gd3bj scf=xqc pop=npa geom=c
 heck
 ----------------------------------------------------------------------

 -------------------------------------
 CID_131492447_JID_3714_Energie_kation
 -------------------------------------
 Structure from the checkpoint file:  "JID_3714.chk"
 Charge =  1 Multiplicity = 2

 SCF Done:  E(UB3LYP) =  -571.640169506     A.U. after   28 cycles
 Normal termination of Gaussian 16 at Thu Dec 10 00:11:54 2020.
 Gaussian 16:  ES64L-G16RevA.03 25-Dec-2016

 ----------------------------------------------------------------------
 # B3LYP/6-311++G(d,p) empiricaldispersion=gd3bj scf=xqc pop=npa geom=c
 heck
 ----------------------------------------------------------------------

 ------------------------------------
 CID_131492447_JID_3714_Energie_anion
 ------------------------------------
 Structure from the checkpoint file:  "JID_3714.chk"
 Charge = -1 Multiplicity = 2

                         Standard orientation:
 ---------------------------------------------------------------------
 Center     Atomic      Atomic             Coordinates (Angstroms)
 Number     Number       Type             X           Y           Z
 ---------------------------------------------------------------------
      1          6           0       -2.559509   -1.854011   -0.791291
      2          6           0       -2.154412   -0.519708   -0.155102
      3          6           0       -2.712437   -0.393784    1.279212
      4          6           0       -0.652792   -0.335798   -0.111032
      5          6           0       -0.028917    0.941335   -0.136130
      6          6           0        1.363964    1.008589   -0.082634
      7          6           0        2.113020   -0.165595    0.019497
      8          6           0        1.406514   -1.378852    0.057266
      9          7           0        0.081134   -1.456405   -0.011909
     10          6           0        3.540864   -0.144292    0.083279
     11          7           0        4.702460   -0.132853    0.136141
     12          6           0       -0.741251    2.240446   -0.223090
     13          8           0       -1.942571    2.416566   -0.189686
     14          1           0       -2.201168   -2.701205   -0.201543
     15          1           0       -2.151150   -1.955243   -1.802396
     16          1           0       -3.651449   -1.908639   -0.856339
     17          1           0       -2.575320    0.303779   -0.736660
     18          1           0       -2.288152   -1.170455    1.925348
     19          1           0       -2.487387    0.586548    1.708032
     20          1           0       -3.800630   -0.514912    1.264230
     21          1           0        1.864437    1.972624   -0.116823
     22          1           0        1.947828   -2.318348    0.144012
     23          1           0       -0.051858    3.108158   -0.319851
 ---------------------------------------------------------------------

 SCF Done:  E(UB3LYP) =  -572.035598128     A.U. after   25 cycles

 The electronic state is 2-A.
 Alpha  occ. eigenvalues --  -18.94833 -14.18581 -14.17413 -10.08841 -10.08823
 Alpha  occ. eigenvalues --  -10.07267 -10.06981 -10.06790 -10.06229 -10.04601
 Alpha  occ. eigenvalues --  -10.04096 -10.03872 -10.03799  -0.88767  -0.81194
 Alpha  occ. eigenvalues --   -0.78426  -0.69305  -0.67745  -0.63480  -0.56448
 Alpha  occ. eigenvalues --   -0.54042  -0.51473  -0.46941  -0.45160  -0.39637
 Alpha  occ. eigenvalues --   -0.37332  -0.35095  -0.32403  -0.31749  -0.30394
 Alpha  occ. eigenvalues --   -0.30053  -0.28242  -0.27356  -0.27074  -0.26397
 Alpha  occ. eigenvalues --   -0.25227  -0.24786  -0.23325  -0.22227  -0.21624
 Alpha  occ. eigenvalues --   -0.21189  -0.20997  -0.16104  -0.13228  -0.13015
 Alpha  occ. eigenvalues --   -0.10284   0.01741
 Alpha virt. eigenvalues --    0.07815   0.08611   0.09855   0.10493   0.10722
 Alpha virt. eigenvalues --    0.12183   0.12532   0.12639   0.13041   0.14044
 Alpha virt. eigenvalues --    0.14271   0.14765   0.15120   0.15388   0.16113

  Beta  occ. eigenvalues --  -18.94319 -14.18528 -14.17597 -10.08812 -10.08597
  Beta  occ. eigenvalues --  -10.07255 -10.06958 -10.06357 -10.05711 -10.04628
  Beta  occ. eigenvalues --  -10.04018 -10.03865 -10.03759  -0.87848  -0.80881
  Beta  occ. eigenvalues --   -0.78337  -0.69083  -0.67482  -0.63082  -0.56392
  Beta  occ. eigenvalues --   -0.53375  -0.50952  -0.46460  -0.45048  -0.39372
  Beta  occ. eigenvalues --   -0.36986  -0.34879  -0.32247  -0.31415  -0.30247
  Beta  occ. eigenvalues --   -0.29481  -0.27722  -0.27239  -0.26638  -0.26247
  Beta  occ. eigenvalues --   -0.24690  -0.23690  -0.22618  -0.22036  -0.21206
  Beta  occ. eigenvalues --   -0.21029  -0.20713  -0.15398  -0.13055  -0.11240
  Beta  occ. eigenvalues --   -0.09896
  Beta virt. eigenvalues --    0.08222   0.08637   0.08695   0.09850   0.10505
  Beta virt. eigenvalues --    0.10715   0.12156   0.12521   0.12981   0.14032
  Beta virt. eigenvalues --    0.14059   0.14600   0.14880   0.15138   0.15407

 Mulliken charges and spin densities:
               1          2
     1  C   -0.588638   0.002929
     2  C    0.129341  -0.014522
     3  C   -0.668817  -0.003609
     4  C    0.034546   0.265355
     5  C    0.227133   0.070908
     6  C    0.049477   0.017151
     7  C    1.832724   0.019667
     8  C   -0.532697   0.399134
     9  N    0.142302  -0.111693
    10  C   -1.847178   0.001161
    11  N   -0.267227   0.028285
    12  C   -0.533879   0.186309
    13  O   -0.342437   0.170575
    14  H    0.150726   0.000185
    15  H    0.132767   0.000985
    16  H    0.118205   0.000835
    17  H    0.215304  -0.000904
    18  H    0.128958   0.001955
    19  H    0.153078   0.003812
    20  H    0.105951   0.008009
    21  H    0.160516  -0.000501
    22  H    0.161481  -0.030288
    23  H    0.038362  -0.015741
 Sum of Mulliken charges =  -1.00000   1.00000

 Dipole moment (field-independent basis, Debye):
    X=             -2.9555    Y=             -1.4484    Z=             -0.0255  Tot=              3.2914
 Quadrupole moment (field-independent basis, Debye-Ang):
   XX=           -134.4910   YY=            -97.9724   ZZ=            -83.5472
   XY=              9.7639   XZ=             -1.2641   YZ=              0.5230

 Summary of Natural Population Analysis:

                                       Natural Population
                Natural  -----------------------------------------------
    Atom  No    Charge         Core      Valence    Rydberg      Total
 -----------------------------------------------------------------------
      C    1   -0.27957      0.99966     2.27490    0.00501     3.27957
      C    2   -0.13912      0.99958     2.13123    0.00831     3.13912
      C    3   -0.27252      0.99965     2.26828    0.00459     3.27252
      C    4    0.22425      0.99950     1.76084    0.01541     2.77575
      C    5   -0.08504      0.99944     2.07676    0.00884     3.08504
      C    6   -0.03757      0.99951     2.03016    0.00789     3.03757
      C    7   -0.13905      0.99941     2.12926    0.01038     3.13905
      C    8    0.15898      0.99957     1.82898    0.01247     2.84102
      N    9   -0.27895      0.99968     2.76900    0.01026     3.77895
      C   10    0.16224      0.99964     1.82018    0.01794     2.83776
      N   11   -0.20180      0.99979     2.69106    0.01095     3.70180
      C   12    0.23508      0.99970     1.74442    0.02080     2.76492
      O   13   -0.24434      0.99988     3.23688    0.00758     4.24434
      H   14    0.10179      0.00000     0.39732    0.00089     0.39821
      H   15    0.09783      0.00000     0.40141    0.00076     0.40217
      H   16    0.08821      0.00000     0.41099    0.00080     0.41179
      H   17    0.11426      0.00000     0.38389    0.00184     0.38574
      H   18    0.09247      0.00000     0.40661    0.00092     0.40753
      H   19    0.10679      0.00000     0.39238    0.00083     0.39321
      H   20    0.08973      0.00000     0.40937    0.00090     0.41027
      H   21    0.09781      0.00000     0.40082    0.00137     0.40219
      H   22    0.07814      0.00000     0.42078    0.00109     0.42186
      H   23    0.03037      0.00000     0.46641    0.00323     0.46963
 =======================================================================
   * Total *   -0.00000     12.99503    32.85191    0.15306    46.00000

 Normal termination of Gaussian 16 at Thu Dec 10 00:15:56 2020.
