 Gaussian 16, Revision A.03,

 -----------------------------------------------------------
 # opt freq B3LYP/6-31G(d) empiricaldispersion=gd3bj scf=xqc
 -----------------------------------------------------------

 -------------------------------
 CID_151528413_JID_4288_neutraal
 -------------------------------
 Symbolic Z-matrix:
 Charge =  0 Multiplicity = 1

 SCF Done:  E(RB3LYP) =  -969.740964654     A.U. after   16 cycles
 SCF Done:  E(RB3LYP) =  -969.745559625     A.U. after   15 cycles
 SCF Done:  E(RB3LYP) =  -969.746361572     A.U. after   13 cycles
 SCF Done:  E(RB3LYP) =  -969.747243500     A.U. after   13 cycles
 SCF Done:  E(RB3LYP) =  -969.747445666     A.U. after   11 cycles
 SCF Done:  E(RB3LYP) =  -969.747504355     A.U. after   12 cycles
 SCF Done:  E(RB3LYP) =  -969.747566005     A.U. after   11 cycles
 SCF Done:  E(RB3LYP) =  -969.747614596     A.U. after   12 cycles
 SCF Done:  E(RB3LYP) =  -969.747672542     A.U. after   13 cycles
 SCF Done:  E(RB3LYP) =  -969.747655021     A.U. after   12 cycles
 SCF Done:  E(RB3LYP) =  -969.749583970     A.U. after   12 cycles
 SCF Done:  E(RB3LYP) =  -969.749583873     A.U. after    7 cycles
 SCF Done:  E(RB3LYP) =  -969.749584317     A.U. after    9 cycles
 SCF Done:  E(RB3LYP) =  -969.749584343     A.U. after    7 cycles
 SCF Done:  E(RB3LYP) =  -969.749584375     A.U. after    9 cycles
 Optimization completed on the basis of negligible forces.
    -- Stationary point found.
 Normal termination of Gaussian 16 at Thu Dec 10 09:49:17 2020.

 --------------------------------------------------------------------
 #N Geom=AllCheck Guess=TCheck SCRF=Check GenChk RB3LYP/6-31G(d) Freq
 --------------------------------------------------------------------

 Structure from the checkpoint file:  "JID_4288.chk"
 -------------------------------
 CID_151528413_JID_4288_neutraal
 -------------------------------
 Charge =  0 Multiplicity = 1

 SCF Done:  E(RB3LYP) =  -969.749584375     A.U. after    1 cycles

  Exact polarizability: 145.083  -2.142 139.542 -17.515  10.664 124.529
 Approx polarizability: 222.669 -12.327 195.121 -58.261  25.615 223.957

                      1                      2                      3
                      A                      A                      A
 Frequencies --     18.4203                41.7560                57.3766
 Red. masses --      2.7503                 7.8960                 3.8336
 Frc consts  --      0.0005                 0.0081                 0.0074
 IR Inten    --      0.3133                 0.3487                 0.2078

                      4                      5                      6
                      A                      A                      A
 Frequencies --     73.4665               101.0241               146.3282
 Red. masses --      6.4504                 2.9658                 3.5787
 Frc consts  --      0.0205                 0.0178                 0.0451
 IR Inten    --      0.3900                 1.4968                 0.4218

                      7                      8                      9
                      A                      A                      A
 Frequencies --    173.6206               200.1932               220.8567
 Red. masses --      1.7852                 2.0424                 3.5430
 Frc consts  --      0.0317                 0.0482                 0.1018
 IR Inten    --      1.4075                 1.1651                 0.9433

                     10                     11                     12
                      A                      A                      A
 Frequencies --    232.8702               243.6562               246.0776
 Red. masses --      2.1005                 1.6827                 1.7743
 Frc consts  --      0.0671                 0.0589                 0.0633
 IR Inten    --      1.6852                 0.1905                 0.6607

                     13                     14                     15
                      A                      A                      A
 Frequencies --    254.6968               308.1758               331.0329
 Red. masses --      1.5760                 2.8198                 2.5057
 Frc consts  --      0.0602                 0.1578                 0.1618
 IR Inten    --      0.2922                 0.6509                 0.9437

                     16                     17                     18
                      A                      A                      A
 Frequencies --    354.9803               362.4047               413.5250
 Red. masses --      2.9159                 3.0040                 1.8337
 Frc consts  --      0.2165                 0.2325                 0.1847
 IR Inten    --      3.2868                 3.5713                 1.4399

                     19                     20                     21
                      A                      A                      A
 Frequencies --    431.3737               452.1927               517.6999
 Red. masses --      2.3399                 2.4995                 5.7382
 Frc consts  --      0.2565                 0.3011                 0.9061
 IR Inten    --      3.5826                 3.1090                 2.1895

                     22                     23                     24
                      A                      A                      A
 Frequencies --    547.0178               561.7650               584.6057
 Red. masses --      5.8075                 8.9239                 4.5135
 Frc consts  --      1.0239                 1.6593                 0.9088
 IR Inten    --     15.8449                 2.7827                 5.0881

                     25                     26                     27
                      A                      A                      A
 Frequencies --    615.3400               675.1119               811.5951
 Red. masses --      4.0028                 5.5836                 1.4861
 Frc consts  --      0.8930                 1.4994                 0.5767
 IR Inten    --      4.6272                 8.1062                21.7056

                     28                     29                     30
                      A                      A                      A
 Frequencies --    816.3024               854.5346               867.8944
 Red. masses --      3.3846                 2.4914                 3.2901
 Frc consts  --      1.3288                 1.0719                 1.4601
 IR Inten    --     18.3893                 1.4469                19.9681

                     31                     32                     33
                      A                      A                      A
 Frequencies --    894.8442               917.8959               960.1663
 Red. masses --      3.5509                 2.5904                 2.0772
 Frc consts  --      1.6752                 1.2859                 1.1283
 IR Inten    --      2.2558                 3.0323                13.3500

                     34                     35                     36
                      A                      A                      A
 Frequencies --    971.2307              1028.2898              1045.5073
 Red. masses --      3.0620                 1.5349                 1.5039
 Frc consts  --      1.7018                 0.9562                 0.9686
 IR Inten    --     14.1215                 2.3121                 3.0618

                     37                     38                     39
                      A                      A                      A
 Frequencies --   1073.3653              1078.7825              1091.6752
 Red. masses --      1.7991                 2.1142                 1.8412
 Frc consts  --      1.2212                 1.4496                 1.2928
 IR Inten    --     33.2380                45.1501                 2.8605

                     40                     41                     42
                      A                      A                      A
 Frequencies --   1119.1400              1136.2831              1159.0520
 Red. masses --      2.3747                 1.2586                 2.4403
 Frc consts  --      1.7524                 0.9574                 1.9315
 IR Inten    --      1.5333                 6.5892                15.4177

                     43                     44                     45
                      A                      A                      A
 Frequencies --   1175.3591              1204.3663              1230.1533
 Red. masses --      1.7404                 1.6019                 1.7549
 Frc consts  --      1.4166                 1.3690                 1.5647
 IR Inten    --      1.2860                10.2820                 8.4921

                     46                     47                     48
                      A                      A                      A
 Frequencies --   1252.5330              1276.8550              1300.4714
 Red. masses --      1.4649                 1.5066                 1.7286
 Frc consts  --      1.3541                 1.4472                 1.7225
 IR Inten    --      1.4068                26.6379                24.9164

                     49                     50                     51
                      A                      A                      A
 Frequencies --   1317.4024              1353.1447              1360.2377
 Red. masses --      2.4166                 1.5243                 2.6498
 Frc consts  --      2.4711                 1.6444                 2.8886
 IR Inten    --     17.8194                16.3974                93.8183

                     52                     53                     54
                      A                      A                      A
 Frequencies --   1374.9601              1391.7115              1431.7035
 Red. masses --      1.8197                 1.5127                 1.3056
 Frc consts  --      2.0269                 1.7262                 1.5767
 IR Inten    --     35.5515                 0.9173                15.5536

                     55                     56                     57
                      A                      A                      A
 Frequencies --   1443.8746              1468.7907              1494.9472
 Red. masses --      1.2716                 1.1531                 1.1427
 Frc consts  --      1.5619                 1.4657                 1.5047
 IR Inten    --      0.5988                 4.1342                 0.2614

                     58                     59                     60
                      A                      A                      A
 Frequencies --   1506.9363              1511.8425              1516.3605
 Red. masses --      1.0453                 1.0834                 1.0791
 Frc consts  --      1.3986                 1.4590                 1.4619
 IR Inten    --      8.5897                 1.6184                 9.5656

                     61                     62                     63
                      A                      A                      A
 Frequencies --   1517.0860              1518.2939              1518.8610
 Red. masses --      1.0594                 1.0700                 1.0816
 Frc consts  --      1.4366                 1.4533                 1.4701
 IR Inten    --     14.1955                 3.7694                 6.0840

                     64                     65                     66
                      A                      A                      A
 Frequencies --   1528.8133              1536.9640              1543.5047
 Red. masses --      1.0931                 1.0466                 1.0513
 Frc consts  --      1.5052                 1.4567                 1.4756
 IR Inten    --      9.7586                 4.0705                 8.9926

                     67                     68                     69
                      A                      A                      A
 Frequencies --   1703.2330              2268.7647              2941.0790
 Red. masses --      6.4090                13.6883                 1.0606
 Frc consts  --     10.9544                41.5124                 5.4052
 IR Inten    --      3.2751               520.4548                36.1509

                     70                     71                     72
                      A                      A                      A
 Frequencies --   2949.1227              3000.4367              3022.0807
 Red. masses --      1.0616                 1.0670                 1.0547
 Frc consts  --      5.4399                 5.6597                 5.6755
 IR Inten    --    157.7639                48.1600                 5.5591

                     73                     74                     75
                      A                      A                      A
 Frequencies --   3027.9517              3051.6965              3060.1429
 Red. masses --      1.0428                 1.0602                 1.1011
 Frc consts  --      5.6330                 5.8173                 6.0754
 IR Inten    --     59.2550                22.1856                 7.5409

                     76                     77                     78
                      A                      A                      A
 Frequencies --   3066.0268              3070.1073              3079.1634
 Red. masses --      1.0927                 1.1001                 1.0716
 Frc consts  --      6.0523                 6.1093                 5.9860
 IR Inten    --     23.8539                25.2231                34.6110

                     79                     80                     81
                      A                      A                      A
 Frequencies --   3091.8396              3104.4902              3123.0026
 Red. masses --      1.0762                 1.1084                 1.1039
 Frc consts  --      6.0615                 6.2940                 6.3432
 IR Inten    --     39.1402                16.0512                36.1158

                     82                     83                     84
                      A                      A                      A
 Frequencies --   3125.3483              3161.3030              3228.7905
 Red. masses --      1.0990                 1.0983                 1.0937
 Frc consts  --      6.3249                 6.4668                 6.7180
 IR Inten    --     20.3392                 5.8064                 9.1002

 - Thermochemistry -
 -------------------
 Temperature   298.150 Kelvin.  Pressure   1.00000 Atm.
 Atom     1 has atomic number  6 and mass  12.00000

 Molecular mass:   212.10957 amu.
 Principal axes and moments of inertia in atomic units:
                           1         2         3
     Eigenvalues --  2791.262183468.033554920.12949
           X            0.98566   0.16867   0.00551
           Y           -0.16874   0.98552   0.01672
           Z           -0.00261  -0.01741   0.99985
 This molecule is an asymmetric top.
 Rotational symmetry number  1.
 Warning -- assumption of classical behavior for rotation
           may cause significant error
 Rotational temperatures (Kelvin)      0.03103     0.02497     0.01760
 Rotational constants (GHZ):           0.64657     0.52039     0.36681
 Zero-point vibrational energy     662981.7 (Joules/Mol)
                                  158.45642 (Kcal/Mol)
 Warning -- explicit consideration of  25 degrees of freedom as
           vibrations may cause significant error
 Vibrational temperatures:     26.50    60.08    82.55   105.70   145.35
          (Kelvin)            210.53   249.80   288.03   317.76   335.05
                              350.57   354.05   366.45   443.40   476.28
                              510.74   521.42   594.97   620.65   650.60
                              744.85   787.04   808.25   841.12   885.34
                              971.34  1167.70  1174.48  1229.48  1248.71
                             1287.48  1320.65  1381.47  1397.38  1479.48
                             1504.25  1544.33  1552.13  1570.68  1610.19
                             1634.86  1667.62  1691.08  1732.81  1769.92
                             1802.12  1837.11  1871.09  1895.45  1946.87
                             1957.08  1978.26  2002.36  2059.90  2077.41
                             2113.26  2150.90  2168.15  2175.20  2181.70
                             2182.75  2184.49  2185.30  2199.62  2211.35
                             2220.76  2450.57  3264.25  4231.56  4243.13
                             4316.96  4348.10  4356.55  4390.71  4402.86
                             4411.33  4417.20  4430.23  4448.47  4466.67
                             4493.30  4496.68  4548.41  4645.51

 Zero-point correction=                           0.252516 (Hartree/Particle)
 Thermal correction to Energy=                    0.267996
 Thermal correction to Enthalpy=                  0.268941
 Thermal correction to Gibbs Free Energy=         0.208569
 Sum of electronic and zero-point Energies=           -969.497068
 Sum of electronic and thermal Energies=              -969.481588
 Sum of electronic and thermal Enthalpies=            -969.480644
 Sum of electronic and thermal Free Energies=         -969.541015

                     E (Thermal)             CV                S
                      KCal/Mol        Cal/Mol-Kelvin    Cal/Mol-Kelvin
 Total                  168.170             56.542            127.062
 Electronic               0.000              0.000              0.000
 Translational            0.889              2.981             41.959
 Rotational               0.889              2.981             32.232
 Vibrational            166.393             50.581             52.870
 Vibration     1          0.593              1.986              6.798
 Vibration     2          0.594              1.980              5.174
 Vibration     3          0.596              1.975              4.545
 Vibration     4          0.599              1.967              4.058
 Vibration     5          0.604              1.948              3.434
 Vibration     6          0.617              1.907              2.719
 Vibration     7          0.627              1.875              2.396
 Vibration     8          0.638              1.840              2.131
 Vibration     9          0.648              1.809              1.952
 Vibration    10          0.654              1.791              1.857
 Vibration    11          0.659              1.773              1.776
 Vibration    12          0.661              1.769              1.759
 Vibration    13          0.665              1.755              1.698
 Vibration    14          0.698              1.658              1.372
 Vibration    15          0.713              1.614              1.255
 Vibration    16          0.731              1.565              1.144
 Vibration    17          0.736              1.550              1.112
 Vibration    18          0.777              1.441              0.914
 Vibration    19          0.792              1.402              0.854
 Vibration    20          0.811              1.356              0.789
 Vibration    21          0.873              1.211              0.615
 Vibration    22          0.902              1.146              0.550
 Vibration    23          0.917              1.114              0.520
 Vibration    24          0.942              1.065              0.477
 Vibration    25          0.975              0.999              0.424

 Optimization completed on the basis of negligible forces.
    -- Stationary point found.
 Normal termination of Gaussian 16 at Thu Dec 10 09:58:53 2020.

 ----------------------------------------------------------------------
 # B3LYP/6-311++G(d,p) empiricaldispersion=gd3bj scf=xqc pop=npa geom=c
 heck
 ----------------------------------------------------------------------

 ---------------------------------------
 CID_151528413_JID_4288_Energie_neutraal
 ---------------------------------------
 Structure from the checkpoint file:  "JID_4288.chk"
 Charge =  0 Multiplicity = 1

 SCF Done:  E(RB3LYP) =  -969.932433221     A.U. after   16 cycles
 Normal termination of Gaussian 16 at Thu Dec 10 10:03:48 2020.

 ----------------------------------------------------------------------
 # B3LYP/6-311++G(d,p) empiricaldispersion=gd3bj scf=xqc pop=npa geom=c
 heck
 ----------------------------------------------------------------------

 -------------------------------------
 CID_151528413_JID_4288_Energie_kation
 -------------------------------------
 Structure from the checkpoint file:  "JID_4288.chk"
 Charge =  1 Multiplicity = 2

 SCF Done:  E(UB3LYP) =  -969.656910423     A.U. after   24 cycles
 Normal termination of Gaussian 16 at Thu Dec 10 10:14:31 2020.
 Gaussian 16:  ES64L-G16RevA.03 25-Dec-2016

 ----------------------------------------------------------------------
 # B3LYP/6-311++G(d,p) empiricaldispersion=gd3bj scf=xqc pop=npa geom=c
 heck
 ----------------------------------------------------------------------

 ------------------------------------
 CID_151528413_JID_4288_Energie_anion
 ------------------------------------
 Structure from the checkpoint file:  "JID_4288.chk"
 Charge = -1 Multiplicity = 2

                         Standard orientation:
 ---------------------------------------------------------------------
 Center     Atomic      Atomic             Coordinates (Angstroms)
 Number     Number       Type             X           Y           Z
 ---------------------------------------------------------------------
      1          6           0       -0.568436   -3.792844   -0.560494
      2          6           0       -0.444730   -2.375396   -0.091829
      3          6           0       -0.994503   -1.872327    1.020036
      4         16           0       -0.648420   -0.163317    1.342441
      5          6           0        0.032548    0.037347   -0.394947
      6          6           0        0.422543   -1.387389   -0.836009
      7          6           0       -1.133362    0.532441   -1.275957
      8          7           0       -1.585111    1.894288   -0.938203
      9          7           0       -2.579076    1.974381   -0.207865
     10          7           0       -3.496700    2.198817    0.432283
     11          6           0        1.204905    1.036181   -0.481512
     12          7           0        2.477748    0.551797    0.046570
     13          6           0        3.608156    1.020285   -0.745142
     14          6           0        2.672181    0.865992    1.458151
     15          1           0       -1.013234   -3.845202   -1.563716
     16          1           0       -1.187220   -4.389405    0.116654
     17          1           0        0.418551   -4.271141   -0.629502
     18          1           0       -1.605195   -2.416565    1.732105
     19          1           0        0.322266   -1.486502   -1.926389
     20          1           0        1.481773   -1.549037   -0.592082
     21          1           0       -0.786423    0.583652   -2.314526
     22          1           0       -1.956651   -0.188646   -1.225025
     23          1           0        1.343402    1.234786   -1.551400
     24          1           0        0.902833    1.996733   -0.033996
     25          1           0        3.729702    2.120668   -0.729627
     26          1           0        4.530502    0.576250   -0.356064
     27          1           0        3.492733    0.703094   -1.786794
     28          1           0        2.727296    1.956022    1.645302
     29          1           0        1.852990    0.454491    2.049238
     30          1           0        3.607566    0.413149    1.803492
 ---------------------------------------------------------------------

 SCF Done:  E(UB3LYP) =  -969.923245871     A.U. after   33 cycles
 SCF Done:  E(UB3LYP) =  -969.923245871     a.u. after    1 cycles

 The electronic state is 2-A.
 Alpha  occ. eigenvalues --  -88.74448 -14.35767 -14.25752 -14.24433 -14.21243
 Alpha  occ. eigenvalues --  -10.12018 -10.11300 -10.10103 -10.09213 -10.09151
 Alpha  occ. eigenvalues --  -10.08839 -10.08273 -10.07372 -10.07219  -7.83127
 Alpha  occ. eigenvalues --   -5.79484  -5.79143  -5.78534  -1.02208  -0.86588
 Alpha  occ. eigenvalues --   -0.83127  -0.76557  -0.69355  -0.64565  -0.61927
 Alpha  occ. eigenvalues --   -0.61082  -0.60184  -0.55941  -0.50946  -0.46528
 Alpha  occ. eigenvalues --   -0.44498  -0.42637  -0.40521  -0.40001  -0.37961
 Alpha  occ. eigenvalues --   -0.37705  -0.36778  -0.35225  -0.34081  -0.33613
 Alpha  occ. eigenvalues --   -0.32844  -0.32284  -0.31277  -0.30227  -0.28907
 Alpha  occ. eigenvalues --   -0.28028  -0.27654  -0.27345  -0.26206  -0.24712
 Alpha  occ. eigenvalues --   -0.24088  -0.21792  -0.20414  -0.19079  -0.14676
 Alpha  occ. eigenvalues --   -0.12474  -0.10478   0.04245
 Alpha virt. eigenvalues --    0.06321   0.06455   0.07604   0.08432   0.08782
 Alpha virt. eigenvalues --    0.08844   0.09537   0.10273   0.10571   0.11057
 Alpha virt. eigenvalues --    0.11434   0.11659   0.11925   0.12268   0.12714

  Beta  occ. eigenvalues --  -88.74445 -14.35606 -14.25517 -14.24470 -14.21233
  Beta  occ. eigenvalues --  -10.12015 -10.11233 -10.10088 -10.09184 -10.09143
  Beta  occ. eigenvalues --  -10.08828 -10.08273 -10.07344 -10.07179  -7.83124
  Beta  occ. eigenvalues --   -5.79478  -5.79141  -5.78533  -1.01884  -0.86427
  Beta  occ. eigenvalues --   -0.83104  -0.76538  -0.69311  -0.64530  -0.61819
  Beta  occ. eigenvalues --   -0.61045  -0.60132  -0.55882  -0.50890  -0.46453
  Beta  occ. eigenvalues --   -0.44454  -0.42568  -0.40041  -0.39822  -0.37852
  Beta  occ. eigenvalues --   -0.37617  -0.36721  -0.35118  -0.33830  -0.33451
  Beta  occ. eigenvalues --   -0.32732  -0.32121  -0.31205  -0.30169  -0.28859
  Beta  occ. eigenvalues --   -0.27978  -0.27616  -0.27314  -0.26160  -0.24663
  Beta  occ. eigenvalues --   -0.24055  -0.21770  -0.20358  -0.18746  -0.14617
  Beta  occ. eigenvalues --   -0.12423  -0.10459
  Beta virt. eigenvalues --    0.06491   0.07005   0.07926   0.08453   0.08786
  Beta virt. eigenvalues --    0.09032   0.09276   0.09775   0.10621   0.11003
  Beta virt. eigenvalues --    0.11242   0.11620   0.11902   0.12105   0.12414

 Mulliken charges and spin densities:
               1          2
     1  C    2.471559  -3.033992
     2  C   -0.322034   0.624969
     3  C   -0.086262  -0.188900
     4  S    0.098629  -0.414486
     5  C    0.995835   0.933190
     6  C   -2.160805   0.926377
     7  C    0.089858  -1.146992
     8  N   -0.288418   0.035549
     9  N    0.539937   0.097896
    10  N   -0.300335   0.141184
    11  C   -1.103285  -0.102429
    12  N    0.068130   0.154347
    13  C    0.567511  -0.859234
    14  C   -0.013581  -0.281892
    15  H   -0.301749   0.470564
    16  H   -0.220140   0.355592
    17  H   -0.233126   0.390916
    18  H   -0.056149   0.291252
    19  H   -0.166284   0.353528
    20  H    0.167062   0.050223
    21  H   -0.553640   0.762002
    22  H    0.200729  -0.018897
    23  H    0.124839   0.066593
    24  H    0.113643   0.057055
    25  H   -0.128992   0.239561
    26  H   -0.124030   0.254422
    27  H   -0.411428   0.556742
    28  H    0.040347   0.062275
    29  H   -0.002507   0.074081
    30  H   -0.005311   0.148502
 Sum of Mulliken charges =  -1.00000   1.00000

 Dipole moment (field-independent basis, Debye):
    X=             -0.0560    Y=              1.3512    Z=              3.8508  Tot=              4.0813
 Quadrupole moment (field-independent basis, Debye-Ang):
   XX=           -149.1912   YY=           -147.7594   ZZ=           -132.0747
   XY=              4.7410   XZ=              5.7288   YZ=             -4.3362

 Summary of Natural Population Analysis:

                                       Natural Population
                Natural  -----------------------------------------------
    Atom  No    Charge         Core      Valence    Rydberg      Total
 -----------------------------------------------------------------------
      C    1   -0.29235      0.99962     2.28692    0.00582     3.29235
      C    2   -0.02113      0.99946     2.00993    0.01174     3.02113
      C    3   -0.17762      0.99936     2.16776    0.01050     3.17762
      S    4    0.10905      4.99953     2.87436    0.01706     7.89095
      C    5   -0.07975      0.99953     2.06238    0.01783     3.07975
      C    6   -0.21405      0.99952     2.20009    0.01444     3.21405
      C    7   -0.09766      0.99949     2.08358    0.01459     3.09766
      N    8   -0.20199      0.99970     2.68822    0.01408     3.70199
      N    9    0.13182      0.99970     2.35315    0.01533     3.36818
      N   10   -0.02860      0.99982     2.51510    0.01368     3.52860
      C   11   -0.09048      0.99952     2.07676    0.01421     3.09048
      N   12   -0.28342      0.99973     2.77100    0.01269     3.78342
      C   13   -0.17326      0.99964     2.16506    0.00856     3.17326
      C   14   -0.17805      0.99964     2.17177    0.00664     3.17805
      H   15    0.10566      0.00000     0.39273    0.00161     0.39434
      H   16    0.10239      0.00000     0.39654    0.00106     0.39761
      H   17    0.10440      0.00000     0.39412    0.00148     0.39560
      H   18    0.10482      0.00000     0.39432    0.00085     0.39518
      H   19    0.10912      0.00000     0.38882    0.00206     0.39088
      H   20    0.12112      0.00000     0.37682    0.00205     0.37888
      H   21    0.10265      0.00000     0.39491    0.00244     0.39735
      H   22    0.10097      0.00000     0.39729    0.00174     0.39903
      H   23    0.10347      0.00000     0.39461    0.00192     0.39653
      H   24    0.09727      0.00000     0.40122    0.00151     0.40273
      H   25    0.07874      0.00000     0.41996    0.00130     0.42126
      H   26    0.09458      0.00000     0.40423    0.00119     0.40542
      H   27    0.09809      0.00000     0.40050    0.00141     0.40191
      H   28    0.07661      0.00000     0.42190    0.00149     0.42339
      H   29    0.10480      0.00000     0.39365    0.00156     0.39520
      H   30    0.09279      0.00000     0.40611    0.00110     0.40721
 =======================================================================
   * Total *    0.00000     17.99424    38.80381    0.20194    57.00000

 Normal termination of Gaussian 16 at Thu Dec 10 10:29:13 2020.
