 Gaussian 16, Revision A.03,

 -----------------------------------------------------------
 # opt freq B3LYP/6-31G(d) empiricaldispersion=gd3bj scf=xqc
 -----------------------------------------------------------

 ------------------------------
 CID_26952445_JID_9846_neutraal
 ------------------------------
 Symbolic Z-matrix:
 Charge =  0 Multiplicity = 1

 SCF Done:  E(RB3LYP) =  -1991.95336650     A.U. after   15 cycles
 SCF Done:  E(RB3LYP) =  -1991.96114128     A.U. after   13 cycles
 SCF Done:  E(RB3LYP) =  -1991.96226173     A.U. after   12 cycles
 SCF Done:  E(RB3LYP) =  -1991.96252289     A.U. after   12 cycles
 SCF Done:  E(RB3LYP) =  -1991.96269453     A.U. after   11 cycles
 SCF Done:  E(RB3LYP) =  -1991.96284183     A.U. after   12 cycles
 SCF Done:  E(RB3LYP) =  -1991.96291117     A.U. after   12 cycles
 SCF Done:  E(RB3LYP) =  -1991.96295113     A.U. after   11 cycles
 SCF Done:  E(RB3LYP) =  -1991.96297226     A.U. after   11 cycles
 SCF Done:  E(RB3LYP) =  -1991.96297345     A.U. after    8 cycles
 SCF Done:  E(RB3LYP) =  -1991.96298152     A.U. after    9 cycles
 SCF Done:  E(RB3LYP) =  -1991.96298294     A.U. after   11 cycles
 SCF Done:  E(RB3LYP) =  -1991.96298347     A.U. after   10 cycles
 SCF Done:  E(RB3LYP) =  -1991.96298414     A.U. after   10 cycles
 SCF Done:  E(RB3LYP) =  -1991.96298430     A.U. after    8 cycles
 Optimization completed.
    -- Stationary point found.
 Normal termination of Gaussian 16 at Mon Dec 14 18:57:56 2020.

 --------------------------------------------------------------------
 #N Geom=AllCheck Guess=TCheck SCRF=Check GenChk RB3LYP/6-31G(d) Freq
 --------------------------------------------------------------------

 Structure from the checkpoint file:  "JID_9846.chk"
 ------------------------------
 CID_26952445_JID_9846_neutraal
 ------------------------------
 Charge =  0 Multiplicity = 1

 SCF Done:  E(RB3LYP) =  -1991.96298430     A.U. after    1 cycles

  Exact polarizability: 215.372 -13.061 174.377 -19.807  -6.229 122.784
 Approx polarizability: 290.932 -13.137 321.637 -55.754 -18.712 230.348

                      1                      2                      3
                      A                      A                      A
 Frequencies --     10.2894                13.6059                32.5692
 Red. masses --      8.7928                 6.8561                 6.1619
 Frc consts  --      0.0005                 0.0007                 0.0039
 IR Inten    --      0.5301                 0.2263                 0.4736

                      4                      5                      6
                      A                      A                      A
 Frequencies --     47.3278                68.1968                97.4242
 Red. masses --      7.3521                 6.9539                 2.8649
 Frc consts  --      0.0097                 0.0191                 0.0160
 IR Inten    --      0.5200                 0.8842                 3.3957

                      7                      8                      9
                      A                      A                      A
 Frequencies --    114.0231               119.9655               151.0231
 Red. masses --      2.0104                 3.3370                 8.6159
 Frc consts  --      0.0154                 0.0283                 0.1158
 IR Inten    --     27.5996                 8.0487                 0.2960

                     10                     11                     12
                      A                      A                      A
 Frequencies --    167.1993               231.5420               245.2720
 Red. masses --      6.4516                 5.8068                 8.5228
 Frc consts  --      0.1063                 0.1834                 0.3021
 IR Inten    --      1.1160                 1.1287                 2.1785

                     13                     14                     15
                      A                      A                      A
 Frequencies --    266.7625               282.2904               305.2784
 Red. masses --      8.1462                 5.5783                 9.5203
 Frc consts  --      0.3415                 0.2619                 0.5227
 IR Inten    --      2.0588                 1.0600                 4.1376

                     16                     17                     18
                      A                      A                      A
 Frequencies --    323.0253               346.0072               388.0440
 Red. masses --      8.3565                 4.1176                 7.1215
 Frc consts  --      0.5137                 0.2904                 0.6318
 IR Inten    --      1.4331                 2.0842                 1.0112

                     19                     20                     21
                      A                      A                      A
 Frequencies --    400.4691               433.6721               443.8206
 Red. masses --      3.6727                 4.3370                 7.6165
 Frc consts  --      0.3470                 0.4806                 0.8839
 IR Inten    --      2.9801                 8.2795                 2.7891

                     22                     23                     24
                      A                      A                      A
 Frequencies --    469.6779               481.1689               518.0221
 Red. masses --      4.2269                 3.9299                 4.9337
 Frc consts  --      0.5494                 0.5361                 0.7800
 IR Inten    --      1.5716                30.6020                27.1099

                     25                     26                     27
                      A                      A                      A
 Frequencies --    538.1048               549.5819               566.7298
 Red. masses --      7.4822                 5.2819                 4.8754
 Frc consts  --      1.2765                 0.9400                 0.9226
 IR Inten    --     49.6382               273.6410                23.3916

                     28                     29                     30
                      A                      A                      A
 Frequencies --    583.3414               615.1566               641.6984
 Red. masses --      4.2499                 4.2241                 6.0042
 Frc consts  --      0.8521                 0.9418                 1.4567
 IR Inten    --      8.5525                34.7304                59.6569

                     31                     32                     33
                      A                      A                      A
 Frequencies --    668.1689               676.7853               700.3652
 Red. masses --      7.2366                 3.2139                 3.0580
 Frc consts  --      1.9035                 0.8673                 0.8838
 IR Inten    --     37.4900               181.6607                24.1106

                     34                     35                     36
                      A                      A                      A
 Frequencies --    722.0979               731.3761               758.3923
 Red. masses --      4.3744                 1.1947                 6.6267
 Frc consts  --      1.3439                 0.3765                 2.2456
 IR Inten    --     65.3063                96.9553                 1.7231

                     37                     38                     39
                      A                      A                      A
 Frequencies --    804.8912               855.8178               858.8186
 Red. masses --      1.4289                 1.2978                 2.1572
 Frc consts  --      0.5454                 0.5600                 0.9374
 IR Inten    --     23.4046                 4.2717                16.9921

                     40                     41                     42
                      A                      A                      A
 Frequencies --    871.4886               876.3396               910.8663
 Red. masses --      2.7210                 2.8442                 1.5172
 Frc consts  --      1.2176                 1.2869                 0.7416
 IR Inten    --    103.2470               162.4791                12.2337

                     43                     44                     45
                      A                      A                      A
 Frequencies --    926.1713               932.0058               945.2943
 Red. masses --      1.3406                 4.2873                 1.4249
 Frc consts  --      0.6775                 2.1942                 0.7502
 IR Inten    --      0.3304                10.0756                 9.7661

                     46                     47                     48
                      A                      A                      A
 Frequencies --    994.2271              1020.5768              1031.0441
 Red. masses --      1.2986                 5.9995                 3.0621
 Frc consts  --      0.7563                 3.6818                 1.9179
 IR Inten    --      1.3550                 3.4135                72.3999

                     49                     50                     51
                      A                      A                      A
 Frequencies --   1093.5916              1099.4535              1108.1754
 Red. masses --      2.4115                 3.0222                 1.2930
 Frc consts  --      1.6992                 2.1524                 0.9355
 IR Inten    --     29.4492                49.0792                 5.3718

                     52                     53                     54
                      A                      A                      A
 Frequencies --   1118.4093              1123.8689              1143.6776
 Red. masses --      1.5399                 1.7267                 3.2279
 Frc consts  --      1.1349                 1.2850                 2.4876
 IR Inten    --     44.0897                10.4801                68.2662

                     55                     56                     57
                      A                      A                      A
 Frequencies --   1145.8050              1202.5675              1257.3478
 Red. masses --      3.1350                 1.1197                 2.9475
 Frc consts  --      2.4250                 0.9540                 2.7455
 IR Inten    --    228.0271                 2.4883                51.8073

                     58                     59                     60
                      A                      A                      A
 Frequencies --   1264.7405              1304.9883              1335.6089
 Red. masses --      1.4818                 2.0697                 3.8460
 Frc consts  --      1.3965                 2.0767                 4.0422
 IR Inten    --     21.8978                23.6840               148.7773

                     61                     62                     63
                      A                      A                      A
 Frequencies --   1346.9037              1361.9593              1393.3922
 Red. masses --      8.0481                 2.7599                 2.4926
 Frc consts  --      8.6023                 3.0163                 2.8513
 IR Inten    --     71.4849                94.3152                 5.7562

                     64                     65                     66
                      A                      A                      A
 Frequencies --   1396.8931              1458.6435              1489.6961
 Red. masses --      2.0862                 5.3554                 2.5760
 Frc consts  --      2.3984                 6.7133                 3.3682
 IR Inten    --     19.4818                26.4218                59.4150

                     67                     68                     69
                      A                      A                      A
 Frequencies --   1528.8696              1574.0167              1619.0606
 Red. masses --      2.3232                 4.8978                 1.0970
 Frc consts  --      3.1995                 7.1494                 1.6942
 IR Inten    --     25.4236                 7.2375                30.6666

                     70                     71                     72
                      A                      A                      A
 Frequencies --   1642.6418              1655.9524              3206.7605
 Red. masses --      5.7446                 6.1016                 1.0885
 Frc consts  --      9.1326                 9.8581                 6.5948
 IR Inten    --      1.7630                16.8178                 6.7061

                     73                     74                     75
                      A                      A                      A
 Frequencies --   3225.9026              3230.6975              3232.0548
 Red. masses --      1.0915                 1.0922                 1.0892
 Frc consts  --      6.6923                 6.7164                 6.7035
 IR Inten    --      3.7104                 2.7000                 4.0704

                     76                     77                     78
                      A                      A                      A
 Frequencies --   3236.1490              3249.1634              3269.6679
 Red. masses --      1.0946                 1.0958                 1.0975
 Frc consts  --      6.7541                 6.8157                 6.9129
 IR Inten    --      3.5304                 0.6482                 0.3851

                     79                     80                     81
                      A                      A                      A
 Frequencies --   3496.2903              3513.6780              3608.0721
 Red. masses --      1.0467                 1.0748                 1.0982
 Frc consts  --      7.5388                 7.8178                 8.4232
 IR Inten    --     42.9946                32.4248                35.9189

 - Thermochemistry -
 -------------------
 Temperature   298.150 Kelvin.  Pressure   1.00000 Atm.
 Atom     1 has atomic number  6 and mass  12.00000

 Molecular mass:   317.98027 amu.
 Principal axes and moments of inertia in atomic units:
                           1         2         3
     Eigenvalues --  2816.44310********************
           X            0.99998  -0.00688   0.00041
           Y            0.00688   0.99998   0.00006
           Z           -0.00041  -0.00006   1.00000
 This molecule is an asymmetric top.
 Rotational symmetry number  1.
 Warning -- assumption of classical behavior for rotation
           may cause significant error
 Rotational temperatures (Kelvin)      0.03075     0.00741     0.00672
 Rotational constants (GHZ):           0.64079     0.15447     0.14000
 Zero-point vibrational energy     530368.7 (Joules/Mol)
                                  126.76115 (Kcal/Mol)
 Warning -- explicit consideration of  29 degrees of freedom as
           vibrations may cause significant error
 Vibrational temperatures:     14.80    19.58    46.86    68.09    98.12
          (Kelvin)            140.17   164.05   172.60   217.29   240.56
                              333.14   352.89   383.81   406.15   439.23
                              464.76   497.83   558.31   576.19   623.96
                              638.56   675.76   692.29   745.32   774.21
                              790.73   815.40   839.30   885.07   923.26
                              961.35   973.74  1007.67  1038.94  1052.29
                             1091.16  1158.06  1231.33  1235.65  1253.88
                             1260.86  1310.53  1332.55  1340.95  1360.07
                             1430.47  1468.38  1483.44  1573.43  1581.87
                             1594.42  1609.14  1617.00  1645.50  1648.56
                             1730.23  1809.04  1819.68  1877.59  1921.64
                             1937.89  1959.56  2004.78  2009.82  2098.66
                             2143.34  2199.70  2264.66  2329.47  2363.40
                             2382.55  4613.81  4641.35  4648.25  4650.21
                             4656.10  4674.82  4704.32  5030.38  5055.40
                             5191.21

 Zero-point correction=                           0.202007 (Hartree/Particle)
 Thermal correction to Energy=                    0.220132
 Thermal correction to Enthalpy=                  0.221076
 Thermal correction to Gibbs Free Energy=         0.151714
 Sum of electronic and zero-point Energies=          -1991.760978
 Sum of electronic and thermal Energies=             -1991.742852
 Sum of electronic and thermal Enthalpies=           -1991.741908
 Sum of electronic and thermal Free Energies=        -1991.811270

                     E (Thermal)             CV                S
                      KCal/Mol        Cal/Mol-Kelvin    Cal/Mol-Kelvin
 Total                  138.135             67.531            145.985
 Electronic               0.000              0.000              0.000
 Translational            0.889              2.981             43.166
 Rotational               0.889              2.981             34.405
 Vibrational            136.358             61.570             68.414
 Vibration     1          0.593              1.987              7.954
 Vibration     2          0.593              1.986              7.399
 Vibration     3          0.594              1.983              5.666
 Vibration     4          0.595              1.979              4.926
 Vibration     5          0.598              1.969              4.205
 Vibration     6          0.603              1.951              3.505
 Vibration     7          0.607              1.938              3.199
 Vibration     8          0.609              1.933              3.101
 Vibration     9          0.618              1.902              2.659
 Vibration    10          0.624              1.883              2.467
 Vibration    11          0.653              1.793              1.867
 Vibration    12          0.660              1.771              1.764
 Vibration    13          0.672              1.734              1.617
 Vibration    14          0.681              1.706              1.520
 Vibration    15          0.696              1.664              1.388
 Vibration    16          0.708              1.629              1.295
 Vibration    17          0.724              1.583              1.184
 Vibration    18          0.756              1.496              1.008
 Vibration    19          0.766              1.469              0.961
 Vibration    20          0.794              1.397              0.847
 Vibration    21          0.803              1.375              0.815
 Vibration    22          0.827              1.317              0.738
 Vibration    23          0.837              1.292              0.707
 Vibration    24          0.873              1.210              0.615
 Vibration    25          0.893              1.166              0.569
 Vibration    26          0.905              1.141              0.545
 Vibration    27          0.923              1.103              0.511
 Vibration    28          0.940              1.067              0.479
 Vibration    29          0.975              1.000              0.424

                           ! Non-Optimized Parameters !
 Normal termination of Gaussian 16 at Mon Dec 14 19:10:44 2020.

 ----------------------------------------------------------------------
 # B3LYP/6-311++G(d,p) empiricaldispersion=gd3bj scf=xqc pop=npa geom=c
 heck
 ----------------------------------------------------------------------

 --------------------------------------
 CID_26952445_JID_9846_Energie_neutraal
 --------------------------------------
 Structure from the checkpoint file:  "JID_9846.chk"
 Charge =  0 Multiplicity = 1

 SCF Done:  E(RB3LYP) =  -1992.27479210     A.U. after   18 cycles
 Normal termination of Gaussian 16 at Mon Dec 14 19:16:10 2020.

 ----------------------------------------------------------------------
 # B3LYP/6-311++G(d,p) empiricaldispersion=gd3bj scf=xqc pop=npa geom=c
 heck
 ----------------------------------------------------------------------

 ------------------------------------
 CID_26952445_JID_9846_Energie_kation
 ------------------------------------
 Structure from the checkpoint file:  "JID_9846.chk"
 Charge =  1 Multiplicity = 2

 SCF Done:  E(UB3LYP) =  -1991.95107629     A.U. after   33 cycles
 SCF Done:  E(UB3LYP) =  -1991.95107629     a.u. after    1 cycles
 Normal termination of Gaussian 16 at Mon Dec 14 19:29:56 2020.
 Gaussian 16:  ES64L-G16RevA.03 25-Dec-2016

 ----------------------------------------------------------------------
 # B3LYP/6-311++G(d,p) empiricaldispersion=gd3bj scf=xqc pop=npa geom=c
 heck
 ----------------------------------------------------------------------

 -----------------------------------
 CID_26952445_JID_9846_Energie_anion
 -----------------------------------
 Structure from the checkpoint file:  "JID_9846.chk"
 Charge = -1 Multiplicity = 2

                         Standard orientation:
 ---------------------------------------------------------------------
 Center     Atomic      Atomic             Coordinates (Angstroms)
 Number     Number       Type             X           Y           Z
 ---------------------------------------------------------------------
      1          6           0       -0.796573   -2.123485   -0.735666
      2          6           0        0.141760   -1.131502   -1.015521
      3          6           0       -0.188869    0.217369   -0.843365
      4          6           0       -1.467241    0.574180   -0.408541
      5          6           0       -2.400908   -0.431720   -0.176225
      6          6           0       -2.081226   -1.781463   -0.316290
      7         16           0       -4.052850    0.025196    0.339168
      8          8           0       -4.604660   -1.096019    1.104036
      9          8           0       -3.993301    1.390729    0.866241
     10          7           0       -4.903081    0.091962   -1.129130
     11          7           0        0.802324    1.208137   -1.121380
     12         16           0        1.933007    1.566249    0.122860
     13          8           0        2.619910    2.759939   -0.367324
     14          8           0        1.299129    1.529340    1.442390
     15          6           0        2.998250    0.167824    0.042755
     16          6           0        3.877045   -0.134719   -0.967148
     17          6           0        4.556320   -1.360626   -0.726984
     18          6           0        4.174843   -1.948945    0.454046
     19         16           0        2.985369   -1.027206    1.302449
     20          1           0       -0.528069   -3.168233   -0.856913
     21          1           0        1.133182   -1.388463   -1.370945
     22          1           0       -1.728992    1.611605   -0.231056
     23          1           0       -2.822605   -2.539250   -0.090299
     24          1           0       -5.665344   -0.582340   -1.103276
     25          1           0       -5.256649    1.036661   -1.266837
     26          1           0        0.418480    2.105391   -1.416698
     27          1           0        4.018454    0.498592   -1.834630
     28          1           0        5.298915   -1.782597   -1.394179
     29          1           0        4.540486   -2.873252    0.881666
 ---------------------------------------------------------------------

 SCF Done:  E(UB3LYP) =  -1992.29727630     A.U. after   30 cycles

 The electronic state is 2-A.
 Alpha  occ. eigenvalues --  -88.96503 -88.94296 -88.75544 -19.02174 -19.02125
 Alpha  occ. eigenvalues --  -19.00104 -18.99799 -14.25286 -14.23077 -10.10752
 Alpha  occ. eigenvalues --  -10.08972 -10.08779 -10.07786 -10.07585 -10.07519
 Alpha  occ. eigenvalues --  -10.07127 -10.06683 -10.06116 -10.05760  -8.02681
 Alpha  occ. eigenvalues --   -8.00436  -7.84168  -5.99001  -5.98947  -5.98713
 Alpha  occ. eigenvalues --   -5.96725  -5.96684  -5.96546  -5.80477  -5.80092
 Alpha  occ. eigenvalues --   -5.79780  -1.02401  -1.00183  -0.91655  -0.89323
 Alpha  occ. eigenvalues --   -0.82369  -0.82045  -0.76871  -0.75045  -0.66314
 Alpha  occ. eigenvalues --   -0.64756  -0.62965  -0.62417  -0.57224  -0.54754
 Alpha  occ. eigenvalues --   -0.51347  -0.49159  -0.45308  -0.44958  -0.44438
 Alpha  occ. eigenvalues --   -0.42988  -0.41412  -0.41016  -0.39991  -0.38264
 Alpha  occ. eigenvalues --   -0.37575  -0.36443  -0.34796  -0.33949  -0.33395
 Alpha  occ. eigenvalues --   -0.32898  -0.28983  -0.28339  -0.28251  -0.27589
 Alpha  occ. eigenvalues --   -0.26822  -0.26397  -0.25968  -0.23844  -0.23532
 Alpha  occ. eigenvalues --   -0.23110  -0.22366  -0.22055  -0.21708  -0.20800
 Alpha  occ. eigenvalues --   -0.20470  -0.19628  -0.17954  -0.16023  -0.14482
 Alpha  occ. eigenvalues --   -0.14311  -0.12985   0.02896
 Alpha virt. eigenvalues --    0.05672   0.06216   0.07648   0.08087   0.08894
 Alpha virt. eigenvalues --    0.09422   0.09646   0.10504   0.11389   0.11731
 Alpha virt. eigenvalues --    0.12885   0.13199   0.13455   0.13773   0.13869

  Beta  occ. eigenvalues --  -88.96493 -88.94270 -88.75470 -19.02155 -19.02107
  Beta  occ. eigenvalues --  -19.00074 -18.99783 -14.25244 -14.23028 -10.10773
  Beta  occ. eigenvalues --  -10.08789 -10.08611 -10.07535 -10.07494 -10.07457
  Beta  occ. eigenvalues --  -10.07136 -10.06768 -10.05936 -10.05515  -8.02670
  Beta  occ. eigenvalues --   -8.00410  -7.84102  -5.98964  -5.98940  -5.98711
  Beta  occ. eigenvalues --   -5.96682  -5.96625  -5.96534  -5.80443  -5.80060
  Beta  occ. eigenvalues --   -5.79540  -1.02339  -1.00078  -0.91619  -0.89271
  Beta  occ. eigenvalues --   -0.82247  -0.81965  -0.76566  -0.74804  -0.65955
  Beta  occ. eigenvalues --   -0.64477  -0.62648  -0.62057  -0.56972  -0.54447
  Beta  occ. eigenvalues --   -0.51258  -0.48844  -0.45114  -0.44727  -0.44391
  Beta  occ. eigenvalues --   -0.42750  -0.41276  -0.40794  -0.39855  -0.38090
  Beta  occ. eigenvalues --   -0.37454  -0.36347  -0.34732  -0.33867  -0.33305
  Beta  occ. eigenvalues --   -0.32828  -0.28831  -0.28181  -0.27918  -0.27085
  Beta  occ. eigenvalues --   -0.26525  -0.26049  -0.25703  -0.23714  -0.23220
  Beta  occ. eigenvalues --   -0.23023  -0.22226  -0.21898  -0.21638  -0.20660
  Beta  occ. eigenvalues --   -0.20323  -0.19513  -0.17725  -0.15102  -0.13797
  Beta  occ. eigenvalues --   -0.13238  -0.11875
  Beta virt. eigenvalues --    0.05787   0.07303   0.07606   0.08141   0.08415
  Beta virt. eigenvalues --    0.08856   0.09435   0.09630   0.10474   0.11415
  Beta virt. eigenvalues --    0.11727   0.12907   0.13274   0.13465   0.13856

 Mulliken charges and spin densities:
               1          2
     1  C   -0.312871  -0.023958
     2  C    0.622103   0.117275
     3  C   -1.040407   0.102103
     4  C    0.126363   0.035105
     5  C   -0.313242   0.071437
     6  C   -0.375107   0.070348
     7  S    0.230321   0.025449
     8  O   -0.241543   0.001570
     9  O   -0.248496   0.003013
    10  N   -0.323015  -0.000889
    11  N   -0.126943   0.017907
    12  S    0.510764   0.012251
    13  O   -0.200689  -0.012523
    14  O   -0.228290   0.003994
    15  C   -0.619343  -0.007314
    16  C    0.118452   0.259235
    17  C   -0.474064  -0.040830
    18  C   -0.282690   0.167005
    19  S    0.046780   0.152729
    20  H    0.140805   0.003692
    21  H    0.210842   0.014682
    22  H    0.230666  -0.002241
    23  H    0.196550  -0.001043
    24  H    0.272764   0.015376
    25  H    0.278750   0.013327
    26  H    0.265402   0.016774
    27  H    0.195565  -0.004048
    28  H    0.121114   0.003213
    29  H    0.219458  -0.013637
 Sum of Mulliken charges =  -1.00000   1.00000

 Dipole moment (field-independent basis, Debye):
    X=             -2.7300    Y=             -2.7346    Z=             -4.3855  Tot=              5.8450
 Quadrupole moment (field-independent basis, Debye-Ang):
   XX=           -180.7046   YY=           -150.4773   ZZ=           -150.1726
   XY=            -12.0587   XZ=             11.4320   YZ=             -4.7636

 Summary of Natural Population Analysis:

                                       Natural Population
                Natural  -----------------------------------------------
    Atom  No    Charge         Core      Valence    Rydberg      Total
 -----------------------------------------------------------------------
      C    1   -0.10185      0.99958     2.09316    0.00911     3.10185
      C    2   -0.04793      0.99952     2.03928    0.00914     3.04793
      C    3    0.05972      0.99946     1.92625    0.01457     2.94028
      C    4   -0.08973      0.99946     2.08055    0.00973     3.08973
      C    5   -0.10578      0.99937     2.09107    0.01535     3.10578
      C    6   -0.08775      0.99951     2.07831    0.00992     3.08775
      S    7    1.09608      4.99927     1.80270    0.10195     6.90392
      O    8   -0.46796      0.99991     3.46238    0.00567     4.46796
      O    9   -0.46605      0.99991     3.46045    0.00570     4.46605
      N   10   -0.51545      0.99978     3.00512    0.01055     4.01545
      N   11   -0.42113      0.99971     2.90679    0.01463     3.92113
      S   12    1.11479      4.99907     1.78456    0.10157     6.88521
      O   13   -0.46526      0.99990     3.45982    0.00554     4.46526
      O   14   -0.45844      0.99991     3.45319    0.00535     4.45844
      C   15   -0.23562      0.99939     2.22016    0.01608     3.23562
      C   16   -0.07920      0.99946     2.06912    0.01062     3.07920
      C   17   -0.15823      0.99955     2.14862    0.01006     3.15823
      C   18   -0.14404      0.99956     2.13271    0.01177     3.14404
      S   19    0.26355      4.99937     2.71366    0.02342     7.73645
      H   20    0.09763      0.00000     0.40138    0.00100     0.40237
      H   21    0.10854      0.00000     0.38980    0.00166     0.39146
      H   22    0.11272      0.00000     0.38603    0.00125     0.38728
      H   23    0.10705      0.00000     0.39185    0.00109     0.39295
      H   24    0.19121      0.00000     0.30676    0.00202     0.30879
      H   25    0.19165      0.00000     0.30638    0.00198     0.30835
      H   26    0.19271      0.00000     0.30545    0.00184     0.30729
      H   27    0.10855      0.00000     0.39036    0.00109     0.39145
      H   28    0.10028      0.00000     0.39866    0.00106     0.39972
      H   29    0.09994      0.00000     0.39908    0.00098     0.40006
 =======================================================================
   * Total *   -0.00000     30.99168    50.60363    0.40469    82.00000

 Normal termination of Gaussian 16 at Mon Dec 14 19:42:21 2020.
