 Gaussian 16, Revision A.03,

 -----------------------------------------------------------
 # opt freq B3LYP/6-31G(d) empiricaldispersion=gd3bj scf=xqc
 -----------------------------------------------------------

 -------------------------------
 CID_143994146_JID_2973_neutraal
 -------------------------------
 Symbolic Z-matrix:
 Charge =  0 Multiplicity = 1

 SCF Done:  E(RB3LYP) =  -468.099041690     A.U. after   14 cycles
 SCF Done:  E(RB3LYP) =  -468.102982357     A.U. after   12 cycles
 SCF Done:  E(RB3LYP) =  -468.102654464     A.U. after   12 cycles
 SCF Done:  E(RB3LYP) =  -468.103747136     A.U. after   11 cycles
 SCF Done:  E(RB3LYP) =  -468.103876412     A.U. after   12 cycles
 SCF Done:  E(RB3LYP) =  -468.104158450     A.U. after   11 cycles
 SCF Done:  E(RB3LYP) =  -468.104217920     A.U. after   11 cycles
 SCF Done:  E(RB3LYP) =  -468.104233314     A.U. after    9 cycles
 SCF Done:  E(RB3LYP) =  -468.104238439     A.U. after    8 cycles
 SCF Done:  E(RB3LYP) =  -468.104239785     A.U. after    8 cycles
 SCF Done:  E(RB3LYP) =  -468.104240061     A.U. after    7 cycles
 SCF Done:  E(RB3LYP) =  -468.104240142     A.U. after    7 cycles
 Optimization completed.
    -- Stationary point found.
 Normal termination of Gaussian 16 at Wed Dec  9 18:24:25 2020.

 --------------------------------------------------------------------
 #N Geom=AllCheck Guess=TCheck SCRF=Check GenChk RB3LYP/6-31G(d) Freq
 --------------------------------------------------------------------

 Structure from the checkpoint file:  "JID_2973.chk"
 -------------------------------
 CID_143994146_JID_2973_neutraal
 -------------------------------
 Charge =  0 Multiplicity = 1

 SCF Done:  E(RB3LYP) =  -468.104240142     A.U. after    1 cycles

  Exact polarizability: 147.132   5.522 121.767  -6.791  -4.797 115.626
 Approx polarizability: 201.712   9.900 179.497 -13.333 -11.663 183.280

                      1                      2                      3
                      A                      A                      A
 Frequencies --     51.8066                70.5411                94.0395
 Red. masses --      3.1342                 2.8004                 2.9927
 Frc consts  --      0.0050                 0.0082                 0.0156
 IR Inten    --      0.0159                 0.1704                 0.1640

                      4                      5                      6
                      A                      A                      A
 Frequencies --    117.4429               133.8483               167.7040
 Red. masses --      2.9655                 2.5639                 1.2765
 Frc consts  --      0.0241                 0.0271                 0.0212
 IR Inten    --      0.1568                 0.0857                 0.1023

                      7                      8                      9
                      A                      A                      A
 Frequencies --    169.7031               178.4430               190.7624
 Red. masses --      1.3697                 1.1008                 1.8936
 Frc consts  --      0.0232                 0.0207                 0.0406
 IR Inten    --      0.0798                 0.5456                 0.6598

                     10                     11                     12
                      A                      A                      A
 Frequencies --    201.7341               225.8340               250.2568
 Red. masses --      2.1162                 1.3225                 2.2378
 Frc consts  --      0.0507                 0.0397                 0.0826
 IR Inten    --      0.9534                 0.6798                 0.3161

                     13                     14                     15
                      A                      A                      A
 Frequencies --    268.5822               340.4326               350.4264
 Red. masses --      2.0246                 2.7736                 2.7671
 Frc consts  --      0.0861                 0.1894                 0.2002
 IR Inten    --      1.5547                 1.6345                 0.3676

                     16                     17                     18
                      A                      A                      A
 Frequencies --    366.8377               406.4183               425.8176
 Red. masses --      3.2725                 2.5674                 2.6395
 Frc consts  --      0.2595                 0.2499                 0.2820
 IR Inten    --      4.3006                 0.6424                 0.3935

                     19                     20                     21
                      A                      A                      A
 Frequencies --    515.5890               562.0309               566.0396
 Red. masses --      2.8368                 2.9730                 2.8936
 Frc consts  --      0.4443                 0.5533                 0.5462
 IR Inten    --      9.3091                 3.3031                 5.0406

                     22                     23                     24
                      A                      A                      A
 Frequencies --    599.2953               644.3272               706.8199
 Red. masses --      2.6094                 1.7393                 1.7145
 Frc consts  --      0.5522                 0.4254                 0.5047
 IR Inten    --      1.0673                 0.7378                 1.8082

                     25                     26                     27
                      A                      A                      A
 Frequencies --    762.8360               784.5419               831.2655
 Red. masses --      1.4936                 1.7975                 1.3553
 Frc consts  --      0.5121                 0.6518                 0.5518
 IR Inten    --      0.9116                 0.9417                18.9739

                     28                     29                     30
                      A                      A                      A
 Frequencies --    845.6183               917.1615               924.0782
 Red. masses --      2.0696                 1.4355                 1.4390
 Frc consts  --      0.8719                 0.7114                 0.7240
 IR Inten    --      3.2862                14.6548                28.7493

                     31                     32                     33
                      A                      A                      A
 Frequencies --    926.7622               934.5442               960.4489
 Red. masses --      1.3637                 1.9674                 1.8681
 Frc consts  --      0.6901                 1.0124                 1.0153
 IR Inten    --     36.1102                 7.4138                 0.0479

                     34                     35                     36
                      A                      A                      A
 Frequencies --    999.4970              1041.1155              1043.9572
 Red. masses --      1.6029                 1.3990                 1.4057
 Frc consts  --      0.9435                 0.8934                 0.9026
 IR Inten    --      0.2072                 6.0872                 1.9173

                     37                     38                     39
                      A                      A                      A
 Frequencies --   1062.2234              1073.6253              1083.1021
 Red. masses --      1.6699                 1.5357                 1.4588
 Frc consts  --      1.1101                 1.0429                 1.0083
 IR Inten    --      0.9370                 7.7910                 6.1576

                     40                     41                     42
                      A                      A                      A
 Frequencies --   1084.0501              1093.0268              1106.5563
 Red. masses --      1.4391                 1.5250                 2.5264
 Frc consts  --      0.9964                 1.0735                 1.8226
 IR Inten    --      1.9948                 0.8143                 2.3765

                     43                     44                     45
                      A                      A                      A
 Frequencies --   1118.1394              1220.3264              1271.0348
 Red. masses --      2.6055                 2.3009                 2.2218
 Frc consts  --      1.9193                 2.0188                 2.1148
 IR Inten    --      7.9083                 0.6499                 4.8161

                     46                     47                     48
                      A                      A                      A
 Frequencies --   1312.0857              1382.4617              1408.2254
 Red. masses --      3.2436                 1.3546                 1.6743
 Frc consts  --      3.2900                 1.5254                 1.9563
 IR Inten    --      5.5743                 4.0625                 3.4620

                     49                     50                     51
                      A                      A                      A
 Frequencies --   1436.6160              1438.6137              1441.3948
 Red. masses --      1.2579                 1.2593                 1.2348
 Frc consts  --      1.5296                 1.5355                 1.5115
 IR Inten    --      5.4566                 3.1173                 0.5770

                     52                     53                     54
                      A                      A                      A
 Frequencies --   1444.3006              1463.5854              1468.5194
 Red. masses --      1.2719                 1.2322                 1.2382
 Frc consts  --      1.5632                 1.5551                 1.5732
 IR Inten    --      4.8282                 0.3625                 1.6415

                     55                     56                     57
                      A                      A                      A
 Frequencies --   1505.4334              1507.5080              1507.9581
 Red. masses --      1.0466                 1.0464                 1.0481
 Frc consts  --      1.3975                 1.4011                 1.4042
 IR Inten    --      1.8560                 4.0436                 7.3559

                     58                     59                     60
                      A                      A                      A
 Frequencies --   1512.0828              1518.5904              1522.9852
 Red. masses --      1.0613                 1.0543                 1.0546
 Frc consts  --      1.4297                 1.4324                 1.4412
 IR Inten    --      7.0761                 8.4117                14.9264

                     61                     62                     63
                      A                      A                      A
 Frequencies --   1525.5356              1529.2836              1678.2761
 Red. masses --      1.0544                 1.0503                 8.3528
 Frc consts  --      1.4458                 1.4472                13.8614
 IR Inten    --      4.4564                 4.5218                 0.7165

                     64                     65                     66
                      A                      A                      A
 Frequencies --   1711.5376              1723.7387              1735.2072
 Red. masses --      5.0183                 5.1006                 6.2114
 Frc consts  --      8.6613                 8.9292                11.0190
 IR Inten    --     13.9898                 0.7583                 0.7972

                     67                     68                     69
                      A                      A                      A
 Frequencies --   3029.0277              3032.3534              3044.9843
 Red. masses --      1.0378                 1.0412                 1.0379
 Frc consts  --      5.6102                 5.6410                 5.6697
 IR Inten    --     43.6674                21.0974                23.9233

                     70                     71                     72
                      A                      A                      A
 Frequencies --   3049.4091              3074.9195              3082.8934
 Red. masses --      1.0360                 1.1000                 1.0964
 Frc consts  --      5.6762                 6.1281                 6.1396
 IR Inten    --     22.5290                25.2224                30.2347

                     73                     74                     75
                      A                      A                      A
 Frequencies --   3097.6239              3101.1555              3121.8662
 Red. masses --      1.0980                 1.0990                 1.0996
 Frc consts  --      6.2072                 6.2271                 6.3140
 IR Inten    --     18.6644                21.2463                18.2625

                     76                     77                     78
                      A                      A                      A
 Frequencies --   3127.6836              3130.6991              3131.7011
 Red. masses --      1.0957                 1.0896                 1.0992
 Frc consts  --      6.3153                 6.2922                 6.3518
 IR Inten    --      0.9278                 6.5419                45.5762

                     79                     80                     81
                      A                      A                      A
 Frequencies --   3132.8333              3147.3540              3161.1934
 Red. masses --      1.1022                 1.0908                 1.0599
 Frc consts  --      6.3734                 6.3660                 6.2404
 IR Inten    --     20.3935                48.4212                14.1029

                     82                     83                     84
                      A                      A                      A
 Frequencies --   3163.2458              3244.0301              3247.6928
 Red. masses --      1.0606                 1.1157                 1.1151
 Frc consts  --      6.2530                 6.9178                 6.9299
 IR Inten    --      8.8176                17.7771                13.1103

 - Thermochemistry -
 -------------------
 Temperature   298.150 Kelvin.  Pressure   1.00000 Atm.
 Atom     1 has atomic number  6 and mass  12.00000

 Molecular mass:   162.14085 amu.
 Principal axes and moments of inertia in atomic units:
                           1         2         3
     Eigenvalues --  1508.461822681.079113127.55880
           X            0.99998  -0.00569  -0.00142
           Y            0.00574   0.99926   0.03806
           Z            0.00120  -0.03807   0.99927
 This molecule is an asymmetric top.
 Rotational symmetry number  1.
 Warning -- assumption of classical behavior for rotation
           may cause significant error
 Rotational temperatures (Kelvin)      0.05742     0.03231     0.02769
 Rotational constants (GHZ):           1.19641     0.67314     0.57704
 Zero-point vibrational energy     697322.7 (Joules/Mol)
                                  166.66412 (Kcal/Mol)
 Warning -- explicit consideration of  22 degrees of freedom as
           vibrations may cause significant error
 Vibrational temperatures:     74.54   101.49   135.30   168.97   192.58
          (Kelvin)            241.29   244.16   256.74   274.46   290.25
                              324.92   360.06   386.43   489.81   504.19
                              527.80   584.75   612.66   741.82   808.64
                              814.40   862.25   927.04  1016.96  1097.55
                             1128.78  1196.01  1216.66  1319.59  1329.54
                             1333.40  1344.60  1381.87  1438.05  1497.93
                             1502.02  1528.30  1544.71  1558.34  1559.71
                             1572.62  1592.09  1608.75  1755.78  1828.74
                             1887.80  1989.05  2026.12  2066.97  2069.84
                             2073.85  2078.03  2105.77  2112.87  2165.98
                             2168.97  2169.62  2175.55  2184.91  2191.24
                             2194.91  2200.30  2414.67  2462.52  2480.08
                             2496.58  4358.10  4362.88  4381.05  4387.42
                             4424.12  4435.60  4456.79  4461.87  4491.67
                             4500.04  4504.38  4505.82  4507.45  4528.34
                             4548.25  4551.21  4667.44  4672.71

 Zero-point correction=                           0.265596 (Hartree/Particle)
 Thermal correction to Energy=                    0.280204
 Thermal correction to Enthalpy=                  0.281148
 Thermal correction to Gibbs Free Energy=         0.225120
 Sum of electronic and zero-point Energies=           -467.838644
 Sum of electronic and thermal Energies=              -467.824037
 Sum of electronic and thermal Enthalpies=            -467.823092
 Sum of electronic and thermal Free Energies=         -467.879120

                     E (Thermal)             CV                S
                      KCal/Mol        Cal/Mol-Kelvin    Cal/Mol-Kelvin
 Total                  175.830             54.023            117.919
 Electronic               0.000              0.000              0.000
 Translational            0.889              2.981             41.159
 Rotational               0.889              2.981             30.915
 Vibrational            174.053             48.061             45.846
 Vibration     1          0.596              1.977              4.747
 Vibration     2          0.598              1.968              4.138
 Vibration     3          0.603              1.953              3.574
 Vibration     4          0.608              1.935              3.142
 Vibration     5          0.613              1.920              2.890
 Vibration     6          0.624              1.882              2.461
 Vibration     7          0.625              1.880              2.439
 Vibration     8          0.629              1.869              2.345
 Vibration     9          0.634              1.853              2.220
 Vibration    10          0.639              1.837              2.117
 Vibration    11          0.650              1.802              1.912
 Vibration    12          0.663              1.762              1.729
 Vibration    13          0.673              1.731              1.605
 Vibration    14          0.720              1.595              1.210
 Vibration    15          0.727              1.574              1.164
 Vibration    16          0.740              1.540              1.093
 Vibration    17          0.771              1.456              0.939
 Vibration    18          0.788              1.414              0.872
 Vibration    19          0.871              1.215              0.620
 Vibration    20          0.918              1.113              0.520
 Vibration    21          0.922              1.105              0.512
 Vibration    22          0.957              1.033              0.451

 Optimization completed.
    -- Stationary point found.
 Normal termination of Gaussian 16 at Wed Dec  9 18:32:32 2020.

 ----------------------------------------------------------------------
 # B3LYP/6-311++G(d,p) empiricaldispersion=gd3bj scf=xqc pop=npa geom=c
 heck
 ----------------------------------------------------------------------

 ---------------------------------------
 CID_143994146_JID_2973_Energie_neutraal
 ---------------------------------------
 Structure from the checkpoint file:  "JID_2973.chk"
 Charge =  0 Multiplicity = 1

 SCF Done:  E(RB3LYP) =  -468.232589138     A.U. after   15 cycles
 Normal termination of Gaussian 16 at Wed Dec  9 18:36:12 2020.

 ----------------------------------------------------------------------
 # B3LYP/6-311++G(d,p) empiricaldispersion=gd3bj scf=xqc pop=npa geom=c
 heck
 ----------------------------------------------------------------------

 -------------------------------------
 CID_143994146_JID_2973_Energie_kation
 -------------------------------------
 Structure from the checkpoint file:  "JID_2973.chk"
 Charge =  1 Multiplicity = 2

 SCF Done:  E(UB3LYP) =  -467.952874223     A.U. after   23 cycles
 Normal termination of Gaussian 16 at Wed Dec  9 18:43:36 2020.
 Gaussian 16:  ES64L-G16RevA.03 25-Dec-2016

 ----------------------------------------------------------------------
 # B3LYP/6-311++G(d,p) empiricaldispersion=gd3bj scf=xqc pop=npa geom=c
 heck
 ----------------------------------------------------------------------

 ------------------------------------
 CID_143994146_JID_2973_Energie_anion
 ------------------------------------
 Structure from the checkpoint file:  "JID_2973.chk"
 Charge = -1 Multiplicity = 2

                         Standard orientation:
 ---------------------------------------------------------------------
 Center     Atomic      Atomic             Coordinates (Angstroms)
 Number     Number       Type             X           Y           Z
 ---------------------------------------------------------------------
      1          6           0        1.995338    1.351028    1.384948
      2          6           0        2.567404    0.290316    0.496664
      3          6           0        1.913129   -0.749201   -0.048862
      4          6           0        2.645971   -1.771977   -0.888711
      5          6           0        0.484403   -1.051786    0.160536
      6          6           0       -0.599528   -0.263566   -0.014900
      7          6           0       -1.954095   -0.803781    0.300156
      8          6           0       -2.219826   -1.367392    1.485550
      9          6           0       -2.991493   -0.704355   -0.793221
     10          6           0       -0.559631    1.121884   -0.565478
     11          6           0        0.056591    1.398778   -1.719973
     12          6           0       -1.290885    2.180671    0.226353
     13          1           0        1.048380    1.033655    1.830470
     14          1           0        1.801299    2.275440    0.823205
     15          1           0        2.693740    1.602681    2.192312
     16          1           0        3.631490    0.380433    0.276476
     17          1           0        2.525349   -2.782731   -0.475234
     18          1           0        2.246845   -1.804243   -1.911291
     19          1           0        3.716850   -1.553514   -0.946080
     20          1           0        0.281269   -2.085079    0.446859
     21          1           0       -3.195879   -1.791617    1.707786
     22          1           0       -1.469282   -1.415235    2.268777
     23          1           0       -3.130020    0.330928   -1.125389
     24          1           0       -2.671321   -1.271048   -1.676928
     25          1           0       -3.958647   -1.094409   -0.462940
     26          1           0        0.074954    2.407544   -2.124992
     27          1           0        0.567736    0.628992   -2.289112
     28          1           0       -2.342901    1.912264    0.377860
     29          1           0       -0.853435    2.290528    1.225846
     30          1           0       -1.250698    3.151695   -0.275999
 ---------------------------------------------------------------------

 SCF Done:  E(UB3LYP) =  -468.218765834     A.U. after   33 cycles
 SCF Done:  E(UB3LYP) =  -468.218765834     a.u. after    1 cycles

 The electronic state is 2-A.
 Alpha  occ. eigenvalues --  -10.05583 -10.05292 -10.04846 -10.04652 -10.04567
 Alpha  occ. eigenvalues --  -10.04477 -10.04217 -10.03828 -10.03391 -10.03135
 Alpha  occ. eigenvalues --  -10.02890 -10.02771  -0.71617  -0.68108  -0.65998
 Alpha  occ. eigenvalues --   -0.61622  -0.59586  -0.56641  -0.55993  -0.52283
 Alpha  occ. eigenvalues --   -0.49101  -0.42864  -0.40252  -0.36569  -0.34841
 Alpha  occ. eigenvalues --   -0.34020  -0.32321  -0.31232  -0.30630  -0.30389
 Alpha  occ. eigenvalues --   -0.30152  -0.29066  -0.28147  -0.27805  -0.26515
 Alpha  occ. eigenvalues --   -0.25559  -0.24739  -0.24181  -0.23318  -0.22154
 Alpha  occ. eigenvalues --   -0.19498  -0.16256  -0.13528  -0.13029  -0.08988
 Alpha  occ. eigenvalues --    0.05365
 Alpha virt. eigenvalues --    0.07640   0.07973   0.08471   0.09062   0.09837
 Alpha virt. eigenvalues --    0.10078   0.10463   0.10921   0.11396   0.12212
 Alpha virt. eigenvalues --    0.12615   0.13116   0.13476   0.14208   0.14345

  Beta  occ. eigenvalues --  -10.05560 -10.05262 -10.04822 -10.04641 -10.04564
  Beta  occ. eigenvalues --  -10.04484 -10.04182 -10.03675 -10.03271 -10.03051
  Beta  occ. eigenvalues --  -10.02791 -10.02626  -0.71356  -0.67944  -0.65880
  Beta  occ. eigenvalues --   -0.61470  -0.59451  -0.56523  -0.55822  -0.52163
  Beta  occ. eigenvalues --   -0.48748  -0.42666  -0.40101  -0.36428  -0.34760
  Beta  occ. eigenvalues --   -0.33906  -0.32223  -0.31092  -0.30544  -0.30330
  Beta  occ. eigenvalues --   -0.30034  -0.28972  -0.28080  -0.27749  -0.26435
  Beta  occ. eigenvalues --   -0.25478  -0.24677  -0.24118  -0.23229  -0.22017
  Beta  occ. eigenvalues --   -0.19361  -0.15552  -0.13066  -0.12594  -0.08267
  Beta virt. eigenvalues --    0.07559   0.08262   0.08488   0.09059   0.09497
  Beta virt. eigenvalues --    0.10092   0.10317   0.10703   0.11072   0.11609
  Beta virt. eigenvalues --    0.12330   0.12880   0.13319   0.13615   0.14210

 Mulliken charges and spin densities:
               1          2
     1  C   -0.614266  -0.117747
     2  C    0.113471  -0.473543
     3  C    1.408319  -0.442449
     4  C    1.180991  -1.803883
     5  C   -3.460081   2.543081
     6  C    1.349375  -0.380465
     7  C    0.037707   0.658849
     8  C   -0.440171  -0.335107
     9  C    0.679857  -1.412812
    10  C   -0.500491   1.088408
    11  C   -0.274865  -0.499860
    12  C   -0.252380  -0.494240
    13  H    0.151560  -0.024789
    14  H    0.163388  -0.001359
    15  H    0.098588   0.031513
    16  H    0.052903   0.050079
    17  H   -0.194998   0.345005
    18  H   -0.063274   0.205876
    19  H   -0.118432   0.244906
    20  H   -0.240057   0.429187
    21  H   -0.265688   0.359780
    22  H    0.195266  -0.052674
    23  H   -0.027421   0.175746
    24  H   -0.228464   0.401727
    25  H    0.046725   0.077994
    26  H   -0.012564   0.093412
    27  H    0.185554  -0.028738
    28  H    0.036625   0.095533
    29  H    0.079783   0.043718
    30  H   -0.086960   0.222853
 Sum of Mulliken charges =  -1.00000   1.00000

 Dipole moment (field-independent basis, Debye):
    X=              0.8520    Y=              4.1187    Z=              1.8034  Tot=              4.5763
 Quadrupole moment (field-independent basis, Debye-Ang):
   XX=           -120.2224   YY=           -116.4433   ZZ=           -100.4707
   XY=              4.3216   XZ=             -0.3637   YZ=              0.2255

 Summary of Natural Population Analysis:

                                       Natural Population
                Natural  -----------------------------------------------
    Atom  No    Charge         Core      Valence    Rydberg      Total
 -----------------------------------------------------------------------
      C    1   -0.30284      0.99965     2.29758    0.00561     3.30284
      C    2   -0.07069      0.99947     2.06254    0.00868     3.07069
      C    3   -0.02749      0.99948     2.01729    0.01072     3.02749
      C    4   -0.28662      0.99963     2.28145    0.00554     3.28662
      C    5   -0.07081      0.99945     2.06038    0.01098     3.07081
      C    6   -0.01614      0.99940     2.00229    0.01445     3.01614
      C    7   -0.00299      0.99950     1.99189    0.01160     3.00299
      C    8   -0.18802      0.99949     2.18170    0.00683     3.18802
      C    9   -0.29651      0.99961     2.29109    0.00581     3.29651
      C   10   -0.01221      0.99950     2.00126    0.01146     3.01221
      C   11   -0.16837      0.99949     2.16239    0.00650     3.16837
      C   12   -0.29644      0.99962     2.29069    0.00613     3.29644
      H   13    0.10515      0.00000     0.39372    0.00114     0.39485
      H   14    0.10168      0.00000     0.39704    0.00128     0.39832
      H   15    0.09275      0.00000     0.40629    0.00096     0.40725
      H   16    0.08296      0.00000     0.41610    0.00094     0.41704
      H   17    0.10034      0.00000     0.39816    0.00150     0.39966
      H   18    0.09872      0.00000     0.40018    0.00111     0.40128
      H   19    0.09578      0.00000     0.40322    0.00100     0.40422
      H   20    0.09883      0.00000     0.39965    0.00153     0.40117
      H   21    0.08688      0.00000     0.41215    0.00097     0.41312
      H   22    0.09306      0.00000     0.40598    0.00096     0.40694
      H   23    0.10242      0.00000     0.39651    0.00107     0.39758
      H   24    0.10537      0.00000     0.39307    0.00155     0.39463
      H   25    0.09615      0.00000     0.40302    0.00083     0.40385
      H   26    0.08438      0.00000     0.41472    0.00090     0.41562
      H   27    0.09524      0.00000     0.40374    0.00102     0.40476
      H   28    0.10280      0.00000     0.39628    0.00093     0.39720
      H   29    0.09966      0.00000     0.39944    0.00091     0.40034
      H   30    0.09698      0.00000     0.40206    0.00096     0.40302
 =======================================================================
   * Total *   -0.00000     11.99427    32.88188    0.12386    45.00000

 Normal termination of Gaussian 16 at Wed Dec  9 18:54:14 2020.
