 Gaussian 16, Revision A.03,

 -----------------------------------------------------------
 # opt freq B3LYP/6-31G(d) empiricaldispersion=gd3bj scf=xqc
 -----------------------------------------------------------

 -------------------------------
 CID_126997708_JID_3762_neutraal
 -------------------------------
 Symbolic Z-matrix:
 Charge =  0 Multiplicity = 1

 SCF Done:  E(RB3LYP) =  -584.022599168     A.U. after   15 cycles
 SCF Done:  E(RB3LYP) =  -584.025319125     A.U. after   12 cycles
 SCF Done:  E(RB3LYP) =  -584.025805441     A.U. after   12 cycles
 SCF Done:  E(RB3LYP) =  -584.026006431     A.U. after   11 cycles
 SCF Done:  E(RB3LYP) =  -584.026095479     A.U. after   11 cycles
 SCF Done:  E(RB3LYP) =  -584.026151016     A.U. after   10 cycles
 SCF Done:  E(RB3LYP) =  -584.026175174     A.U. after   10 cycles
 SCF Done:  E(RB3LYP) =  -584.026188946     A.U. after   10 cycles
 SCF Done:  E(RB3LYP) =  -584.026201077     A.U. after   10 cycles
 SCF Done:  E(RB3LYP) =  -584.026217611     A.U. after   11 cycles
 SCF Done:  E(RB3LYP) =  -584.026221111     A.U. after    9 cycles
 SCF Done:  E(RB3LYP) =  -584.026221332     A.U. after    7 cycles
 SCF Done:  E(RB3LYP) =  -584.026221400     A.U. after    7 cycles
 Optimization completed.
    -- Stationary point found.
 Normal termination of Gaussian 16 at Sun Dec 13 20:05:11 2020.

 --------------------------------------------------------------------
 #N Geom=AllCheck Guess=TCheck SCRF=Check GenChk RB3LYP/6-31G(d) Freq
 --------------------------------------------------------------------

 Structure from the checkpoint file:  "JID_3762.chk"
 -------------------------------
 CID_126997708_JID_3762_neutraal
 -------------------------------
 Charge =  0 Multiplicity = 1

 SCF Done:  E(RB3LYP) =  -584.026221400     A.U. after    1 cycles

  Exact polarizability: 123.228  -7.401 112.313   8.347   3.464  75.564
 Approx polarizability: 177.304 -18.151 198.604  10.958   8.315 130.520

                      1                      2                      3
                      A                      A                      A
 Frequencies --     15.3735                52.6556                60.9920
 Red. masses --      4.4324                 4.2742                 6.4163
 Frc consts  --      0.0006                 0.0070                 0.0141
 IR Inten    --      3.7392                 6.8708                 2.8058

                      4                      5                      6
                      A                      A                      A
 Frequencies --    113.1183               177.5618               217.4887
 Red. masses --      1.0368                 5.5718                 3.9701
 Frc consts  --      0.0078                 0.1035                 0.1106
 IR Inten    --      0.1418                 2.5333                 1.0868

                      7                      8                      9
                      A                      A                      A
 Frequencies --    257.3584               319.1340               341.4446
 Red. masses --      4.2221                 4.2301                 2.9789
 Frc consts  --      0.1648                 0.2538                 0.2046
 IR Inten    --      0.0216                 0.7415                 3.5164

                     10                     11                     12
                      A                      A                      A
 Frequencies --    416.7428               419.3797               489.7521
 Red. masses --      3.3024                 2.6518                 3.5704
 Frc consts  --      0.3379                 0.2748                 0.5046
 IR Inten    --      4.1840                 0.7417                 0.8204

                     13                     14                     15
                      A                      A                      A
 Frequencies --    607.1742               641.5231               676.3791
 Red. masses --      5.0726                 6.5572                 4.8835
 Frc consts  --      1.1018                 1.5900                 1.3163
 IR Inten    --     10.9362                 1.6109                 9.3062

                     16                     17                     18
                      A                      A                      A
 Frequencies --    703.4533               730.7099               740.7751
 Red. masses --      5.3010                11.5524                 4.2449
 Frc consts  --      1.5455                 3.6342                 1.3724
 IR Inten    --     10.2036                 0.5729                18.5695

                     19                     20                     21
                      A                      A                      A
 Frequencies --    769.5706               825.3343               852.8119
 Red. masses --      1.4552                 3.3652                 3.9866
 Frc consts  --      0.5078                 1.3506                 1.7083
 IR Inten    --     28.4290                 1.0680                 3.8153

                     22                     23                     24
                      A                      A                      A
 Frequencies --    918.1364               948.7767               982.2717
 Red. masses --      1.3309                 2.1673                 1.4343
 Frc consts  --      0.6610                 1.1495                 0.8153
 IR Inten    --      1.6909                 3.0231                 0.0728

                     25                     26                     27
                      A                      A                      A
 Frequencies --   1011.4234              1014.6247              1017.2795
 Red. masses --      3.4514                 1.4462                 5.4566
 Frc consts  --      2.0802                 0.8772                 3.3270
 IR Inten    --      5.6882                 1.5231                 7.0529

                     28                     29                     30
                      A                      A                      A
 Frequencies --   1035.4515              1079.5428              1085.0253
 Red. masses --      2.0989                 2.3150                 1.5266
 Frc consts  --      1.3259                 1.5896                 1.0589
 IR Inten    --      4.0103                 3.0958                 3.1178

                     31                     32                     33
                      A                      A                      A
 Frequencies --   1101.3596              1124.1176              1144.8580
 Red. masses --      2.8276                 4.2322                 1.8413
 Frc consts  --      2.0208                 3.1510                 1.4220
 IR Inten    --     12.3545                 7.1653                10.7683

                     34                     35                     36
                      A                      A                      A
 Frequencies --   1189.7029              1259.9143              1272.9456
 Red. masses --      1.1312                 2.7463                 5.2011
 Frc consts  --      0.9433                 2.5685                 4.9656
 IR Inten    --      2.1306                 1.6803                 3.6318

                     37                     38                     39
                      A                      A                      A
 Frequencies --   1283.6447              1317.8273              1342.5124
 Red. masses --      2.6157                 3.2594                 2.6692
 Frc consts  --      2.5394                 3.3350                 2.8344
 IR Inten    --     17.0687                 1.2937                 3.5060

                     40                     41                     42
                      A                      A                      A
 Frequencies --   1367.4748              1389.3071              1444.2359
 Red. masses --      2.0215                 1.4627                 1.2519
 Frc consts  --      2.2272                 1.6634                 1.5384
 IR Inten    --      3.8865                14.9285                 4.8712

                     43                     44                     45
                      A                      A                      A
 Frequencies --   1463.8770              1483.5114              1497.8340
 Red. masses --      2.9094                 2.1814                 1.0927
 Frc consts  --      3.6734                 2.8286                 1.4443
 IR Inten    --     62.5952                23.8692                13.1644

                     46                     47                     48
                      A                      A                      A
 Frequencies --   1511.6451              1527.6962              1534.4000
 Red. masses --      1.0520                 2.1632                 1.3889
 Frc consts  --      1.4164                 2.9745                 1.9267
 IR Inten    --      4.6040                12.0357                 7.6161

                     49                     50                     51
                      A                      A                      A
 Frequencies --   1578.5537              1635.1158              1651.2206
 Red. masses --      7.3169                 5.9478                 5.2988
 Frc consts  --     10.7423                 9.3692                 8.5121
 IR Inten    --     21.6035                15.6995                32.7998

                     52                     53                     54
                      A                      A                      A
 Frequencies --   3060.1297              3107.2121              3121.3672
 Red. masses --      1.0410                 1.0587                 1.0973
 Frc consts  --      5.7438                 6.0226                 6.2991
 IR Inten    --      9.3115                 9.4264                 3.2887

                     55                     56                     57
                      A                      A                      A
 Frequencies --   3163.3827              3170.7744              3181.9560
 Red. masses --      1.1083                 1.1017                 1.0893
 Frc consts  --      6.5342                 6.5257                 6.4980
 IR Inten    --      1.7612                 2.1426                17.9762

                     58                     59                     60
                      A                      A                      A
 Frequencies --   3201.2133              3214.8999              3222.9507
 Red. masses --      1.0883                 1.0930                 1.0983
 Frc consts  --      6.5709                 6.6556                 6.7219
 IR Inten    --      6.2203                 9.4278                11.4929

 - Thermochemistry -
 -------------------
 Temperature   298.150 Kelvin.  Pressure   1.00000 Atm.
 Atom     1 has atomic number  6 and mass  12.00000

 Molecular mass:   175.08580 amu.
 Principal axes and moments of inertia in atomic units:
                           1         2         3
     Eigenvalues --  1073.199273325.033613772.02720
           X            0.99970   0.02143   0.01162
           Y           -0.02132   0.99973  -0.00901
           Z           -0.01181   0.00876   0.99989
 This molecule is an asymmetric top.
 Rotational symmetry number  1.
 Warning -- assumption of classical behavior for rotation
           may cause significant error
 Rotational temperatures (Kelvin)      0.08071     0.02605     0.02296
 Rotational constants (GHZ):           1.68165     0.54277     0.47845
 Zero-point vibrational energy     455100.8 (Joules/Mol)
                                  108.77169 (Kcal/Mol)
 Warning -- explicit consideration of  13 degrees of freedom as
           vibrations may cause significant error
 Vibrational temperatures:     22.12    75.76    87.75   162.75   255.47
          (Kelvin)            312.92   370.28   459.16   491.26   599.60
                              603.39   704.64   873.59   923.01   973.16
                             1012.11  1051.33  1065.81  1107.24  1187.47
                             1227.01  1320.99  1365.08  1413.27  1455.21
                             1459.82  1463.64  1489.78  1553.22  1561.11
                             1584.61  1617.35  1647.20  1711.72  1812.74
                             1831.48  1846.88  1896.06  1931.58  1967.49
                             1998.90  2077.93  2106.19  2134.44  2155.05
                             2174.92  2198.01  2207.66  2271.19  2352.57
                             2375.74  4402.84  4470.59  4490.95  4551.40
                             4562.04  4578.13  4605.83  4625.52  4637.11

 Zero-point correction=                           0.173339 (Hartree/Particle)
 Thermal correction to Energy=                    0.184101
 Thermal correction to Enthalpy=                  0.185046
 Thermal correction to Gibbs Free Energy=         0.134304
 Sum of electronic and zero-point Energies=           -583.852883
 Sum of electronic and thermal Energies=              -583.842120
 Sum of electronic and thermal Enthalpies=            -583.841176
 Sum of electronic and thermal Free Energies=         -583.891918

                     E (Thermal)             CV                S
                      KCal/Mol        Cal/Mol-Kelvin    Cal/Mol-Kelvin
 Total                  115.525             39.687            106.796
 Electronic               0.000              0.000              0.000
 Translational            0.889              2.981             41.388
 Rotational               0.889              2.981             30.977
 Vibrational            113.748             33.725             34.431
 Vibration     1          0.593              1.986              7.157
 Vibration     2          0.596              1.977              4.715
 Vibration     3          0.597              1.973              4.425
 Vibration     4          0.607              1.939              3.215
 Vibration     5          0.628              1.870              2.354
 Vibration     6          0.646              1.814              1.980
 Vibration     7          0.667              1.750              1.680
 Vibration     8          0.705              1.637              1.315
 Vibration     9          0.721              1.593              1.205
 Vibration    10          0.780              1.434              0.903
 Vibration    11          0.782              1.428              0.894
 Vibration    12          0.846              1.273              0.684
 Vibration    13          0.966              1.017              0.437

                           ! Non-Optimized Parameters !
 Normal termination of Gaussian 16 at Sun Dec 13 20:10:39 2020.

 ----------------------------------------------------------------------
 # B3LYP/6-311++G(d,p) empiricaldispersion=gd3bj scf=xqc pop=npa geom=c
 heck
 ----------------------------------------------------------------------

 ---------------------------------------
 CID_126997708_JID_3762_Energie_neutraal
 ---------------------------------------
 Structure from the checkpoint file:  "JID_3762.chk"
 Charge =  0 Multiplicity = 1

 SCF Done:  E(RB3LYP) =  -584.176572084     A.U. after   15 cycles
 Normal termination of Gaussian 16 at Sun Dec 13 20:12:56 2020.

 ----------------------------------------------------------------------
 # B3LYP/6-311++G(d,p) empiricaldispersion=gd3bj scf=xqc pop=npa geom=c
 heck
 ----------------------------------------------------------------------

 -------------------------------------
 CID_126997708_JID_3762_Energie_kation
 -------------------------------------
 Structure from the checkpoint file:  "JID_3762.chk"
 Charge =  1 Multiplicity = 2

 SCF Done:  E(UB3LYP) =  -583.825075091     A.U. after   33 cycles
 SCF Done:  E(UB3LYP) =  -583.826008498     a.u. after   11 cycles
 Normal termination of Gaussian 16 at Sun Dec 13 21:26:52 2020.
 Gaussian 16:  ES64L-G16RevA.03 25-Dec-2016

 ----------------------------------------------------------------------
 # B3LYP/6-311++G(d,p) empiricaldispersion=gd3bj scf=xqc pop=npa geom=c
 heck
 ----------------------------------------------------------------------

 ------------------------------------
 CID_126997708_JID_3762_Energie_anion
 ------------------------------------
 Structure from the checkpoint file:  "JID_3762.chk"
 Charge = -1 Multiplicity = 2

                         Standard orientation:
 ---------------------------------------------------------------------
 Center     Atomic      Atomic             Coordinates (Angstroms)
 Number     Number       Type             X           Y           Z
 ---------------------------------------------------------------------
      1          6           0        1.615003    2.134075   -0.390070
      2          6           0        1.972835    0.692447   -0.288465
      3          7           0        2.896739    0.047645   -0.981526
      4          7           0        2.866449   -1.243356   -0.549201
      5          7           0        1.971123   -1.406367    0.369454
      6          7           0        1.399468   -0.190745    0.561123
      7          6           0        0.251370   -0.029691    1.444847
      8          6           0       -1.049898   -0.084623    0.670438
      9          6           0       -1.475100   -1.278583    0.079731
     10          6           0       -2.661621   -1.273393   -0.647692
     11          6           0       -3.375987   -0.080084   -0.758217
     12          6           0       -2.863907    1.058516   -0.138670
     13          7           0       -1.722129    1.069333    0.562714
     14          1           0        0.532099    2.268888   -0.474316
     15          1           0        2.107154    2.559119   -1.266453
     16          1           0        1.950624    2.685119    0.496754
     17          1           0        0.319324   -0.833331    2.181260
     18          1           0        0.325747    0.933163    1.953406
     19          1           0       -0.875764   -2.177955    0.182138
     20          1           0       -3.022240   -2.182349   -1.120091
     21          1           0       -4.306274   -0.029443   -1.314873
     22          1           0       -3.388379    2.009236   -0.207188
 ---------------------------------------------------------------------

 SCF Done:  E(UB3LYP) =  -584.173040022     A.U. after   33 cycles
 SCF Done:  E(UB3LYP) =  -584.173040022     a.u. after    1 cycles

 The electronic state is 2-A.
 Alpha  occ. eigenvalues --  -14.28709 -14.25528 -14.24336 -14.21546 -14.16120
 Alpha  occ. eigenvalues --  -10.13416 -10.10259 -10.08104 -10.07302 -10.06645
 Alpha  occ. eigenvalues --  -10.04882 -10.04466 -10.03793  -1.01302  -0.83224
 Alpha  occ. eigenvalues --   -0.80509  -0.77412  -0.66811  -0.66377  -0.63434
 Alpha  occ. eigenvalues --   -0.59712  -0.53695  -0.50366  -0.49641  -0.47234
 Alpha  occ. eigenvalues --   -0.40818  -0.39841  -0.36958  -0.35780  -0.34053
 Alpha  occ. eigenvalues --   -0.33607  -0.31841  -0.31471  -0.29735  -0.29569
 Alpha  occ. eigenvalues --   -0.26666  -0.26429  -0.25190  -0.23860  -0.18861
 Alpha  occ. eigenvalues --   -0.18072  -0.17469  -0.16924  -0.16177  -0.13371
 Alpha  occ. eigenvalues --   -0.12759   0.05242
 Alpha virt. eigenvalues --    0.07783   0.07985   0.08908   0.09344   0.09804
 Alpha virt. eigenvalues --    0.10631   0.10763   0.11257   0.12432   0.13376
 Alpha virt. eigenvalues --    0.13608   0.14048   0.14359   0.15973   0.17081

  Beta  occ. eigenvalues --  -14.28657 -14.25429 -14.24262 -14.21571 -14.15745
  Beta  occ. eigenvalues --  -10.13370 -10.10270 -10.08099 -10.07362 -10.06359
  Beta  occ. eigenvalues --  -10.04966 -10.04225 -10.03610  -1.01199  -0.83066
  Beta  occ. eigenvalues --   -0.79986  -0.77310  -0.66341  -0.66107  -0.63350
  Beta  occ. eigenvalues --   -0.59527  -0.53609  -0.50186  -0.49307  -0.46921
  Beta  occ. eigenvalues --   -0.40659  -0.39625  -0.36788  -0.35580  -0.33944
  Beta  occ. eigenvalues --   -0.33397  -0.31749  -0.31384  -0.29632  -0.29409
  Beta  occ. eigenvalues --   -0.26248  -0.25819  -0.24801  -0.23710  -0.18639
  Beta  occ. eigenvalues --   -0.17992  -0.17109  -0.16849  -0.14591  -0.12383
  Beta  occ. eigenvalues --   -0.12320
  Beta virt. eigenvalues --    0.07690   0.08324   0.09129   0.09587   0.10105
  Beta virt. eigenvalues --    0.10418   0.10833   0.11491   0.11682   0.12637
  Beta virt. eigenvalues --    0.13362   0.13693   0.14171   0.14270   0.15916

 Mulliken charges and spin densities:
               1          2
     1  C   -0.199317  -0.412988
     2  C   -0.176549   0.210417
     3  N   -0.116804   0.003636
     4  N   -0.054886   0.014885
     5  N   -0.127494   0.086802
     6  N    0.088921   0.065342
     7  C    1.018984  -1.908737
     8  C   -0.898285   1.145052
     9  C    0.025380   0.211804
    10  C   -0.581484   0.091895
    11  C    0.667140  -0.471054
    12  C   -0.310047   0.006052
    13  N   -0.074639   0.224412
    14  H    0.135594   0.049722
    15  H    0.111123   0.046858
    16  H    0.040400   0.120160
    17  H   -0.165162   0.376129
    18  H   -0.066317   0.251174
    19  H    0.120882   0.053853
    20  H   -0.076308   0.199388
    21  H   -0.199431   0.322407
    22  H   -0.161702   0.312789
 Sum of Mulliken charges =  -1.00000   1.00000

 Dipole moment (field-independent basis, Debye):
    X=              0.4356    Y=              1.8109    Z=              0.6288  Tot=              1.9658
 Quadrupole moment (field-independent basis, Debye-Ang):
   XX=           -131.4509   YY=            -97.3481   ZZ=            -98.1345
   XY=              9.2861   XZ=              1.8913   YZ=             -1.0556

 Summary of Natural Population Analysis:

                                       Natural Population
                Natural  -----------------------------------------------
    Atom  No    Charge         Core      Valence    Rydberg      Total
 -----------------------------------------------------------------------
      C    1   -0.31274      0.99963     2.30874    0.00437     3.31274
      C    2    0.19565      0.99961     1.78956    0.01517     2.80435
      N    3   -0.18265      0.99969     2.66910    0.01386     3.68265
      N    4   -0.04588      0.99981     2.52613    0.01994     3.54588
      N    5   -0.03478      0.99977     2.51785    0.01716     3.53478
      N    6   -0.11000      0.99960     2.59634    0.01407     3.61000
      C    7   -0.10046      0.99957     2.08781    0.01307     3.10046
      C    8    0.12855      0.99953     1.85720    0.01473     2.87145
      C    9   -0.13502      0.99951     2.12764    0.00788     3.13502
      C   10   -0.04671      0.99957     2.03676    0.01038     3.04671
      C   11   -0.10000      0.99956     2.09088    0.00955     3.10000
      C   12    0.01128      0.99959     1.97459    0.01454     2.98872
      N   13   -0.20449      0.99968     2.69262    0.01219     3.70449
      H   14    0.12331      0.00000     0.37529    0.00140     0.37669
      H   15    0.11066      0.00000     0.38804    0.00129     0.38934
      H   16    0.10676      0.00000     0.39199    0.00125     0.39324
      H   17    0.11220      0.00000     0.38583    0.00198     0.38780
      H   18    0.10954      0.00000     0.38816    0.00230     0.39046
      H   19    0.10349      0.00000     0.39524    0.00127     0.39651
      H   20    0.09268      0.00000     0.40649    0.00083     0.40732
      H   21    0.09526      0.00000     0.40376    0.00098     0.40474
      H   22    0.08336      0.00000     0.41550    0.00114     0.41664
 =======================================================================
   * Total *    0.00000     12.99512    32.82553    0.17935    46.00000

 Normal termination of Gaussian 16 at Sun Dec 13 21:33:56 2020.
