 Gaussian 16, Revision A.03,

 -----------------------------------------------------------
 # opt freq B3LYP/6-31G(d) empiricaldispersion=gd3bj scf=xqc
 -----------------------------------------------------------

 ------------------------------
 CID_58136558_JID_1532_neutraal
 ------------------------------
 Symbolic Z-matrix:
 Charge =  0 Multiplicity = 1

 SCF Done:  E(RB3LYP) =  -533.935564147     A.U. after   15 cycles
 SCF Done:  E(RB3LYP) =  -533.938843665     A.U. after   12 cycles
 SCF Done:  E(RB3LYP) =  -533.939446718     A.U. after   13 cycles
 SCF Done:  E(RB3LYP) =  -533.939697415     A.U. after   13 cycles
 SCF Done:  E(RB3LYP) =  -533.939769033     A.U. after   12 cycles
 SCF Done:  E(RB3LYP) =  -533.939794114     A.U. after   11 cycles
 SCF Done:  E(RB3LYP) =  -533.939809956     A.U. after   10 cycles
 SCF Done:  E(RB3LYP) =  -533.939812249     A.U. after    9 cycles
 SCF Done:  E(RB3LYP) =  -533.939816013     A.U. after   10 cycles
 SCF Done:  E(RB3LYP) =  -533.939831149     A.U. after   11 cycles
 SCF Done:  E(RB3LYP) =  -533.940431378     A.U. after   11 cycles
 SCF Done:  E(RB3LYP) =  -533.940438273     A.U. after    9 cycles
 SCF Done:  E(RB3LYP) =  -533.940438803     A.U. after    8 cycles
 SCF Done:  E(RB3LYP) =  -533.940439045     A.U. after    8 cycles
 SCF Done:  E(RB3LYP) =  -533.940439184     A.U. after    8 cycles
 Optimization completed.
    -- Stationary point found.
 Normal termination of Gaussian 16 at Tue Dec  8 20:23:59 2020.

 --------------------------------------------------------------------
 #N Geom=AllCheck Guess=TCheck SCRF=Check GenChk RB3LYP/6-31G(d) Freq
 --------------------------------------------------------------------

 Structure from the checkpoint file:  "JID_1532.chk"
 ------------------------------
 CID_58136558_JID_1532_neutraal
 ------------------------------
 Charge =  0 Multiplicity = 1

 SCF Done:  E(RB3LYP) =  -533.940439184     A.U. after    1 cycles

  Exact polarizability: 121.858  -0.574  83.113   7.490  -0.212  68.654
 Approx polarizability: 160.639  -0.777 134.031  16.006   2.234 100.087

                      1                      2                      3
                      A                      A                      A
 Frequencies --     40.9651                53.6682                74.5584
 Red. masses --      2.9177                 5.3397                 3.3077
 Frc consts  --      0.0029                 0.0091                 0.0108
 IR Inten    --      0.0819                 0.4028                 0.3601

                      4                      5                      6
                      A                      A                      A
 Frequencies --    114.4552               152.2902               223.7201
 Red. masses --      3.5124                 4.7782                 1.0610
 Frc consts  --      0.0271                 0.0653                 0.0313
 IR Inten    --      3.8308                 2.0888                 0.0874

                      7                      8                      9
                      A                      A                      A
 Frequencies --    248.0100               294.4836               315.0527
 Red. masses --      1.1141                 3.4402                 3.6642
 Frc consts  --      0.0404                 0.1758                 0.2143
 IR Inten    --      0.0242                 0.6308                 0.6471

                     10                     11                     12
                      A                      A                      A
 Frequencies --    330.4486               413.2502               428.1088
 Red. masses --      2.6336                 2.5888                 2.2844
 Frc consts  --      0.1694                 0.2605                 0.2467
 IR Inten    --      0.9210                 1.2158                 8.3855

                     13                     14                     15
                      A                      A                      A
 Frequencies --    440.1364               493.9315               546.6369
 Red. masses --      4.0402                 2.9885                 3.2861
 Frc consts  --      0.4611                 0.4296                 0.5785
 IR Inten    --     20.9284                 4.0121                28.5580

                     16                     17                     18
                      A                      A                      A
 Frequencies --    570.4276               610.7648               680.1358
 Red. masses --      2.8641                 2.1185                 5.0926
 Frc consts  --      0.5491                 0.4656                 1.3880
 IR Inten    --     23.9470                71.5863                22.1611

                     19                     20                     21
                      A                      A                      A
 Frequencies --    798.9835               822.7053               834.1182
 Red. masses --      4.5451                 5.4058                 2.7472
 Frc consts  --      1.7095                 2.1557                 1.1261
 IR Inten    --      8.2347                 9.5764                 0.6966

                     22                     23                     24
                      A                      A                      A
 Frequencies --    898.4952               945.1565               948.4503
 Red. masses --      1.7315                 1.4908                 1.8820
 Frc consts  --      0.8236                 0.7847                 0.9975
 IR Inten    --      1.5652                 2.6493                 5.4242

                     25                     26                     27
                      A                      A                      A
 Frequencies --    966.3049               981.6897              1031.7225
 Red. masses --      2.0455                 1.5082                 2.2549
 Frc consts  --      1.1253                 0.8564                 1.4142
 IR Inten    --      0.5034                 0.0717                 5.7416

                     28                     29                     30
                      A                      A                      A
 Frequencies --   1065.4660              1131.0747              1150.3212
 Red. masses --      2.7753                 3.2570                 2.3241
 Frc consts  --      1.8562                 2.4550                 1.8120
 IR Inten    --     30.4503                63.1262                 7.4903

                     31                     32                     33
                      A                      A                      A
 Frequencies --   1178.5354              1206.1717              1254.3438
 Red. masses --      2.6271                 1.7521                 1.3519
 Frc consts  --      2.1499                 1.5019                 1.2533
 IR Inten    --     36.4006                 5.2664                 6.1176

                     34                     35                     36
                      A                      A                      A
 Frequencies --   1270.0753              1285.6031              1335.8686
 Red. masses --      1.3696                 1.7089                 1.4703
 Frc consts  --      1.3017                 1.6641                 1.5459
 IR Inten    --      3.9225                18.4525                 6.8066

                     37                     38                     39
                      A                      A                      A
 Frequencies --   1386.3697              1391.8137              1400.9455
 Red. masses --      1.7661                 1.4285                 2.3006
 Frc consts  --      2.0000                 1.6303                 2.6603
 IR Inten    --     58.6539                 9.0602               101.4550

                     40                     41                     42
                      A                      A                      A
 Frequencies --   1407.7604              1433.3364              1451.8772
 Red. masses --      1.8961                 1.2858                 1.2403
 Frc consts  --      2.2139                 1.5564                 1.5405
 IR Inten    --     30.3936                 5.6767                 2.4962

                     43                     44                     45
                      A                      A                      A
 Frequencies --   1459.5965              1496.0802              1515.1989
 Red. masses --      1.5502                 1.1091                 1.0794
 Frc consts  --      1.9459                 1.4626                 1.4601
 IR Inten    --     25.7869                 4.4393                 2.5472

                     46                     47                     48
                      A                      A                      A
 Frequencies --   1516.9128              1524.2380              1535.1965
 Red. masses --      1.0607                 1.0528                 1.0501
 Frc consts  --      1.4381                 1.4412                 1.4581
 IR Inten    --      1.6248                 2.6640                 5.0416

                     49                     50                     51
                      A                      A                      A
 Frequencies --   1537.3894              1738.1584              1815.2779
 Red. masses --      1.0506                 8.5301                 9.8683
 Frc consts  --      1.4630                15.1839                19.1592
 IR Inten    --      7.5298                77.0181               435.2699

                     52                     53                     54
                      A                      A                      A
 Frequencies --   3039.8036              3040.3722              3042.2264
 Red. masses --      1.0420                 1.0704                 1.0688
 Frc consts  --      5.6728                 5.8300                 5.8280
 IR Inten    --     19.1277                28.0292                13.6821

                     55                     56                     57
                      A                      A                      A
 Frequencies --   3046.0445              3049.0429              3104.5382
 Red. masses --      1.0544                 1.0552                 1.1015
 Frc consts  --      5.7640                 5.7795                 6.2550
 IR Inten    --     28.1424                14.3881                15.4120

                     58                     59                     60
                      A                      A                      A
 Frequencies --   3110.4504              3115.2976              3119.3028
 Red. masses --      1.1007                 1.1024                 1.1015
 Frc consts  --      6.2745                 6.3036                 6.3145
 IR Inten    --     19.4212                25.9975                49.3533

                     61                     62                     63
                      A                      A                      A
 Frequencies --   3120.0413              3158.5492              3627.0134
 Red. masses --      1.0983                 1.0951                 1.0784
 Frc consts  --      6.2995                 6.4367                 8.3585
 IR Inten    --     43.6841                 7.3297                44.4615

 - Thermochemistry -
 -------------------
 Temperature   298.150 Kelvin.  Pressure   1.00000 Atm.
 Atom     1 has atomic number  6 and mass  12.00000

 Molecular mass:   156.08988 amu.
 Principal axes and moments of inertia in atomic units:
                           1         2         3
     Eigenvalues --   626.542083241.785773342.77796
           X            0.99999  -0.00061  -0.00414
           Y            0.00056   0.99993  -0.01218
           Z            0.00415   0.01218   0.99992
 This molecule is an asymmetric top.
 Rotational symmetry number  1.
 Warning -- assumption of classical behavior for rotation
           may cause significant error
 Rotational temperatures (Kelvin)      0.13824     0.02672     0.02591
 Rotational constants (GHZ):           2.88048     0.55671     0.53989
 Zero-point vibrational energy     510320.7 (Joules/Mol)
                                  121.96958 (Kcal/Mol)
 Warning -- explicit consideration of  17 degrees of freedom as
           vibrations may cause significant error
 Vibrational temperatures:     58.94    77.22   107.27   164.68   219.11
          (Kelvin)            321.88   356.83   423.70   453.29   475.44
                              594.57   615.95   633.26   710.66   786.49
                              820.72   878.75   978.56  1149.56  1183.69
                             1200.11  1292.73  1359.87  1364.61  1390.30
                             1412.43  1484.42  1532.97  1627.36  1655.06
                             1695.65  1735.41  1804.72  1827.36  1849.70
                             1922.02  1994.68  2002.51  2015.65  2025.45
                             2062.25  2088.93  2100.03  2152.53  2180.03
                             2182.50  2193.04  2208.81  2211.96  2500.82
                             2611.78  4373.60  4374.42  4377.09  4382.58
                             4386.89  4466.74  4475.24  4482.22  4487.98
                             4489.04  4544.45  5218.46

 Zero-point correction=                           0.194371 (Hartree/Particle)
 Thermal correction to Energy=                    0.205677
 Thermal correction to Enthalpy=                  0.206621
 Thermal correction to Gibbs Free Energy=         0.156392
 Sum of electronic and zero-point Energies=           -533.746068
 Sum of electronic and thermal Energies=              -533.734762
 Sum of electronic and thermal Enthalpies=            -533.733818
 Sum of electronic and thermal Free Energies=         -533.784048

                     E (Thermal)             CV                S
                      KCal/Mol        Cal/Mol-Kelvin    Cal/Mol-Kelvin
 Total                  129.064             41.273            105.717
 Electronic               0.000              0.000              0.000
 Translational            0.889              2.981             41.045
 Rotational               0.889              2.981             30.297
 Vibrational            127.287             35.311             34.375
 Vibration     1          0.594              1.981              5.212
 Vibration     2          0.596              1.976              4.677
 Vibration     3          0.599              1.966              4.029
 Vibration     4          0.607              1.937              3.192
 Vibration     5          0.619              1.900              2.643
 Vibration     6          0.649              1.805              1.929
 Vibration     7          0.662              1.766              1.745
 Vibration     8          0.689              1.684              1.448
 Vibration     9          0.702              1.645              1.336
 Vibration    10          0.713              1.615              1.258
 Vibration    11          0.777              1.441              0.915
 Vibration    12          0.790              1.409              0.865
 Vibration    13          0.800              1.383              0.826
 Vibration    14          0.850              1.263              0.673
 Vibration    15          0.902              1.147              0.551
 Vibration    16          0.927              1.095              0.503
 Vibration    17          0.970              1.009              0.432

 Optimization completed.
    -- Stationary point found.
 Normal termination of Gaussian 16 at Tue Dec  8 20:28:56 2020.

 ----------------------------------------------------------------------
 # B3LYP/6-311++G(d,p) empiricaldispersion=gd3bj scf=xqc pop=npa geom=c
 heck
 ----------------------------------------------------------------------

 --------------------------------------
 CID_58136558_JID_1532_Energie_neutraal
 --------------------------------------
 Structure from the checkpoint file:  "JID_1532.chk"
 Charge =  0 Multiplicity = 1

 SCF Done:  E(RB3LYP) =  -534.097722707     A.U. after   14 cycles
 Normal termination of Gaussian 16 at Tue Dec  8 20:32:10 2020.

 ----------------------------------------------------------------------
 # B3LYP/6-311++G(d,p) empiricaldispersion=gd3bj scf=xqc pop=npa geom=c
 heck
 ----------------------------------------------------------------------

 ------------------------------------
 CID_58136558_JID_1532_Energie_kation
 ------------------------------------
 Structure from the checkpoint file:  "JID_1532.chk"
 Charge =  1 Multiplicity = 2

 SCF Done:  E(UB3LYP) =  -533.774049163     A.U. after   24 cycles
 Normal termination of Gaussian 16 at Tue Dec  8 20:38:44 2020.
 Gaussian 16:  ES64L-G16RevA.03 25-Dec-2016

 ----------------------------------------------------------------------
 # B3LYP/6-311++G(d,p) empiricaldispersion=gd3bj scf=xqc pop=npa geom=c
 heck
 ----------------------------------------------------------------------

 -----------------------------------
 CID_58136558_JID_1532_Energie_anion
 -----------------------------------
 Structure from the checkpoint file:  "JID_1532.chk"
 Charge = -1 Multiplicity = 2

                         Standard orientation:
 ---------------------------------------------------------------------
 Center     Atomic      Atomic             Coordinates (Angstroms)
 Number     Number       Type             X           Y           Z
 ---------------------------------------------------------------------
      1          6           0       -2.204637    0.155470    1.577259
      2          6           0       -2.383913   -0.337119    0.137029
      3          6           0       -3.849349   -0.248006   -0.300829
      4          6           0       -1.491414    0.455037   -0.843336
      5          6           0       -0.031369    0.330395   -0.545628
      6          7           0        0.669563    1.345450   -0.200521
      7          7           0        2.028214    1.108539   -0.013350
      8          6           0        2.616389   -0.109703    0.146129
      9          8           0        3.798703   -0.274782    0.399764
     10          6           0        1.637709   -1.267092    0.026577
     11          8           0        0.443346   -0.937419   -0.698812
     12          1           0       -2.492384    1.210518    1.665822
     13          1           0       -1.164291    0.070789    1.909464
     14          1           0       -2.828255   -0.422853    2.267915
     15          1           0       -2.070665   -1.388411    0.087451
     16          1           0       -4.201431    0.791129   -0.276772
     17          1           0       -3.986483   -0.625162   -1.320927
     18          1           0       -4.493655   -0.833091    0.364779
     19          1           0       -1.665308    0.087687   -1.863616
     20          1           0       -1.748508    1.518430   -0.821362
     21          1           0        2.579578    1.937091    0.164726
     22          1           0        2.118530   -2.087867   -0.506651
     23          1           0        1.371552   -1.612474    1.035448
 ---------------------------------------------------------------------

 SCF Done:  E(UB3LYP) =  -534.083626970     A.U. after   33 cycles
 SCF Done:  E(UB3LYP) =  -534.083626970     a.u. after    1 cycles

 The electronic state is 2-A.
 Alpha  occ. eigenvalues --  -19.07662 -19.01096 -14.28277 -14.24740 -10.19322
 Alpha  occ. eigenvalues --  -10.17387 -10.14766 -10.07855 -10.07494 -10.05431
 Alpha  occ. eigenvalues --  -10.05094  -1.00767  -0.95900  -0.90258  -0.76442
 Alpha  occ. eigenvalues --   -0.70679  -0.65496  -0.61580  -0.58100  -0.55748
 Alpha  occ. eigenvalues --   -0.48582  -0.47357  -0.45153  -0.41302  -0.38114
 Alpha  occ. eigenvalues --   -0.36625  -0.35664  -0.35034  -0.33960  -0.32696
 Alpha  occ. eigenvalues --   -0.30296  -0.29567  -0.28698  -0.28087  -0.26765
 Alpha  occ. eigenvalues --   -0.24199  -0.23299  -0.23046  -0.22688  -0.21636
 Alpha  occ. eigenvalues --   -0.16929  -0.14116   0.04641
 Alpha virt. eigenvalues --    0.06909   0.07201   0.07799   0.08386   0.09418
 Alpha virt. eigenvalues --    0.09848   0.10227   0.11091   0.11649   0.12922
 Alpha virt. eigenvalues --    0.13171   0.13480   0.13931   0.14187   0.15507

  Beta  occ. eigenvalues --  -19.07652 -19.01092 -14.28253 -14.24715 -10.19324
  Beta  occ. eigenvalues --  -10.17384 -10.14719 -10.07837 -10.07479 -10.05390
  Beta  occ. eigenvalues --  -10.05051  -1.00746  -0.95889  -0.90228  -0.76402
  Beta  occ. eigenvalues --   -0.70638  -0.65422  -0.61532  -0.58015  -0.55710
  Beta  occ. eigenvalues --   -0.48529  -0.47279  -0.45075  -0.41259  -0.38072
  Beta  occ. eigenvalues --   -0.36594  -0.35605  -0.34971  -0.33918  -0.32663
  Beta  occ. eigenvalues --   -0.30253  -0.29524  -0.28661  -0.28049  -0.26724
  Beta  occ. eigenvalues --   -0.24158  -0.23246  -0.23005  -0.22632  -0.21608
  Beta  occ. eigenvalues --   -0.16909  -0.14061
  Beta virt. eigenvalues --    0.07018   0.07165   0.07941   0.08643   0.09208
  Beta virt. eigenvalues --    0.10024   0.10446   0.10824   0.11594   0.12078
  Beta virt. eigenvalues --    0.13215   0.13561   0.13735   0.14179   0.14307

 Mulliken charges and spin densities:
               1          2
     1  C    1.390541  -2.027252
     2  C   -2.784222   3.355278
     3  C    1.193570  -1.851886
     4  C    1.833065  -2.667030
     5  C   -0.635923   0.490295
     6  N    0.201099  -0.112737
     7  N   -0.309884   0.138682
     8  C   -0.066214   0.172119
     9  O   -0.388962   0.037187
    10  C    1.204834  -1.299546
    11  O   -0.071252   0.059551
    12  H   -0.134731   0.267492
    13  H    0.048815   0.101800
    14  H   -0.498970   0.647827
    15  H   -0.086247   0.271775
    16  H   -0.070333   0.198086
    17  H   -0.416932   0.551471
    18  H   -0.384957   0.531084
    19  H   -0.161291   0.345577
    20  H   -0.016406   0.209031
    21  H   -0.045456   0.365283
    22  H   -0.269134   0.476904
    23  H   -0.531009   0.739009
 Sum of Mulliken charges =  -1.00000   1.00000

 Dipole moment (field-independent basis, Debye):
    X=              3.0460    Y=              2.3386    Z=             -1.6990  Tot=              4.1992
 Quadrupole moment (field-independent basis, Debye-Ang):
   XX=           -143.3838   YY=            -99.3902   ZZ=           -102.0785
   XY=             -2.6299   XZ=             -0.5917   YZ=              1.7712

 Summary of Natural Population Analysis:

                                       Natural Population
                Natural  -----------------------------------------------
    Atom  No    Charge         Core      Valence    Rydberg      Total
 -----------------------------------------------------------------------
      C    1   -0.28570      0.99965     2.27914    0.00691     3.28570
      C    2   -0.11239      0.99961     2.10230    0.01048     3.11239
      C    3   -0.28071      0.99965     2.27572    0.00534     3.28071
      C    4   -0.21190      0.99956     2.20281    0.00953     3.21190
      C    5    0.28982      0.99956     1.69146    0.01916     2.71018
      N    6   -0.17489      0.99962     2.66212    0.01315     3.67489
      N    7   -0.22337      0.99965     2.71115    0.01257     3.72337
      C    8    0.32071      0.99968     1.65868    0.02093     2.67929
      O    9   -0.31441      0.99988     3.30805    0.00649     4.31441
      C   10   -0.04875      0.99953     2.03720    0.01201     3.04875
      O   11   -0.27816      0.99986     3.26775    0.01055     4.27816
      H   12    0.09581      0.00000     0.40299    0.00120     0.40419
      H   13    0.10099      0.00000     0.39742    0.00159     0.39901
      H   14    0.10225      0.00000     0.39634    0.00140     0.39775
      H   15    0.09838      0.00000     0.39870    0.00292     0.40162
      H   16    0.09482      0.00000     0.40384    0.00134     0.40518
      H   17    0.09982      0.00000     0.39840    0.00178     0.40018
      H   18    0.10173      0.00000     0.39675    0.00152     0.39827
      H   19    0.11117      0.00000     0.38705    0.00178     0.38883
      H   20    0.10947      0.00000     0.38881    0.00171     0.39053
      H   21    0.19792      0.00000     0.29882    0.00326     0.30208
      H   22    0.10640      0.00000     0.39196    0.00163     0.39360
      H   23    0.10098      0.00000     0.39651    0.00251     0.39902
 =======================================================================
   * Total *    0.00000     10.99625    30.85399    0.14976    42.00000

 Normal termination of Gaussian 16 at Tue Dec  8 20:47:20 2020.
