 Gaussian 16, Revision A.03,

 -----------------------------------------------------------
 # opt freq B3LYP/6-31G(d) empiricaldispersion=gd3bj scf=xqc
 -----------------------------------------------------------

 ------------------------------
 CID_82286538_JID_6616_neutraal
 ------------------------------
 Symbolic Z-matrix:
 Charge =  0 Multiplicity = 1

 SCF Done:  E(RB3LYP) =  -712.056788315     A.U. after   13 cycles
 SCF Done:  E(RB3LYP) =  -712.062022257     A.U. after   12 cycles
 SCF Done:  E(RB3LYP) =  -712.062979745     A.U. after   11 cycles
 SCF Done:  E(RB3LYP) =  -712.064013178     A.U. after   12 cycles
 SCF Done:  E(RB3LYP) =  -712.064866358     A.U. after   14 cycles
 SCF Done:  E(RB3LYP) =  -712.065659816     A.U. after   11 cycles
 SCF Done:  E(RB3LYP) =  -712.065578558     A.U. after   11 cycles
 SCF Done:  E(RB3LYP) =  -712.065600037     A.U. after   13 cycles
 SCF Done:  E(RB3LYP) =  -712.066071626     A.U. after   11 cycles
 SCF Done:  E(RB3LYP) =  -712.066093140     A.U. after   10 cycles
 SCF Done:  E(RB3LYP) =  -712.066060618     A.U. after   10 cycles
 SCF Done:  E(RB3LYP) =  -712.066206410     A.U. after   11 cycles
 SCF Done:  E(RB3LYP) =  -712.066176455     A.U. after   11 cycles
 SCF Done:  E(RB3LYP) =  -712.066225103     A.U. after   10 cycles
 SCF Done:  E(RB3LYP) =  -712.066224561     A.U. after    8 cycles
 SCF Done:  E(RB3LYP) =  -712.066225770     A.U. after    9 cycles
 Optimization completed.
    -- Stationary point found.
 Normal termination of Gaussian 16 at Thu Dec 10 23:59:05 2020.

 --------------------------------------------------------------------
 #N Geom=AllCheck Guess=TCheck SCRF=Check GenChk RB3LYP/6-31G(d) Freq
 --------------------------------------------------------------------

 Structure from the checkpoint file:  "JID_6616.chk"
 ------------------------------
 CID_82286538_JID_6616_neutraal
 ------------------------------
 Charge =  0 Multiplicity = 1

 SCF Done:  E(RB3LYP) =  -712.066225770     A.U. after    1 cycles

  Exact polarizability: 179.991   6.363 150.458  12.150   1.840 102.758
 Approx polarizability: 240.583   4.291 242.397  24.351   2.914 150.201

                      1                      2                      3
                      A                      A                      A
 Frequencies --     41.5345                52.6999                70.2359
 Red. masses --      3.8354                 3.8121                 3.3497
 Frc consts  --      0.0039                 0.0062                 0.0097
 IR Inten    --      0.2585                 0.9002                 3.8372

                      4                      5                      6
                      A                      A                      A
 Frequencies --     93.1912               129.5271               157.6659
 Red. masses --      3.4011                 3.5964                 3.8839
 Frc consts  --      0.0174                 0.0356                 0.0569
 IR Inten    --      1.0320                 1.9467                 1.2863

                      7                      8                      9
                      A                      A                      A
 Frequencies --    174.8647               199.2342               223.0998
 Red. masses --      2.5521                 2.9554                 2.6154
 Frc consts  --      0.0460                 0.0691                 0.0767
 IR Inten    --      1.6456                 3.0120                 0.2087

                     10                     11                     12
                      A                      A                      A
 Frequencies --    258.5988               283.6575               287.0080
 Red. masses --      2.2634                 1.3490                 1.8334
 Frc consts  --      0.0892                 0.0640                 0.0890
 IR Inten    --      0.6823                 9.6957                 9.2110

                     13                     14                     15
                      A                      A                      A
 Frequencies --    293.2886               345.4894               364.8973
 Red. masses --      2.0992                 3.2216                 1.5095
 Frc consts  --      0.1064                 0.2266                 0.1184
 IR Inten    --      4.5012                 2.2587                65.5508

                     16                     17                     18
                      A                      A                      A
 Frequencies --    370.4331               405.2606               414.0249
 Red. masses --      1.7881                 2.8458                 1.9958
 Frc consts  --      0.1446                 0.2754                 0.2016
 IR Inten    --     56.3982                35.6103                 5.1714

                     19                     20                     21
                      A                      A                      A
 Frequencies --    465.6564               468.5860               505.0911
 Red. masses --      3.9868                 3.0087                 3.0627
 Frc consts  --      0.5093                 0.3892                 0.4604
 IR Inten    --      4.4535                13.0555                 4.4359

                     22                     23                     24
                      A                      A                      A
 Frequencies --    554.6646               574.1179               610.4245
 Red. masses --      4.8262                 3.9158                 3.5240
 Frc consts  --      0.8748                 0.7605                 0.7737
 IR Inten    --      5.5877                 1.3968                 1.9996

                     25                     26                     27
                      A                      A                      A
 Frequencies --    640.9870               659.3336               736.3332
 Red. masses --      3.8750                 3.1858                 2.4942
 Frc consts  --      0.9380                 0.8160                 0.7968
 IR Inten    --      9.7035                 4.3793                 3.6974

                     28                     29                     30
                      A                      A                      A
 Frequencies --    752.1013               763.8800               787.7795
 Red. masses --      3.2366                 1.3697                 3.5954
 Frc consts  --      1.0787                 0.4709                 1.3146
 IR Inten    --      2.5226                49.3764                 5.9557

                     31                     32                     33
                      A                      A                      A
 Frequencies --    825.2209               850.6628               859.1379
 Red. masses --      4.3755                 2.0192                 1.5134
 Frc consts  --      1.7556                 0.8609                 0.6582
 IR Inten    --      6.4983                 7.3714                 1.8862

                     34                     35                     36
                      A                      A                      A
 Frequencies --    885.6573               921.2205               930.2703
 Red. masses --      1.3340                 2.4053                 1.4772
 Frc consts  --      0.6165                 1.2027                 0.7532
 IR Inten    --     85.5523                 7.3797                15.0910

                     37                     38                     39
                      A                      A                      A
 Frequencies --    943.8228               966.1522               968.3613
 Red. masses --      2.6002                 1.6471                 1.4008
 Frc consts  --      1.3647                 0.9059                 0.7739
 IR Inten    --     20.9361                20.7149                 9.5539

                     40                     41                     42
                      A                      A                      A
 Frequencies --    994.4925              1015.3013              1049.7611
 Red. masses --      2.1468                 1.9223                 2.5556
 Frc consts  --      1.2509                 1.1675                 1.6593
 IR Inten    --     18.5712                 3.6767                 7.2585

                     43                     44                     45
                      A                      A                      A
 Frequencies --   1071.9636              1075.2502              1083.2427
 Red. masses --      2.4285                 3.1681                 2.6748
 Frc consts  --      1.6441                 2.1581                 1.8492
 IR Inten    --      2.0784                48.2665                10.3756

                     46                     47                     48
                      A                      A                      A
 Frequencies --   1092.2865              1124.1059              1143.6218
 Red. masses --      2.3120                 1.9437                 1.6766
 Frc consts  --      1.6252                 1.4471                 1.2919
 IR Inten    --     12.0527                31.3271                39.4861

                     49                     50                     51
                      A                      A                      A
 Frequencies --   1160.4365              1186.7200              1189.9104
 Red. masses --      1.6086                 1.2720                 1.4174
 Frc consts  --      1.2763                 1.0555                 1.1824
 IR Inten    --      4.3650                 0.8422                13.9519

                     52                     53                     54
                      A                      A                      A
 Frequencies --   1195.8539              1198.0397              1216.3311
 Red. masses --      1.3962                 1.1023                 1.6276
 Frc consts  --      1.1764                 0.9322                 1.4187
 IR Inten    --      3.4512                 0.7904                 6.2281

                     55                     56                     57
                      A                      A                      A
 Frequencies --   1229.1639              1251.0549              1285.4621
 Red. masses --      1.6342                 1.4689                 1.5983
 Frc consts  --      1.4547                 1.3545                 1.5560
 IR Inten    --      1.0207                16.3632                90.8620

                     58                     59                     60
                      A                      A                      A
 Frequencies --   1286.9752              1289.8965              1307.3615
 Red. masses --      2.2467                 1.5778                 1.5836
 Frc consts  --      2.1925                 1.5467                 1.5947
 IR Inten    --     65.7743                24.8447                46.0783

                     61                     62                     63
                      A                      A                      A
 Frequencies --   1318.0976              1349.2766              1352.8281
 Red. masses --      1.3335                 1.4068                 1.3419
 Frc consts  --      1.3651                 1.5090                 1.4470
 IR Inten    --      1.3996                 1.2527                 1.0981

                     64                     65                     66
                      A                      A                      A
 Frequencies --   1357.7038              1373.7641              1406.7692
 Red. masses --      2.5036                 1.7349                 1.6500
 Frc consts  --      2.7191                 1.9291                 1.9238
 IR Inten    --     11.8604                 2.1500                15.1645

                     67                     68                     69
                      A                      A                      A
 Frequencies --   1416.4183              1450.2922              1492.4922
 Red. masses --      1.7935                 1.5322                 1.4270
 Frc consts  --      2.1200                 1.8987                 1.8728
 IR Inten    --     10.7135                 9.0701                21.4644

                     70                     71                     72
                      A                      A                      A
 Frequencies --   1502.8309              1510.0911              1513.3384
 Red. masses --      1.1138                 1.7198                 1.0955
 Frc consts  --      1.4821                 2.3106                 1.4782
 IR Inten    --      2.4437                 0.9387                 1.8265

                     73                     74                     75
                      A                      A                      A
 Frequencies --   1520.1254              1530.0352              1534.8869
 Red. masses --      1.0482                 1.1101                 1.1757
 Frc consts  --      1.4271                 1.5311                 1.6320
 IR Inten    --      4.1184                 5.4285                63.0180

                     76                     77                     78
                      A                      A                      A
 Frequencies --   1541.1177              1551.1094              1646.8533
 Red. masses --      1.0921                 1.9544                 6.0718
 Frc consts  --      1.5282                 2.7704                 9.7024
 IR Inten    --      3.4806                33.5266                 7.8041

                     79                     80                     81
                      A                      A                      A
 Frequencies --   1661.6465              1683.9003              2907.5953
 Red. masses --      5.9006                 1.0876                 1.0745
 Frc consts  --      9.5990                 1.8169                 5.3520
 IR Inten    --     16.8077                42.5103               109.7701

                     82                     83                     84
                      A                      A                      A
 Frequencies --   3026.4888              3044.1755              3062.9847
 Red. masses --      1.0343                 1.0648                 1.0861
 Frc consts  --      5.5816                 5.8140                 6.0035
 IR Inten    --     58.8207                51.7594                25.7863

                     85                     86                     87
                      A                      A                      A
 Frequencies --   3072.4749              3085.6769              3086.4444
 Red. masses --      1.0791                 1.1064                 1.0760
 Frc consts  --      6.0018                 6.2067                 6.0391
 IR Inten    --     14.8887                33.6579                23.5430

                     88                     89                     90
                      A                      A                      A
 Frequencies --   3098.0636              3107.0244              3135.7387
 Red. masses --      1.0930                 1.0608                 1.1022
 Frc consts  --      6.1810                 6.0336                 6.3854
 IR Inten    --     38.3871                16.8129                30.7784

                     91                     92                     93
                      A                      A                      A
 Frequencies --   3154.4242              3155.3342              3178.6568
 Red. masses --      1.1001                 1.1055                 1.0866
 Frc consts  --      6.4496                 6.4848                 6.4687
 IR Inten    --     23.1128                15.8375                 7.4725

                     94                     95                     96
                      A                      A                      A
 Frequencies --   3189.7811              3208.0104              3227.5814
 Red. masses --      1.0888                 1.0953                 1.0919
 Frc consts  --      6.5270                 6.6411                 6.7018
 IR Inten    --     14.6806                34.0252                12.8453

                     97                     98                     99
                      A                      A                      A
 Frequencies --   3471.1113              3558.7380              3720.9764
 Red. masses --      1.0492                 1.0926                 1.0658
 Frc consts  --      7.4482                 8.1525                 8.6943
 IR Inten    --      5.2645                 0.7369                 5.0763

 - Thermochemistry -
 -------------------
 Temperature   298.150 Kelvin.  Pressure   1.00000 Atm.
 Atom     1 has atomic number  6 and mass  12.00000

 Molecular mass:   221.14158 amu.
 Principal axes and moments of inertia in atomic units:
                           1         2         3
     Eigenvalues --  1872.480945605.528676273.66270
           X            1.00000   0.00050   0.00021
           Y           -0.00050   1.00000   0.00028
           Z           -0.00021  -0.00028   1.00000
 This molecule is an asymmetric top.
 Rotational symmetry number  1.
 Warning -- assumption of classical behavior for rotation
           may cause significant error
 Rotational temperatures (Kelvin)      0.04626     0.01545     0.01381
 Rotational constants (GHZ):           0.96382     0.32196     0.28767
 Zero-point vibrational energy     804406.5 (Joules/Mol)
                                  192.25776 (Kcal/Mol)
 Warning -- explicit consideration of  24 degrees of freedom as
           vibrations may cause significant error
 Vibrational temperatures:     59.76    75.82   101.05   134.08   186.36
          (Kelvin)            226.85   251.59   286.65   320.99   372.07
                              408.12   412.94   421.98   497.08   525.01
                              532.97   583.08   595.69   669.98   674.19
                              726.71   798.04   826.03   878.26   922.24
                              948.63  1059.42  1082.11  1099.05  1133.44
                             1187.31  1223.91  1236.11  1274.26  1325.43
                             1338.45  1357.95  1390.08  1393.26  1430.85
                             1460.79  1510.37  1542.32  1547.05  1558.54
                             1571.56  1617.34  1645.42  1669.61  1707.43
                             1712.02  1720.57  1723.71  1750.03  1768.49
                             1799.99  1849.49  1851.67  1855.87  1881.00
                             1896.45  1941.31  1946.42  1953.43  1976.54
                             2024.03  2037.91  2086.65  2147.36  2162.24
                             2172.68  2177.36  2187.12  2201.38  2208.36
                             2217.32  2231.70  2369.45  2390.74  2422.76
                             4183.38  4354.44  4379.89  4406.95  4420.61
                             4439.60  4440.71  4457.42  4470.32  4511.63
                             4538.51  4539.82  4573.38  4589.38  4615.61
                             4643.77  4994.15  5120.23  5353.66

 Zero-point correction=                           0.306382 (Hartree/Particle)
 Thermal correction to Energy=                    0.321766
 Thermal correction to Enthalpy=                  0.322710
 Thermal correction to Gibbs Free Energy=         0.264016
 Sum of electronic and zero-point Energies=           -711.759844
 Sum of electronic and thermal Energies=              -711.744459
 Sum of electronic and thermal Enthalpies=            -711.743515
 Sum of electronic and thermal Free Energies=         -711.802210

                     E (Thermal)             CV                S
                      KCal/Mol        Cal/Mol-Kelvin    Cal/Mol-Kelvin
 Total                  201.911             60.551            123.533
 Electronic               0.000              0.000              0.000
 Translational            0.889              2.981             42.084
 Rotational               0.889              2.981             32.554
 Vibrational            200.134             54.589             48.895
 Vibration     1          0.594              1.981              5.185
 Vibration     2          0.596              1.977              4.713
 Vibration     3          0.598              1.968              4.147
 Vibration     4          0.602              1.954              3.592
 Vibration     5          0.612              1.924              2.953
 Vibration     6          0.621              1.894              2.578
 Vibration     7          0.627              1.873              2.383
 Vibration     8          0.637              1.841              2.140
 Vibration     9          0.649              1.806              1.934
 Vibration    10          0.667              1.748              1.671
 Vibration    11          0.682              1.704              1.512
 Vibration    12          0.684              1.698              1.492
 Vibration    13          0.688              1.686              1.455
 Vibration    14          0.724              1.584              1.187
 Vibration    15          0.738              1.545              1.101
 Vibration    16          0.742              1.533              1.078
 Vibration    17          0.770              1.459              0.944
 Vibration    18          0.778              1.440              0.913
 Vibration    19          0.823              1.326              0.750
 Vibration    20          0.826              1.320              0.742
 Vibration    21          0.860              1.239              0.646
 Vibration    22          0.910              1.129              0.535
 Vibration    23          0.930              1.087              0.496
 Vibration    24          0.969              1.010              0.432

                           ! Non-Optimized Parameters !
 Normal termination of Gaussian 16 at Fri Dec 11 00:11:16 2020.

 ----------------------------------------------------------------------
 # B3LYP/6-311++G(d,p) empiricaldispersion=gd3bj scf=xqc pop=npa geom=c
 heck
 ----------------------------------------------------------------------

 --------------------------------------
 CID_82286538_JID_6616_Energie_neutraal
 --------------------------------------
 Structure from the checkpoint file:  "JID_6616.chk"
 Charge =  0 Multiplicity = 1

 SCF Done:  E(RB3LYP) =  -712.277700971     A.U. after   15 cycles
 Normal termination of Gaussian 16 at Fri Dec 11 00:16:19 2020.

 ----------------------------------------------------------------------
 # B3LYP/6-311++G(d,p) empiricaldispersion=gd3bj scf=xqc pop=npa geom=c
 heck
 ----------------------------------------------------------------------

 ------------------------------------
 CID_82286538_JID_6616_Energie_kation
 ------------------------------------
 Structure from the checkpoint file:  "JID_6616.chk"
 Charge =  1 Multiplicity = 2

 SCF Done:  E(UB3LYP) =  -711.992906028     A.U. after   27 cycles
 Normal termination of Gaussian 16 at Fri Dec 11 00:28:32 2020.
 Gaussian 16:  ES64L-G16RevA.03 25-Dec-2016

 ----------------------------------------------------------------------
 # B3LYP/6-311++G(d,p) empiricaldispersion=gd3bj scf=xqc pop=npa geom=c
 heck
 ----------------------------------------------------------------------

 -----------------------------------
 CID_82286538_JID_6616_Energie_anion
 -----------------------------------
 Structure from the checkpoint file:  "JID_6616.chk"
 Charge = -1 Multiplicity = 2

                         Standard orientation:
 ---------------------------------------------------------------------
 Center     Atomic      Atomic             Coordinates (Angstroms)
 Number     Number       Type             X           Y           Z
 ---------------------------------------------------------------------
      1          6           0       -1.463764    2.889319    0.099964
      2          8           0       -0.990408    1.559239    0.207029
      3          6           0       -1.869935    0.532083   -0.028098
      4          6           0       -3.211816    0.733108   -0.357878
      5          6           0       -4.046527   -0.365661   -0.581430
      6          6           0       -3.544290   -1.657379   -0.476047
      7          6           0       -2.199179   -1.841998   -0.144758
      8          6           0       -1.336035   -0.770398    0.084959
      9          6           0        0.115322   -1.013047    0.429140
     10          6           0        0.593484   -0.381455    1.781251
     11          6           0        1.812579    0.490162    1.427828
     12          6           0        2.375714   -0.133366    0.142930
     13          6           0        1.112776   -0.492874   -0.641943
     14          6           0        3.360244    0.764229   -0.605394
     15          7           0        3.786352    0.113003   -1.843237
     16          8           0        3.020182   -1.392474    0.445634
     17          1           0       -2.263747    3.092179    0.824014
     18          1           0       -1.831433    3.106114   -0.911410
     19          1           0       -0.607669    3.530229    0.318513
     20          1           0       -3.615825    1.734872   -0.443207
     21          1           0       -5.088943   -0.197992   -0.837503
     22          1           0       -4.186710   -2.515762   -0.648130
     23          1           0       -1.799872   -2.849881   -0.061061
     24          1           0        0.247195   -2.096098    0.503020
     25          1           0        0.879424   -1.180243    2.471933
     26          1           0       -0.193162    0.202999    2.262541
     27          1           0        2.562664    0.536746    2.228465
     28          1           0        1.493501    1.516053    1.214452
     29          1           0        0.729190    0.409088   -1.124286
     30          1           0        1.318074   -1.230241   -1.420046
     31          1           0        2.865793    1.712365   -0.851129
     32          1           0        4.190983    1.010072    0.087438
     33          1           0        4.572185    0.613248   -2.253134
     34          1           0        4.118305   -0.819801   -1.601797
     35          1           0        3.675949   -1.215417    1.139540
 ---------------------------------------------------------------------

 SCF Done:  E(UB3LYP) =  -712.266397789     A.U. after   32 cycles

 The electronic state is 2-A.
 Alpha  occ. eigenvalues --  -19.06069 -19.02055 -14.18966 -10.14218 -10.12577
 Alpha  occ. eigenvalues --  -10.12092 -10.08751 -10.08668 -10.08597 -10.08334
 Alpha  occ. eigenvalues --  -10.08181 -10.08047 -10.07790 -10.06365 -10.06168
 Alpha  occ. eigenvalues --  -10.05655  -0.97650  -0.92356  -0.78013  -0.76854
 Alpha  occ. eigenvalues --   -0.73004  -0.67429  -0.66026  -0.62016  -0.61429
 Alpha  occ. eigenvalues --   -0.59947  -0.54597  -0.51474  -0.50549  -0.47425
 Alpha  occ. eigenvalues --   -0.46341  -0.43675  -0.40295  -0.40171  -0.38622
 Alpha  occ. eigenvalues --   -0.38278  -0.37769  -0.36269  -0.35833  -0.34863
 Alpha  occ. eigenvalues --   -0.34226  -0.32715  -0.32314  -0.30335  -0.29450
 Alpha  occ. eigenvalues --   -0.28938  -0.27583  -0.26852  -0.26063  -0.25420
 Alpha  occ. eigenvalues --   -0.24574  -0.24257  -0.23110  -0.22926  -0.22025
 Alpha  occ. eigenvalues --   -0.21241  -0.17937  -0.15971  -0.14158  -0.13270
 Alpha  occ. eigenvalues --    0.04055
 Alpha virt. eigenvalues --    0.05609   0.06555   0.07517   0.07693   0.07937
 Alpha virt. eigenvalues --    0.08471   0.08681   0.09326   0.09695   0.10064
 Alpha virt. eigenvalues --    0.10471   0.11022   0.11184   0.12188   0.12545

  Beta  occ. eigenvalues --  -19.06061 -19.02022 -14.18947 -10.14218 -10.12524
  Beta  occ. eigenvalues --  -10.12091 -10.08722 -10.08667 -10.08588 -10.08331
  Beta  occ. eigenvalues --  -10.08166 -10.08045 -10.07788 -10.06360 -10.06148
  Beta  occ. eigenvalues --  -10.05645  -0.97632  -0.92285  -0.77974  -0.76843
  Beta  occ. eigenvalues --   -0.72983  -0.67406  -0.66006  -0.61979  -0.61394
  Beta  occ. eigenvalues --   -0.59902  -0.54548  -0.51444  -0.50515  -0.47380
  Beta  occ. eigenvalues --   -0.46307  -0.43641  -0.40259  -0.40148  -0.38588
  Beta  occ. eigenvalues --   -0.38239  -0.37738  -0.36236  -0.35805  -0.34835
  Beta  occ. eigenvalues --   -0.34183  -0.32678  -0.32282  -0.30301  -0.29426
  Beta  occ. eigenvalues --   -0.28915  -0.27560  -0.26831  -0.26033  -0.25395
  Beta  occ. eigenvalues --   -0.24550  -0.24235  -0.23087  -0.22900  -0.22004
  Beta  occ. eigenvalues --   -0.21217  -0.17903  -0.15957  -0.14130  -0.13259
  Beta virt. eigenvalues --    0.06146   0.06685   0.07161   0.07715   0.07929
  Beta virt. eigenvalues --    0.08477   0.08673   0.08969   0.09728   0.10210
  Beta virt. eigenvalues --    0.10500   0.10848   0.11039   0.11465   0.12593

 Mulliken charges and spin densities:
               1          2
     1  C    1.026278  -1.315154
     2  O   -0.137025   0.038402
     3  C   -0.922552   0.705062
     4  C   -0.229217   0.070493
     5  C    0.821868  -1.162482
     6  C   -0.116653  -0.302965
     7  C   -0.430679   0.304877
     8  C    0.433589   0.181451
     9  C    0.199834   0.353654
    10  C    0.387887  -0.934826
    11  C   -0.281620  -0.036335
    12  C   -1.263299   0.652530
    13  C    0.249151  -0.790402
    14  C    1.055698  -1.508067
    15  N   -0.433830   0.143516
    16  O   -0.164732  -0.004343
    17  H   -0.290923   0.445020
    18  H   -0.209438   0.365024
    19  H   -0.652258   0.819444
    20  H   -0.318471   0.486475
    21  H   -0.228542   0.382787
    22  H    0.087122   0.056836
    23  H    0.051414   0.079643
    24  H    0.198399   0.038264
    25  H    0.096357   0.064560
    26  H    0.139588   0.026850
    27  H   -0.423755   0.589002
    28  H    0.418702  -0.256499
    29  H    0.173750   0.009975
    30  H    0.261439  -0.051549
    31  H   -0.011350   0.197518
    32  H   -0.642264   0.772307
    33  H    0.036628   0.191186
    34  H    0.147073   0.105837
    35  H   -0.028169   0.281907
 Sum of Mulliken charges =  -1.00000   1.00000

 Dipole moment (field-independent basis, Debye):
    X=             -2.9053    Y=             -4.8331    Z=             -0.0317  Tot=              5.6392
 Quadrupole moment (field-independent basis, Debye-Ang):
   XX=           -179.8863   YY=           -144.5502   ZZ=           -131.8148
   XY=              8.2141   XZ=             -3.7294   YZ=              0.2282

 Summary of Natural Population Analysis:

                                       Natural Population
                Natural  -----------------------------------------------
    Atom  No    Charge         Core      Valence    Rydberg      Total
 -----------------------------------------------------------------------
      C    1   -0.09978      0.99960     2.09096    0.00922     3.09978
      O    2   -0.27745      0.99986     3.26688    0.01071     4.27745
      C    3    0.16511      0.99933     1.82282    0.01274     2.83489
      C    4   -0.14082      0.99952     2.13215    0.00915     3.14082
      C    5   -0.09837      0.99957     2.08833    0.01047     3.09837
      C    6   -0.11822      0.99956     2.10926    0.00940     3.11822
      C    7   -0.09350      0.99952     2.08573    0.00825     3.09350
      C    8   -0.02504      0.99946     2.01549    0.01009     3.02504
      C    9   -0.11543      0.99958     2.10538    0.01047     3.11543
      C   10   -0.18401      0.99963     2.17590    0.00848     3.18401
      C   11   -0.20014      0.99957     2.19132    0.00925     3.20014
      C   12    0.12863      0.99950     1.85560    0.01627     2.87137
      C   13   -0.18932      0.99955     2.18087    0.00890     3.18932
      C   14   -0.09435      0.99955     2.08283    0.01197     3.09435
      N   15   -0.42482      0.99977     2.91475    0.01030     3.92482
      O   16   -0.38612      0.99989     3.37946    0.00677     4.38612
      H   17    0.08571      0.00000     0.41236    0.00193     0.41429
      H   18    0.08569      0.00000     0.41260    0.00171     0.41431
      H   19    0.09727      0.00000     0.40125    0.00148     0.40273
      H   20    0.10834      0.00000     0.39018    0.00148     0.39166
      H   21    0.09981      0.00000     0.39932    0.00088     0.40019
      H   22    0.09848      0.00000     0.40078    0.00074     0.40152
      H   23    0.09859      0.00000     0.40043    0.00098     0.40141
      H   24    0.10229      0.00000     0.39610    0.00161     0.39771
      H   25    0.09730      0.00000     0.40166    0.00105     0.40270
      H   26    0.10257      0.00000     0.39625    0.00118     0.39743
      H   27    0.09937      0.00000     0.39923    0.00140     0.40063
      H   28    0.10565      0.00000     0.39236    0.00198     0.39435
      H   29    0.10783      0.00000     0.39069    0.00148     0.39217
      H   30    0.10840      0.00000     0.39046    0.00114     0.39160
      H   31    0.09406      0.00000     0.40441    0.00153     0.40594
      H   32    0.08052      0.00000     0.41632    0.00315     0.41948
      H   33    0.17343      0.00000     0.32514    0.00143     0.32657
      H   34    0.17823      0.00000     0.31972    0.00205     0.32177
      H   35    0.23011      0.00000     0.26564    0.00425     0.26989
 =======================================================================
   * Total *    0.00000     15.99347    43.81263    0.19390    60.00000

 Normal termination of Gaussian 16 at Fri Dec 11 00:43:27 2020.
