 Gaussian 16, Revision A.03,

 -----------------------------------------------------------
 # opt freq B3LYP/6-31G(d) empiricaldispersion=gd3bj scf=xqc
 -----------------------------------------------------------

 -------------------------------
 CID_62215809_JID_10484_neutraal
 -------------------------------
 Symbolic Z-matrix:
 Charge =  0 Multiplicity = 1

 SCF Done:  E(RB3LYP) =  -929.916929974     A.U. after   15 cycles
 SCF Done:  E(RB3LYP) =  -929.922445096     A.U. after   13 cycles
 SCF Done:  E(RB3LYP) =  -929.922934226     A.U. after   12 cycles
 SCF Done:  E(RB3LYP) =  -929.923256848     A.U. after   12 cycles
 SCF Done:  E(RB3LYP) =  -929.923435741     A.U. after   13 cycles
 SCF Done:  E(RB3LYP) =  -929.923673946     A.U. after   12 cycles
 SCF Done:  E(RB3LYP) =  -929.923830969     A.U. after   12 cycles
 SCF Done:  E(RB3LYP) =  -929.923864336     A.U. after   11 cycles
 SCF Done:  E(RB3LYP) =  -929.923874055     A.U. after   10 cycles
 SCF Done:  E(RB3LYP) =  -929.923877026     A.U. after    9 cycles
 SCF Done:  E(RB3LYP) =  -929.923879541     A.U. after    9 cycles
 SCF Done:  E(RB3LYP) =  -929.923879972     A.U. after    8 cycles
 SCF Done:  E(RB3LYP) =  -929.923880109     A.U. after    8 cycles
 SCF Done:  E(RB3LYP) =  -929.923880137     A.U. after    7 cycles
 SCF Done:  E(RB3LYP) =  -929.923880153     A.U. after    7 cycles
 Optimization completed.
    -- Stationary point found.
 Normal termination of Gaussian 16 at Sun Dec 13 16:52:56 2020.

 --------------------------------------------------------------------
 #N Geom=AllCheck Guess=TCheck SCRF=Check GenChk RB3LYP/6-31G(d) Freq
 --------------------------------------------------------------------

 Structure from the checkpoint file:  "JID_10484.chk"
 -------------------------------
 CID_62215809_JID_10484_neutraal
 -------------------------------
 Charge =  0 Multiplicity = 1

 SCF Done:  E(RB3LYP) =  -929.923880153     A.U. after    1 cycles

  Exact polarizability: 200.424  -5.742 177.533  13.872  14.489 119.590
 Approx polarizability: 289.247 -11.403 285.425  27.533  40.864 192.966

                      1                      2                      3
                      A                      A                      A
 Frequencies --     16.8426                33.5344                36.9636
 Red. masses --      6.7903                 6.2395                11.7404
 Frc consts  --      0.0011                 0.0041                 0.0095
 IR Inten    --      0.3594                 0.9113                 0.9811

                      4                      5                      6
                      A                      A                      A
 Frequencies --     63.6973                72.6997                88.1489
 Red. masses --      3.5635                 4.5502                 4.4238
 Frc consts  --      0.0085                 0.0142                 0.0203
 IR Inten    --      0.5169                 2.1004                 2.3862

                      7                      8                      9
                      A                      A                      A
 Frequencies --    125.4780               169.2925               198.7676
 Red. masses --      4.7300                 4.4943                 3.4525
 Frc consts  --      0.0439                 0.0759                 0.0804
 IR Inten    --      2.6427                 1.2011                 2.1557

                     10                     11                     12
                      A                      A                      A
 Frequencies --    218.3702               224.8309               260.2530
 Red. masses --      2.9609                 4.4004                 4.2492
 Frc consts  --      0.0832                 0.1311                 0.1696
 IR Inten    --      0.0878                 4.4265                 2.3068

                     13                     14                     15
                      A                      A                      A
 Frequencies --    286.5131               325.5514               340.6175
 Red. masses --      3.7088                 4.3435                 2.5181
 Frc consts  --      0.1794                 0.2712                 0.1721
 IR Inten    --      0.7781                 1.6215                 0.6860

                     16                     17                     18
                      A                      A                      A
 Frequencies --    363.0030               411.9537               434.2426
 Red. masses --      2.4863                 3.7912                 2.8682
 Frc consts  --      0.1930                 0.3791                 0.3187
 IR Inten    --      2.0613                 3.4195                 0.0134

                     19                     20                     21
                      A                      A                      A
 Frequencies --    452.5700               455.9340               469.5276
 Red. masses --      2.1289                 1.4774                 3.0348
 Frc consts  --      0.2569                 0.1810                 0.3942
 IR Inten    --      7.1218                95.6535                 7.1680

                     22                     23                     24
                      A                      A                      A
 Frequencies --    525.6787               551.3573               572.1424
 Red. masses --      2.2233                 5.9541                 3.8467
 Frc consts  --      0.3620                 1.0664                 0.7419
 IR Inten    --      2.5976                10.8825                29.4951

                     25                     26                     27
                      A                      A                      A
 Frequencies --    577.6686               594.5906               643.5528
 Red. masses --      3.7847                 4.0935                 1.4086
 Frc consts  --      0.7441                 0.8527                 0.3437
 IR Inten    --     14.1982                 5.3770                75.5689

                     28                     29                     30
                      A                      A                      A
 Frequencies --    646.0378               668.8727               710.2637
 Red. masses --      2.3208                 6.2147                 6.4433
 Frc consts  --      0.5707                 1.6382                 1.9151
 IR Inten    --      4.9223                 4.2974                 2.9948

                     31                     32                     33
                      A                      A                      A
 Frequencies --    733.6988               758.0487               792.5037
 Red. masses --      4.0036                 2.4690                 3.1285
 Frc consts  --      1.2698                 0.8359                 1.1577
 IR Inten    --      2.4706                41.4048                14.8184

                     34                     35                     36
                      A                      A                      A
 Frequencies --    813.2559               824.3572               852.3588
 Red. masses --      7.2229                 2.3247                 1.8221
 Frc consts  --      2.8146                 0.9308                 0.7799
 IR Inten    --      4.0109                 4.7464                 9.3234

                     37                     38                     39
                      A                      A                      A
 Frequencies --    868.9431               872.4173               888.6308
 Red. masses --      2.2319                 2.1752                 3.1213
 Frc consts  --      0.9929                 0.9755                 1.4522
 IR Inten    --      7.0840                13.3510                 2.4587

                     40                     41                     42
                      A                      A                      A
 Frequencies --    908.5190               933.1648               952.0762
 Red. masses --      1.5535                 4.0714                 2.9323
 Frc consts  --      0.7555                 2.0888                 1.5660
 IR Inten    --      5.7930                 8.5109                 0.9143

                     43                     44                     45
                      A                      A                      A
 Frequencies --    953.8462               968.3291               999.7502
 Red. masses --      3.3043                 1.4519                 2.0771
 Frc consts  --      1.7713                 0.8021                 1.2232
 IR Inten    --      5.0924                 2.3513                 5.7787

                     46                     47                     48
                      A                      A                      A
 Frequencies --   1009.0473              1033.5014              1069.6358
 Red. masses --      2.2561                 1.8505                 2.1057
 Frc consts  --      1.3534                 1.1646                 1.4194
 IR Inten    --     44.8198                 5.9981                11.1649

                     49                     50                     51
                      A                      A                      A
 Frequencies --   1083.8020              1097.0778              1112.2503
 Red. masses --      2.1774                 1.6319                 2.0699
 Frc consts  --      1.5069                 1.1572                 1.5087
 IR Inten    --     44.7002                32.2407                 4.8221

                     52                     53                     54
                      A                      A                      A
 Frequencies --   1129.0222              1130.8703              1147.9576
 Red. masses --      3.3778                 2.3483                 2.2710
 Frc consts  --      2.5368                 1.7694                 1.7633
 IR Inten    --     32.8693                92.2939                32.0729

                     55                     56                     57
                      A                      A                      A
 Frequencies --   1169.3508              1197.4226              1211.2959
 Red. masses --      2.0980                 2.3938                 1.8808
 Frc consts  --      1.6902                 2.0222                 1.6259
 IR Inten    --     62.8259                 1.0331                39.5996

                     58                     59                     60
                      A                      A                      A
 Frequencies --   1249.9861              1263.1221              1269.8861
 Red. masses --      1.4177                 1.3797                 1.7004
 Frc consts  --      1.3051                 1.2969                 1.6156
 IR Inten    --     16.2207                38.6328                12.2845

                     61                     62                     63
                      A                      A                      A
 Frequencies --   1285.1234              1302.0938              1317.4648
 Red. masses --      2.1155                 4.1088                 1.4270
 Frc consts  --      2.0585                 4.1044                 1.4594
 IR Inten    --      6.1487                18.7353                30.4847

                     64                     65                     66
                      A                      A                      A
 Frequencies --   1324.0510              1335.6884              1353.0550
 Red. masses --      1.4006                 1.4338                 1.5651
 Frc consts  --      1.4467                 1.5071                 1.6882
 IR Inten    --     12.6785                 5.6574                45.6088

                     67                     68                     69
                      A                      A                      A
 Frequencies --   1358.4784              1371.4462              1386.6366
 Red. masses --      1.4107                 1.8785                 1.7901
 Frc consts  --      1.5338                 2.0817                 2.0280
 IR Inten    --      0.5888                31.1962                 9.0366

                     70                     71                     72
                      A                      A                      A
 Frequencies --   1393.6905              1404.8029              1408.7770
 Red. masses --      1.9441                 2.7157                 1.5495
 Frc consts  --      2.2248                 3.1577                 1.8118
 IR Inten    --     15.7411                35.0490                 3.2642

                     73                     74                     75
                      A                      A                      A
 Frequencies --   1409.4500              1416.2261              1419.5718
 Red. masses --      1.8067                 1.7812                 1.5598
 Frc consts  --      2.1146                 2.1049                 1.8520
 IR Inten    --     74.5817               156.7873                 2.7748

                     76                     77                     78
                      A                      A                      A
 Frequencies --   1427.5144              1436.8913              1505.5272
 Red. masses --      1.7379                 1.5232                 1.0997
 Frc consts  --      2.0866                 1.8529                 1.4685
 IR Inten    --     74.3576                21.0869                 1.8054

                     79                     80                     81
                      A                      A                      A
 Frequencies --   1511.6874              1514.0710              1518.6591
 Red. masses --      2.0007                 1.1260                 1.1647
 Frc consts  --      2.6937                 1.5209                 1.5827
 IR Inten    --     28.6584                12.3972                 4.4744

                     82                     83                     84
                      A                      A                      A
 Frequencies --   1523.5373              1525.3169              1531.8402
 Red. masses --      1.1239                 1.1298                 4.3260
 Frc consts  --      1.5370                 1.5487                 5.9808
 IR Inten    --      7.9803                 3.9871                49.5026

                     85                     86                     87
                      A                      A                      A
 Frequencies --   1539.8200              1598.4213              1661.6348
 Red. masses --      1.1067                 8.9573                 8.1618
 Frc consts  --      1.5460                13.4837                13.2772
 IR Inten    --      5.0385               140.4026               177.4626

                     88                     89                     90
                      A                      A                      A
 Frequencies --   1856.3496              2973.3647              3018.8184
 Red. masses --      9.4270                 1.0738                 1.0798
 Frc consts  --     19.1400                 5.5934                 5.7979
 IR Inten    --    249.4147                39.0314                11.2982

                     91                     92                     93
                      A                      A                      A
 Frequencies --   3031.1982              3037.5668              3041.7664
 Red. masses --      1.0711                 1.0668                 1.0608
 Frc consts  --      5.7985                 5.7994                 5.7830
 IR Inten    --     10.2619                23.6105                38.3077

                     94                     95                     96
                      A                      A                      A
 Frequencies --   3065.0576              3084.9027              3090.6897
 Red. masses --      1.0697                 1.0964                 1.1024
 Frc consts  --      5.9209                 6.1475                 6.2044
 IR Inten    --     27.8296                53.8833                44.0165

                     97                     98                     99
                      A                      A                      A
 Frequencies --   3093.4176              3102.0643              3116.5439
 Red. masses --      1.0609                 1.0895                 1.0941
 Frc consts  --      5.9812                 6.1767                 6.2612
 IR Inten    --     23.6628                29.1174                25.6830

                    100                    101                    102
                      A                      A                      A
 Frequencies --   3138.8289              3157.7104              3196.7906
 Red. masses --      1.1033                 1.0956                 1.0908
 Frc consts  --      6.4047                 6.4362                 6.5678
 IR Inten    --      6.1947                13.5234                26.8800

                    103                    104                    105
                      A                      A                      A
 Frequencies --   3262.6106              3655.2965              3678.0331
 Red. masses --      1.0972                 1.0808                 1.0639
 Frc consts  --      6.8811                 8.5082                 8.4795
 IR Inten    --      2.6218                50.3483                45.8346

 - Thermochemistry -
 -------------------
 Temperature   298.150 Kelvin.  Pressure   1.00000 Atm.
 Atom     1 has atomic number  6 and mass  12.00000

 Molecular mass:   275.13822 amu.
 Principal axes and moments of inertia in atomic units:
                           1         2         3
     Eigenvalues --  3424.875217494.947739887.42143
           X            0.99999  -0.00355  -0.00100
           Y            0.00354   0.99996  -0.00828
           Z            0.00103   0.00828   0.99997
 This molecule is an asymmetric top.
 Rotational symmetry number  1.
 Warning -- assumption of classical behavior for rotation
           may cause significant error
 Rotational temperatures (Kelvin)      0.02529     0.01156     0.00876
 Rotational constants (GHZ):           0.52695     0.24079     0.18253
 Zero-point vibrational energy     808768.7 (Joules/Mol)
                                  193.30036 (Kcal/Mol)
 Warning -- explicit consideration of  26 degrees of freedom as
           vibrations may cause significant error
 Vibrational temperatures:     24.23    48.25    53.18    91.65   104.60
          (Kelvin)            126.83   180.53   243.57   285.98   314.19
                              323.48   374.45   412.23   468.40   490.07
                              522.28   592.71   624.78   651.15   655.99
                              675.55   756.33   793.28   823.19   831.14
                              855.48   925.93   929.50   962.36  1021.91
                             1055.63  1090.66  1140.24  1170.09  1186.07
                             1226.35  1250.22  1255.21  1278.54  1307.16
                             1342.62  1369.83  1372.37  1393.21  1438.42
                             1451.79  1486.98  1538.97  1559.35  1578.45
                             1600.28  1624.41  1627.07  1651.65  1682.44
                             1722.82  1742.78  1798.45  1817.35  1827.08
                             1849.01  1873.42  1895.54  1905.01  1921.76
                             1946.74  1954.55  1973.21  1995.06  2005.21
                             2021.20  2026.92  2027.88  2037.63  2042.45
                             2053.87  2067.37  2166.12  2174.98  2178.41
                             2185.01  2192.03  2194.59  2203.98  2215.46
                             2299.77  2390.72  2670.87  4278.01  4343.41
                             4361.22  4370.38  4376.42  4409.93  4438.49
                             4446.81  4450.74  4463.18  4484.01  4516.07
                             4543.24  4599.47  4694.17  5259.16  5291.87

 Zero-point correction=                           0.308044 (Hartree/Particle)
 Thermal correction to Energy=                    0.324999
 Thermal correction to Enthalpy=                  0.325943
 Thermal correction to Gibbs Free Energy=         0.260972
 Sum of electronic and zero-point Energies=           -929.615836
 Sum of electronic and thermal Energies=              -929.598882
 Sum of electronic and thermal Enthalpies=            -929.597937
 Sum of electronic and thermal Free Energies=         -929.662908

                     E (Thermal)             CV                S
                      KCal/Mol        Cal/Mol-Kelvin    Cal/Mol-Kelvin
 Total                  203.940             65.838            136.742
 Electronic               0.000              0.000              0.000
 Translational            0.889              2.981             42.735
 Rotational               0.889              2.981             33.895
 Vibrational            202.162             59.877             60.112
 Vibration     1          0.593              1.986              6.975
 Vibration     2          0.594              1.983              5.609
 Vibration     3          0.594              1.982              5.416
 Vibration     4          0.597              1.972              4.339
 Vibration     5          0.599              1.967              4.079
 Vibration     6          0.601              1.958              3.701
 Vibration     7          0.610              1.928              3.014
 Vibration     8          0.625              1.880              2.443
 Vibration     9          0.637              1.842              2.144
 Vibration    10          0.646              1.813              1.973
 Vibration    11          0.649              1.803              1.920
 Vibration    12          0.668              1.745              1.660
 Vibration    13          0.684              1.699              1.494
 Vibration    14          0.710              1.624              1.282
 Vibration    15          0.720              1.594              1.209
 Vibration    16          0.737              1.548              1.109
 Vibration    17          0.776              1.444              0.920
 Vibration    18          0.795              1.396              0.845
 Vibration    19          0.811              1.355              0.788
 Vibration    20          0.814              1.348              0.778
 Vibration    21          0.827              1.318              0.739
 Vibration    22          0.881              1.193              0.597
 Vibration    23          0.907              1.137              0.541
 Vibration    24          0.928              1.092              0.500
 Vibration    25          0.934              1.080              0.490
 Vibration    26          0.952              1.043              0.459

 Optimization completed.
    -- Stationary point found.
 Normal termination of Gaussian 16 at Sun Dec 13 17:12:36 2020.

 ----------------------------------------------------------------------
 # B3LYP/6-311++G(d,p) empiricaldispersion=gd3bj scf=xqc pop=npa geom=c
 heck
 ----------------------------------------------------------------------

 ---------------------------------------
 CID_62215809_JID_10484_Energie_neutraal
 ---------------------------------------
 Structure from the checkpoint file:  "JID_10484.chk"
 Charge =  0 Multiplicity = 1

 SCF Done:  E(RB3LYP) =  -930.184039178     A.U. after   15 cycles
 Normal termination of Gaussian 16 at Sun Dec 13 17:19:51 2020.

 ----------------------------------------------------------------------
 # B3LYP/6-311++G(d,p) empiricaldispersion=gd3bj scf=xqc pop=npa geom=c
 heck
 ----------------------------------------------------------------------

 -------------------------------------
 CID_62215809_JID_10484_Energie_kation
 -------------------------------------
 Structure from the checkpoint file:  "JID_10484.chk"
 Charge =  1 Multiplicity = 2

 SCF Done:  E(UB3LYP) =  -929.882520469     A.U. after   26 cycles
 Normal termination of Gaussian 16 at Sun Dec 13 17:36:26 2020.
 Gaussian 16:  ES64L-G16RevA.03 25-Dec-2016

 ----------------------------------------------------------------------
 # B3LYP/6-311++G(d,p) empiricaldispersion=gd3bj scf=xqc pop=npa geom=c
 heck
 ----------------------------------------------------------------------

 ------------------------------------
 CID_62215809_JID_10484_Energie_anion
 ------------------------------------
 Structure from the checkpoint file:  "JID_10484.chk"
 Charge = -1 Multiplicity = 2

                         Standard orientation:
 ---------------------------------------------------------------------
 Center     Atomic      Atomic             Coordinates (Angstroms)
 Number     Number       Type             X           Y           Z
 ---------------------------------------------------------------------
      1          6           0       -1.857646    3.025402   -0.531727
      2          6           0       -0.362316    3.334586   -0.505421
      3          6           0        0.418108    2.079248   -0.868906
      4          7           0        0.117635    0.953411    0.048043
      5          6           0       -1.322270    0.600889    0.125780
      6          6           0       -2.156816    1.860002    0.411113
      7          6           0       -1.528917   -0.434552    1.246413
      8          6           0       -2.982244   -0.924362    1.412465
      9          6           0       -3.461476   -1.641741    0.171663
     10          8           0       -3.245955   -2.800066   -0.101070
     11          8           0       -4.153776   -0.815446   -0.660829
     12          6           0        0.998648   -0.119154   -0.193422
     13          7           0        0.576913   -1.254065   -0.757795
     14          6           0        1.471523   -2.242700   -0.975508
     15          7           0        2.776800   -2.246250   -0.720653
     16          6           0        3.210432   -1.112421   -0.147232
     17          6           0        2.353678   -0.029621    0.143796
     18          7           0        3.158154    0.915135    0.750549
     19          6           0        4.419847    0.365180    0.803671
     20          7           0        4.500660   -0.831357    0.273631
     21          1           0       -2.447763    3.904009   -0.246483
     22          1           0       -2.155056    2.759699   -1.555872
     23          1           0       -0.106277    4.133383   -1.211589
     24          1           0       -0.067250    3.671234    0.497527
     25          1           0        0.177810    1.788976   -1.906849
     26          1           0        1.495156    2.267216   -0.836040
     27          1           0       -1.643137    0.169403   -0.833933
     28          1           0       -1.964798    2.177310    1.445952
     29          1           0       -3.214386    1.590875    0.341571
     30          1           0       -0.906091   -1.309581    1.058115
     31          1           0       -1.199670    0.012532    2.192187
     32          1           0       -3.011960   -1.646654    2.232676
     33          1           0       -3.659678   -0.101390    1.652190
     34          1           0       -4.373683   -1.352754   -1.445613
     35          1           0        1.062397   -3.144100   -1.425214
     36          1           0        2.850761    1.776841    1.176762
     37          1           0        5.247030    0.904441    1.247274
 ---------------------------------------------------------------------

 SCF Done:  E(UB3LYP) =  -930.185412921     A.U. after   33 cycles
 SCF Done:  E(UB3LYP) =  -930.185412921     a.u. after    1 cycles

 The electronic state is 2-A.
 Alpha  occ. eigenvalues --  -19.09230 -19.03328 -14.26160 -14.22231 -14.18908
 Alpha  occ. eigenvalues --  -14.18845 -14.18386 -10.22361 -10.12649 -10.12619
 Alpha  occ. eigenvalues --  -10.11352 -10.11021 -10.10809 -10.10358 -10.10038
 Alpha  occ. eigenvalues --  -10.10019 -10.07997 -10.07775 -10.07435 -10.07351
 Alpha  occ. eigenvalues --   -1.02960  -0.94002  -0.91788  -0.86811  -0.83568
 Alpha  occ. eigenvalues --   -0.78117  -0.74871  -0.72045  -0.70535  -0.66255
 Alpha  occ. eigenvalues --   -0.65378  -0.59223  -0.56730  -0.54246  -0.53434
 Alpha  occ. eigenvalues --   -0.52714  -0.50905  -0.49058  -0.46451  -0.45425
 Alpha  occ. eigenvalues --   -0.42305  -0.41742  -0.40268  -0.39799  -0.38718
 Alpha  occ. eigenvalues --   -0.37204  -0.36566  -0.36066  -0.35253  -0.35074
 Alpha  occ. eigenvalues --   -0.34161  -0.33663  -0.32838  -0.31939  -0.31322
 Alpha  occ. eigenvalues --   -0.30115  -0.28702  -0.28129  -0.27690  -0.26962
 Alpha  occ. eigenvalues --   -0.25392  -0.24525  -0.24451  -0.23169  -0.22769
 Alpha  occ. eigenvalues --   -0.21420  -0.20032  -0.19561  -0.17057  -0.16186
 Alpha  occ. eigenvalues --   -0.15323  -0.13927  -0.12083   0.03647
 Alpha virt. eigenvalues --    0.05540   0.05827   0.06642   0.06936   0.08050
 Alpha virt. eigenvalues --    0.08511   0.08742   0.09707   0.09965   0.10385
 Alpha virt. eigenvalues --    0.10495   0.10711   0.11698   0.11814   0.12755

  Beta  occ. eigenvalues --  -19.09217 -19.03318 -14.26100 -14.22255 -14.18924
  Beta  occ. eigenvalues --  -14.18777 -14.18202 -10.22350 -10.12451 -10.12377
  Beta  occ. eigenvalues --  -10.11366 -10.10955 -10.10805 -10.10319 -10.10067
  Beta  occ. eigenvalues --  -10.10030 -10.07993 -10.07767 -10.07410 -10.07337
  Beta  occ. eigenvalues --   -1.02935  -0.93980  -0.91639  -0.86619  -0.83424
  Beta  occ. eigenvalues --   -0.77985  -0.74665  -0.72006  -0.70478  -0.66202
  Beta  occ. eigenvalues --   -0.65226  -0.59162  -0.56568  -0.54173  -0.53349
  Beta  occ. eigenvalues --   -0.52505  -0.50798  -0.48991  -0.46394  -0.45297
  Beta  occ. eigenvalues --   -0.42222  -0.41717  -0.40221  -0.39704  -0.38659
  Beta  occ. eigenvalues --   -0.37123  -0.36467  -0.36014  -0.35183  -0.34797
  Beta  occ. eigenvalues --   -0.34059  -0.33580  -0.32769  -0.31876  -0.31257
  Beta  occ. eigenvalues --   -0.30048  -0.28592  -0.28096  -0.27411  -0.26777
  Beta  occ. eigenvalues --   -0.25354  -0.24456  -0.24404  -0.22896  -0.22741
  Beta  occ. eigenvalues --   -0.21111  -0.20014  -0.19411  -0.16987  -0.15855
  Beta  occ. eigenvalues --   -0.14751  -0.13781  -0.11761
  Beta virt. eigenvalues --    0.05627   0.06520   0.06780   0.07487   0.07709
  Beta virt. eigenvalues --    0.08200   0.08609   0.09118   0.09797   0.10071
  Beta virt. eigenvalues --    0.10455   0.10533   0.11125   0.11799   0.11854

 Mulliken charges and spin densities:
               1          2
     1  C   -0.779513   0.308013
     2  C    0.215911  -0.611150
     3  C    0.266211  -0.407782
     4  N    0.592345   0.034482
     5  C    0.133013  -0.408440
     6  C   -0.111735  -0.190851
     7  C   -0.353466   0.209789
     8  C    0.181377  -0.587808
     9  C   -0.136494  -0.109456
    10  O   -0.254190   0.014105
    11  O   -0.157006   0.026377
    12  C   -0.965564   0.411220
    13  N   -0.051987   0.038587
    14  C    0.015125  -0.019073
    15  N   -0.133487   0.085662
    16  C   -0.344351  -0.251065
    17  C    0.869180  -0.582157
    18  N   -0.301887   0.023404
    19  C    0.120964   0.188190
    20  N   -0.164135  -0.019225
    21  H   -0.119581   0.297636
    22  H    0.116538  -0.001593
    23  H    0.008093   0.152745
    24  H   -0.270816   0.407679
    25  H    0.087492   0.035550
    26  H   -0.000469   0.182197
    27  H    0.281078  -0.025194
    28  H    0.011082   0.157945
    29  H    0.038878   0.099369
    30  H    0.198324   0.038858
    31  H   -0.012424   0.176431
    32  H    0.137066   0.063690
    33  H    0.035441   0.140064
    34  H    0.155277   0.121236
    35  H    0.192300  -0.000294
    36  H   -0.217702   0.546867
    37  H   -0.280889   0.453991
 Sum of Mulliken charges =  -1.00000   1.00000

 Dipole moment (field-independent basis, Debye):
    X=             -6.9305    Y=              1.2703    Z=             -0.8678  Tot=              7.0992
 Quadrupole moment (field-independent basis, Debye-Ang):
   XX=           -192.2740   YY=           -173.8578   ZZ=           -135.7995
   XY=              5.1938   XZ=              2.6090   YZ=             -8.6358

 Summary of Natural Population Analysis:

                                       Natural Population
                Natural  -----------------------------------------------
    Atom  No    Charge         Core      Valence    Rydberg      Total
 -----------------------------------------------------------------------
      C    1   -0.18751      0.99963     2.17971    0.00817     3.18751
      C    2   -0.19402      0.99962     2.18564    0.00876     3.19402
      C    3   -0.07642      0.99960     2.06631    0.01051     3.07642
      N    4   -0.27927      0.99966     2.76666    0.01295     3.77927
      C    5   -0.00465      0.99957     1.99284    0.01224     3.00465
      C    6   -0.19563      0.99960     2.18715    0.00887     3.19563
      C    7   -0.19144      0.99959     2.18240    0.00945     3.19144
      C    8   -0.23700      0.99957     2.22952    0.00790     3.23700
      C    9    0.40845      0.99972     1.56675    0.02507     2.59155
      O   10   -0.30241      0.99987     3.29631    0.00624     4.30241
      O   11   -0.34931      0.99988     3.34289    0.00655     4.34931
      C   12    0.24215      0.99946     1.74376    0.01462     2.75785
      N   13   -0.26904      0.99967     2.75996    0.00941     3.76904
      C   14    0.12866      0.99968     1.85409    0.01757     2.87134
      N   15   -0.22425      0.99967     2.71468    0.00990     3.72425
      C   16    0.17996      0.99947     1.80107    0.01950     2.82004
      C   17    0.01005      0.99939     1.97845    0.01211     2.98995
      N   18   -0.27491      0.99966     2.76492    0.01033     3.77491
      C   19    0.16128      0.99966     1.82069    0.01836     2.83872
      N   20   -0.26393      0.99970     2.75458    0.00965     3.76393
      H   21    0.09820      0.00000     0.40098    0.00082     0.40180
      H   22    0.09253      0.00000     0.40631    0.00116     0.40747
      H   23    0.09813      0.00000     0.40110    0.00077     0.40187
      H   24    0.09979      0.00000     0.39814    0.00208     0.40021
      H   25    0.08218      0.00000     0.41659    0.00123     0.41782
      H   26    0.10005      0.00000     0.39850    0.00145     0.39995
      H   27    0.09335      0.00000     0.40427    0.00239     0.40665
      H   28    0.09621      0.00000     0.40223    0.00156     0.40379
      H   29    0.10359      0.00000     0.39523    0.00118     0.39641
      H   30    0.11786      0.00000     0.38079    0.00135     0.38214
      H   31    0.10217      0.00000     0.39666    0.00117     0.39783
      H   32    0.11229      0.00000     0.38685    0.00086     0.38771
      H   33    0.10709      0.00000     0.39173    0.00119     0.39291
      H   34    0.23843      0.00000     0.25797    0.00360     0.26157
      H   35    0.07882      0.00000     0.42011    0.00108     0.42118
      H   36    0.20976      0.00000     0.28413    0.00611     0.29024
      H   37    0.08881      0.00000     0.40981    0.00138     0.41119
 =======================================================================
   * Total *    0.00000     19.99269    52.73978    0.26753    73.00000

 Normal termination of Gaussian 16 at Sun Dec 13 17:57:58 2020.
