 Gaussian 16, Revision A.03,

 -----------------------------------------------------------
 # opt freq B3LYP/6-31G(d) empiricaldispersion=gd3bj scf=xqc
 -----------------------------------------------------------

 -----------------------------
 CID_68361296_JID_549_neutraal
 -----------------------------
 Symbolic Z-matrix:
 Charge =  0 Multiplicity = 1

 SCF Done:  E(RB3LYP) =  -407.924519855     A.U. after   13 cycles
 SCF Done:  E(RB3LYP) =  -407.930365456     A.U. after   11 cycles
 SCF Done:  E(RB3LYP) =  -407.931042016     A.U. after   10 cycles
 SCF Done:  E(RB3LYP) =  -407.931842734     A.U. after   12 cycles
 SCF Done:  E(RB3LYP) =  -407.932219645     A.U. after   11 cycles
 SCF Done:  E(RB3LYP) =  -407.932355605     A.U. after   11 cycles
 SCF Done:  E(RB3LYP) =  -407.932735484     A.U. after   11 cycles
 SCF Done:  E(RB3LYP) =  -407.932789044     A.U. after   10 cycles
 SCF Done:  E(RB3LYP) =  -407.932792341     A.U. after    9 cycles
 SCF Done:  E(RB3LYP) =  -407.932794308     A.U. after    8 cycles
 SCF Done:  E(RB3LYP) =  -407.932794485     A.U. after    7 cycles
 SCF Done:  E(RB3LYP) =  -407.932794490     A.U. after    7 cycles
 SCF Done:  E(RB3LYP) =  -407.932794553     A.U. after    7 cycles
 Optimization completed.
    -- Stationary point found.

 1\1\GINC-NODE366\FOpt\RB3LYP\6-31G(d)\C9H17N1\VSC10255\08-Dec-2020\0\\
 # opt freq B3LYP/6-31G(d) empiricaldispersion=gd3bj scf=xqc\\CID_68361
 296_JID_549_neutraal\\0,1\C,-1.7550030961,-0.0538608745,-0.4298419148\
 C,-0.5459449322,-0.1432820972,0.4947190631\C,0.5461169281,0.9296578168
 ,0.2334032071\C,1.387426001,-0.1261152203,-0.5427519918\C,0.4857342487
 ,-1.2443976126,0.0968102688\C,1.102209431,-2.0011412042,1.2720658972\C
 ,0.1193242989,-2.9472425012,1.9682462807\N,-0.3551423866,-3.9914912242
 ,1.0510553354\C,2.8640266124,-0.1552304103,-0.3286672951\C,3.777092903

 Normal termination of Gaussian 16 at Tue Dec  8 12:42:29 2020.

 --------------------------------------------------------------------
 #N Geom=AllCheck Guess=TCheck SCRF=Check GenChk RB3LYP/6-31G(d) Freq
 --------------------------------------------------------------------

 Structure from the checkpoint file:  "JID_549.chk"
 -----------------------------
 CID_68361296_JID_549_neutraal
 -----------------------------
 Charge =  0 Multiplicity = 1

 SCF Done:  E(RB3LYP) =  -407.932794553     A.U. after    1 cycles

  Exact polarizability: 113.936  -9.868  98.999  -6.569  -0.636  86.583
 Approx polarizability: 144.013 -13.204 130.432 -12.806   1.401 133.798

                      1                      2                      3
                      A                      A                      A
 Frequencies --     49.8491                60.1272                84.1687
 Red. masses --      3.4207                 2.6436                 2.6995
 Frc consts  --      0.0050                 0.0056                 0.0113
 IR Inten    --      0.9507                 0.0676                 0.7489

                      4                      5                      6
                      A                      A                      A
 Frequencies --    126.1099               157.6133               207.1949
 Red. masses --      3.0980                 2.1037                 2.4827
 Frc consts  --      0.0290                 0.0308                 0.0628
 IR Inten    --      1.8429                 8.9358                 0.3181

                      7                      8                      9
                      A                      A                      A
 Frequencies --    247.0815               254.2406               265.7078
 Red. masses --      1.2451                 1.5614                 1.2224
 Frc consts  --      0.0448                 0.0595                 0.0508
 IR Inten    --     13.8545                 0.1624                41.8339

                     10                     11                     12
                      A                      A                      A
 Frequencies --    302.5712               338.9190               385.3662
 Red. masses --      2.5120                 2.1249                 2.0512
 Frc consts  --      0.1355                 0.1438                 0.1795
 IR Inten    --      3.2043                 3.7037                 0.4826

                     13                     14                     15
                      A                      A                      A
 Frequencies --    425.3831               491.4779               511.4534
 Red. masses --      2.3599                 2.5961                 2.6391
 Frc consts  --      0.2516                 0.3695                 0.4067
 IR Inten    --      5.0362                 2.4841                 7.6219

                     16                     17                     18
                      A                      A                      A
 Frequencies --    663.5419               728.2642               776.9817
 Red. masses --      1.9467                 2.0582                 1.8384
 Frc consts  --      0.5050                 0.6431                 0.6539
 IR Inten    --      4.3469                 1.1905                 1.0356

                     19                     20                     21
                      A                      A                      A
 Frequencies --    820.0517               864.1687               887.6119
 Red. masses --      2.1038                 1.6822                 1.4014
 Frc consts  --      0.8336                 0.7401                 0.6505
 IR Inten    --      4.6580                57.2936                50.9164

                     22                     23                     24
                      A                      A                      A
 Frequencies --    911.0575               922.2792               936.1839
 Red. masses --      2.2661                 1.7224                 1.3594
 Frc consts  --      1.1082                 0.8632                 0.7019
 IR Inten    --      0.7788                14.1656                36.0471

                     25                     26                     27
                      A                      A                      A
 Frequencies --    939.3949               967.5308              1009.8324
 Red. masses --      1.9283                 1.9201                 1.3751
 Frc consts  --      1.0026                 1.0590                 0.8262
 IR Inten    --      2.3340                 1.3253                 1.6158

                     28                     29                     30
                      A                      A                      A
 Frequencies --   1028.0681              1039.6848              1059.4436
 Red. masses --      1.6563                 1.1350                 1.6134
 Frc consts  --      1.0314                 0.7228                 1.0670
 IR Inten    --     12.6848                10.8166                 0.9193

                     31                     32                     33
                      A                      A                      A
 Frequencies --   1071.7920              1110.9978              1115.3382
 Red. masses --      2.1660                 1.7364                 2.3633
 Frc consts  --      1.4660                 1.2628                 1.7321
 IR Inten    --      3.8562                 0.7146                 3.1802

                     34                     35                     36
                      A                      A                      A
 Frequencies --   1153.4241              1159.2987              1196.4969
 Red. masses --      2.1200                 1.3093                 1.6442
 Frc consts  --      1.6617                 1.0368                 1.3868
 IR Inten    --      5.6319                 1.0469                 2.6129

                     37                     38                     39
                      A                      A                      A
 Frequencies --   1219.9518              1246.4153              1267.3335
 Red. masses --      1.5601                 1.5118                 1.5598
 Frc consts  --      1.3680                 1.3838                 1.4760
 IR Inten    --      0.4514                 2.2671                 0.1970

                     40                     41                     42
                      A                      A                      A
 Frequencies --   1279.7782              1290.3581              1307.9571
 Red. masses --      1.4016                 1.4370                 1.3573
 Frc consts  --      1.3525                 1.4097                 1.3680
 IR Inten    --      0.6579                 0.8723                 0.7703

                     43                     44                     45
                      A                      A                      A
 Frequencies --   1335.6593              1342.0876              1364.4242
 Red. masses --      1.2852                 1.3070                 1.3640
 Frc consts  --      1.3509                 1.3870                 1.4961
 IR Inten    --      3.4232                 1.7112                 1.6026

                     46                     47                     48
                      A                      A                      A
 Frequencies --   1371.9004              1386.1513              1418.9943
 Red. masses --      1.1496                 1.4428                 1.5616
 Frc consts  --      1.2748                 1.6334                 1.8526
 IR Inten    --      7.6317                 1.8901                 2.2305

                     49                     50                     51
                      A                      A                      A
 Frequencies --   1439.3732              1445.1963              1484.4866
 Red. masses --      1.2614                 1.4158                 1.2314
 Frc consts  --      1.5397                 1.7423                 1.5989
 IR Inten    --      3.1429                17.8380                 1.5757

                     52                     53                     54
                      A                      A                      A
 Frequencies --   1507.3654              1516.2279              1525.8419
 Red. masses --      1.0943                 1.0991                 1.0465
 Frc consts  --      1.4649                 1.4887                 1.4355
 IR Inten    --      2.3961                 4.8114                 2.9636

                     55                     56                     57
                      A                      A                      A
 Frequencies --   1528.9660              1538.0116              1699.3664
 Red. masses --      1.0533                 1.0859                 1.0879
 Frc consts  --      1.4507                 1.5134                 1.8511
 IR Inten    --      2.3143                 3.3257                36.3615

                     58                     59                     60
                      A                      A                      A
 Frequencies --   1728.4467              2952.0397              3030.6897
 Red. masses --      4.4759                 1.0736                 1.0650
 Frc consts  --      7.8784                 5.5121                 5.7633
 IR Inten    --      7.3092                73.1711                17.8238

                     61                     62                     63
                      A                      A                      A
 Frequencies --   3033.9660              3048.7613              3051.9904
 Red. masses --      1.0361                 1.0829                 1.0823
 Frc consts  --      5.6194                 5.9307                 5.9394
 IR Inten    --     22.1067                40.2807                16.8635

                     64                     65                     66
                      A                      A                      A
 Frequencies --   3064.4747              3067.9661              3072.7881
 Red. masses --      1.0645                 1.0835                 1.0881
 Frc consts  --      5.8896                 6.0087                 6.0530
 IR Inten    --     42.4619                10.1985                52.5354

                     67                     68                     69
                      A                      A                      A
 Frequencies --   3087.7735              3097.2050              3104.1424
 Red. masses --      1.0992                 1.1020                 1.1020
 Frc consts  --      6.1746                 6.2286                 6.2564
 IR Inten    --     41.9600                37.7718                48.0542

                     70                     71                     72
                      A                      A                      A
 Frequencies --   3113.0702              3143.6432              3156.4151
 Red. masses --      1.1072                 1.0783                 1.0704
 Frc consts  --      6.3221                 6.2786                 6.2831
 IR Inten    --     41.7270                27.4777                 7.1002

                     73                     74                     75
                      A                      A                      A
 Frequencies --   3233.9782              3470.4905              3552.3463
 Red. masses --      1.1156                 1.0500                 1.0920
 Frc consts  --      6.8746                 7.4508                 8.1188
 IR Inten    --     22.5675                 2.2250                 1.0592

 - Thermochemistry -
 -------------------
 Temperature   298.150 Kelvin.  Pressure   1.00000 Atm.
 Atom     1 has atomic number  6 and mass  12.00000

 Molecular mass:   139.13610 amu.
 Principal axes and moments of inertia in atomic units:
                           1         2         3
     Eigenvalues --  1169.945741974.291482738.62456
           X            0.99990  -0.01373  -0.00401
           Y            0.01365   0.99971  -0.01962
           Z            0.00428   0.01957   0.99980
 This molecule is an asymmetric top.
 Rotational symmetry number  1.
 Warning -- assumption of classical behavior for rotation
           may cause significant error
 Rotational temperatures (Kelvin)      0.07403     0.04387     0.03163
 Rotational constants (GHZ):           1.54259     0.91412     0.65900
 Zero-point vibrational energy     650737.1 (Joules/Mol)
                                  155.52989 (Kcal/Mol)
 Warning -- explicit consideration of  15 degrees of freedom as
           vibrations may cause significant error
 Vibrational temperatures:     71.72    86.51   121.10   181.44   226.77
          (Kelvin)            298.11   355.50   365.80   382.29   435.33
                              487.63   554.46   612.03   707.13   735.87
                              954.69  1047.81  1117.90  1179.87  1243.35
                             1277.08  1310.81  1326.95  1346.96  1351.58
                             1392.06  1452.92  1479.16  1495.87  1524.30
                             1542.07  1598.48  1604.72  1659.52  1667.97
                             1721.49  1755.24  1793.31  1823.41  1841.32
                             1856.54  1881.86  1921.72  1930.96  1963.10
                             1973.86  1994.36  2041.62  2070.94  2079.32
                             2135.85  2168.76  2181.51  2195.35  2199.84
                             2212.86  2445.01  2486.85  4247.33  4360.49
                             4365.20  4386.49  4391.13  4409.10  4414.12
                             4421.06  4442.62  4456.19  4466.17  4479.01
                             4523.00  4541.38  4652.97  4993.26  5111.03

 Zero-point correction=                           0.247853 (Hartree/Particle)
 Thermal correction to Energy=                    0.259424
 Thermal correction to Enthalpy=                  0.260368
 Thermal correction to Gibbs Free Energy=         0.210204
 Sum of electronic and zero-point Energies=           -407.684942
 Sum of electronic and thermal Energies=              -407.673371
 Sum of electronic and thermal Enthalpies=            -407.672427
 Sum of electronic and thermal Free Energies=         -407.722591

                     E (Thermal)             CV                S
                      KCal/Mol        Cal/Mol-Kelvin    Cal/Mol-Kelvin
 Total                  162.791             43.043            105.579
 Electronic               0.000              0.000              0.000
 Translational            0.889              2.981             40.703
 Rotational               0.889              2.981             30.226
 Vibrational            161.013             37.081             34.650
 Vibration     1          0.595              1.978              4.823
 Vibration     2          0.597              1.973              4.453
 Vibration     3          0.601              1.960              3.791
 Vibration     4          0.611              1.927              3.005
 Vibration     5          0.621              1.894              2.578
 Vibration     6          0.641              1.830              2.068
 Vibration     7          0.661              1.768              1.751
 Vibration     8          0.665              1.756              1.701
 Vibration     9          0.672              1.736              1.624
 Vibration    10          0.694              1.669              1.403
 Vibration    11          0.719              1.598              1.217
 Vibration    12          0.754              1.501              1.018
 Vibration    13          0.787              1.415              0.874
 Vibration    14          0.847              1.269              0.680
 Vibration    15          0.867              1.225              0.630

 Optimization completed.
    -- Stationary point found.

 1\1\GINC-NODE366\Freq\RB3LYP\6-31G(d)\C9H17N1\VSC10255\08-Dec-2020\0\\
 #N Geom=AllCheck Guess=TCheck SCRF=Check GenChk RB3LYP/6-31G(d) Freq\\
 CID_68361296_JID_549_neutraal\\0,1\C,-1.7550030961,-0.0538608745,-0.42
 98419148\C,-0.5459449322,-0.1432820972,0.4947190631\C,0.5461169281,0.9
 296578168,0.2334032071\C,1.387426001,-0.1261152203,-0.5427519918\C,0.4
 857342487,-1.2443976126,0.0968102688\C,1.102209431,-2.0011412042,1.272
 0658972\C,0.1193242989,-2.9472425012,1.9682462807\N,-0.3551423866,-3.9
 914912242,1.0510553354\C,2.8640266124,-0.1552304103,-0.3286672951\C,3.

 Normal termination of Gaussian 16 at Tue Dec  8 13:04:43 2020.

 ----------------------------------------------------------------------
 # B3LYP/6-311++G(d,p) empiricaldispersion=gd3bj scf=xqc pop=npa geom=c
 heck
 ----------------------------------------------------------------------

 -------------------------------------
 CID_68361296_JID_549_Energie_neutraal
 -------------------------------------
 Structure from the checkpoint file:  "JID_549.chk"
 Charge =  0 Multiplicity = 1

 SCF Done:  E(RB3LYP) =  -408.055355216     A.U. after   13 cycles
 Normal termination of Gaussian 16 at Tue Dec  8 13:08:32 2020.

 ----------------------------------------------------------------------
 # B3LYP/6-311++G(d,p) empiricaldispersion=gd3bj scf=xqc pop=npa geom=c
 heck
 ----------------------------------------------------------------------

 -----------------------------------
 CID_68361296_JID_549_Energie_kation
 -----------------------------------
 Structure from the checkpoint file:  "JID_549.chk"
 Charge =  1 Multiplicity = 2

 SCF Done:  E(UB3LYP) =  -407.739860941     A.U. after   22 cycles
 Normal termination of Gaussian 16 at Tue Dec  8 13:23:25 2020.
 Gaussian 16:  ES64L-G16RevA.03 25-Dec-2016

 ----------------------------------
 CID_68361296_JID_549_Energie_anion
 ----------------------------------
 Structure from the checkpoint file:  "JID_549.chk"
 Charge = -1 Multiplicity = 2

                         Standard orientation:
 ---------------------------------------------------------------------
 Center     Atomic      Atomic             Coordinates (Angstroms)
 Number     Number       Type             X           Y           Z
 ---------------------------------------------------------------------
      1          6           0       -0.661706    2.589794   -0.558096
      2          6           0       -0.324188    1.454552    0.402080
      3          6           0        1.174505    1.371819    0.801030
      4          6           0        1.376281    0.217432   -0.224422
      5          6           0       -0.187057    0.057461   -0.279449
      6          6           0       -0.762637   -1.107734    0.523643
      7          6           0       -2.293135   -1.108046    0.582084
      8          7           0       -2.877306   -1.245389   -0.758324
      9          6           0        2.224528   -0.944798    0.171467
     10          6           0        3.214647   -1.453873   -0.563564
     11          1           0       -0.585377    3.566060   -0.064504
     12          1           0        0.019525    2.598273   -1.418169
     13          1           0       -1.683101    2.487993   -0.946325
     14          1           0       -1.018595    1.474969    1.250691
     15          1           0        1.781509    2.271278    0.652359
     16          1           0        1.314318    1.028829    1.831679
     17          1           0        1.736016    0.615568   -1.179519
     18          1           0       -0.571663    0.010849   -1.305542
     19          1           0       -0.427064   -2.053087    0.080780
     20          1           0       -0.379890   -1.077271    1.553438
     21          1           0       -2.620237   -1.971459    1.173417
     22          1           0       -2.636891   -0.208792    1.125442
     23          1           0       -3.884180   -1.376347   -0.678568
     24          1           0       -2.752200   -0.377080   -1.275686
     25          1           0        2.004186   -1.391814    1.141566
     26          1           0        3.805226   -2.300997   -0.225326
     27          1           0        3.472126   -1.038887   -1.536117
 ---------------------------------------------------------------------

 SCF Done:  E(UB3LYP) =  -408.038634241     A.U. after   33 cycles
 SCF Done:  E(UB3LYP) =  -408.038634240     a.u. after    1 cycles

 The electronic state is 2-A.
 Alpha  occ. eigenvalues --  -14.17992 -10.08107 -10.07981 -10.07473 -10.07196
 Alpha  occ. eigenvalues --  -10.06655 -10.06477 -10.06240 -10.05722 -10.05096
 Alpha  occ. eigenvalues --   -0.77356  -0.75275  -0.67992  -0.63974  -0.61001
 Alpha  occ. eigenvalues --   -0.54980  -0.53132  -0.48559  -0.46670  -0.41757
 Alpha  occ. eigenvalues --   -0.39732  -0.37381  -0.36680  -0.35330  -0.33698
 Alpha  occ. eigenvalues --   -0.31562  -0.31298  -0.30090  -0.27719  -0.27484
 Alpha  occ. eigenvalues --   -0.26381  -0.25535  -0.24628  -0.23387  -0.20516
 Alpha  occ. eigenvalues --   -0.19497  -0.18772  -0.16098  -0.13319   0.04789
 Alpha virt. eigenvalues --    0.06907   0.07115   0.07694   0.08784   0.09088
 Alpha virt. eigenvalues --    0.09726   0.09892   0.10079   0.11450   0.12112
 Alpha virt. eigenvalues --    0.12337   0.12469   0.13300   0.13604   0.14366

  Beta  occ. eigenvalues --  -14.17947 -10.08102 -10.07952 -10.07467 -10.07188
  Beta  occ. eigenvalues --  -10.06649 -10.06464 -10.06222 -10.05715 -10.05055
  Beta  occ. eigenvalues --   -0.77289  -0.75244  -0.67975  -0.63926  -0.60953
  Beta  occ. eigenvalues --   -0.54922  -0.53082  -0.48497  -0.46625  -0.41712
  Beta  occ. eigenvalues --   -0.39687  -0.37340  -0.36636  -0.35267  -0.33661
  Beta  occ. eigenvalues --   -0.31531  -0.31255  -0.30043  -0.27683  -0.27446
  Beta  occ. eigenvalues --   -0.26348  -0.25506  -0.24578  -0.23355  -0.20482
  Beta  occ. eigenvalues --   -0.19469  -0.18749  -0.16086  -0.13269
  Beta virt. eigenvalues --    0.06858   0.07662   0.07784   0.08380   0.08943
  Beta virt. eigenvalues --    0.09584   0.10162   0.10503   0.10722   0.11741
  Beta virt. eigenvalues --    0.12468   0.12833   0.13177   0.13697   0.13925

 Mulliken charges and spin densities:
               1          2
     1  C    1.870087  -2.615110
     2  C   -1.888858   2.155706
     3  C    0.472418  -1.156160
     4  C   -0.154217   0.021779
     5  C    1.302353  -1.012305
     6  C   -1.281958   0.931945
     7  C    1.552016  -2.237221
     8  N   -0.484036   0.129905
     9  C   -0.046544   0.322282
    10  C    0.110203  -0.786551
    11  H   -0.369582   0.502776
    12  H   -0.316502   0.458142
    13  H   -0.332476   0.482344
    14  H   -0.169743   0.392300
    15  H   -0.231850   0.397263
    16  H   -0.219954   0.353991
    17  H    0.039475   0.163311
    18  H    0.037543   0.158906
    19  H    0.128045   0.034085
    20  H    0.150085  -0.014549
    21  H   -0.409780   0.573556
    22  H   -0.349904   0.464279
    23  H   -0.276638   0.521310
    24  H    0.053176   0.174771
    25  H   -0.217476   0.389805
    26  H    0.067602   0.052882
    27  H   -0.033485   0.140554
 Sum of Mulliken charges =  -1.00000   1.00000

 Dipole moment (field-independent basis, Debye):
    X=              5.8865    Y=             -2.2416    Z=              0.0675  Tot=              6.2993
 Quadrupole moment (field-independent basis, Debye-Ang):
   XX=           -128.2534   YY=           -114.3731   ZZ=            -97.1538
   XY=             -4.7177   XZ=             -3.5799   YZ=              0.0559

 Summary of Natural Population Analysis:

                                       Natural Population
                Natural  -----------------------------------------------
    Atom  No    Charge         Core      Valence    Rydberg      Total
 -----------------------------------------------------------------------
      C    1   -0.28215      0.99965     2.27627    0.00624     3.28215
      C    2   -0.11112      0.99959     2.09999    0.01153     3.11112
      C    3   -0.17940      0.99961     2.17092    0.00887     3.17940
      C    4   -0.12693      0.99957     2.11458    0.01278     3.12693
      C    5   -0.09558      0.99957     2.08457    0.01145     3.09558
      C    6   -0.19456      0.99960     2.18502    0.00994     3.19456
      C    7   -0.08673      0.99964     2.07518    0.01191     3.08673
      N    8   -0.42531      0.99977     2.91446    0.01108     3.92531
      C    9   -0.07535      0.99955     2.06607    0.00973     3.07535
      C   10   -0.19515      0.99957     2.18916    0.00643     3.19515
      H   11    0.09966      0.00000     0.39906    0.00128     0.40034
      H   12    0.09435      0.00000     0.40413    0.00152     0.40565
      H   13    0.10220      0.00000     0.39595    0.00185     0.39780
      H   14    0.09615      0.00000     0.40156    0.00230     0.40385
      H   15    0.09778      0.00000     0.40111    0.00112     0.40222
      H   16    0.09749      0.00000     0.40098    0.00153     0.40251
      H   17    0.09808      0.00000     0.39979    0.00213     0.40192
      H   18    0.09728      0.00000     0.40071    0.00201     0.40272
      H   19    0.10106      0.00000     0.39747    0.00147     0.39894
      H   20    0.09480      0.00000     0.40347    0.00173     0.40520
      H   21    0.08961      0.00000     0.40911    0.00128     0.41039
      H   22    0.07983      0.00000     0.41749    0.00268     0.42017
      H   23    0.17813      0.00000     0.31851    0.00336     0.32187
      H   24    0.17345      0.00000     0.32409    0.00246     0.32655
      H   25    0.09290      0.00000     0.40574    0.00137     0.40710
      H   26    0.09051      0.00000     0.40845    0.00104     0.40949
      H   27    0.08900      0.00000     0.40971    0.00129     0.41100
 =======================================================================
   * Total *    0.00000      9.99612    28.87352    0.13036    39.00000

 Normal termination of Gaussian 16 at Tue Dec  8 13:34:09 2020.
