 Gaussian 16, Revision A.03,

 -----------------------------------------------------------
 # opt freq B3LYP/6-31G(d) empiricaldispersion=gd3bj scf=xqc
 -----------------------------------------------------------

 ---------------------------
 CID_118093_JID_548_neutraal
 ---------------------------
 Symbolic Z-matrix:
 Charge =  0 Multiplicity = 1

 SCF Done:  E(RB3LYP) =  -549.216650280     A.U. after   15 cycles
 SCF Done:  E(RB3LYP) =  -549.224776958     A.U. after   13 cycles
 SCF Done:  E(RB3LYP) =  -549.225099064     A.U. after   13 cycles
 SCF Done:  E(RB3LYP) =  -549.225318435     A.U. after   13 cycles
 SCF Done:  E(RB3LYP) =  -549.225432973     A.U. after   11 cycles
 SCF Done:  E(RB3LYP) =  -549.225483652     A.U. after   12 cycles
 SCF Done:  E(RB3LYP) =  -549.225517801     A.U. after   12 cycles
 SCF Done:  E(RB3LYP) =  -549.225553524     A.U. after   12 cycles
 SCF Done:  E(RB3LYP) =  -549.225593895     A.U. after   12 cycles
 SCF Done:  E(RB3LYP) =  -549.225631544     A.U. after   12 cycles
 SCF Done:  E(RB3LYP) =  -549.225646053     A.U. after   11 cycles
 SCF Done:  E(RB3LYP) =  -549.225650287     A.U. after   10 cycles
 SCF Done:  E(RB3LYP) =  -549.225653299     A.U. after   10 cycles
 SCF Done:  E(RB3LYP) =  -549.225653856     A.U. after    9 cycles
 SCF Done:  E(RB3LYP) =  -549.225653978     A.U. after    8 cycles
 Optimization completed.
    -- Stationary point found.
 Normal termination of Gaussian 16 at Tue Dec  8 12:51:20 2020.

 --------------------------------------------------------------------
 #N Geom=AllCheck Guess=TCheck SCRF=Check GenChk RB3LYP/6-31G(d) Freq
 --------------------------------------------------------------------

 Structure from the checkpoint file:  "JID_548.chk"
 ---------------------------
 CID_118093_JID_548_neutraal
 ---------------------------
 Charge =  0 Multiplicity = 1

 SCF Done:  E(RB3LYP) =  -549.225653978     A.U. after    1 cycles

  Exact polarizability:  90.736   7.261  57.851  -0.650  -1.314  47.379
 Approx polarizability: 132.512  17.100  89.221  -4.821  -2.904  72.830

                      1                      2                      3
                      A                      A                      A
 Frequencies --     28.6799                60.3042               128.8159
 Red. masses --      5.8476                 4.7101                 2.3876
 Frc consts  --      0.0028                 0.0101                 0.0233
 IR Inten    --      2.9186                 8.1726                 4.5816

                      4                      5                      6
                      A                      A                      A
 Frequencies --    143.5051               224.2547               296.7163
 Red. masses --      7.1735                 4.0458                 7.2584
 Frc consts  --      0.0870                 0.1199                 0.3765
 IR Inten    --      1.4748                 8.2355                 8.2701

                      7                      8                      9
                      A                      A                      A
 Frequencies --    330.8971               436.6317               475.2059
 Red. masses --      9.0800                 9.2317                 3.6922
 Frc consts  --      0.5858                 1.0370                 0.4912
 IR Inten    --      2.7468                 8.2046                 5.0145

                     10                     11                     12
                      A                      A                      A
 Frequencies --    543.7891               592.8751               609.0857
 Red. masses --      3.1235                 1.3679                 4.6445
 Frc consts  --      0.5442                 0.2833                 1.0152
 IR Inten    --      1.8600                99.3208                 9.9075

                     13                     14                     15
                      A                      A                      A
 Frequencies --    635.5740               689.6673               731.3833
 Red. masses --      8.5145                 4.8533                 5.6596
 Frc consts  --      2.0265                 1.3601                 1.7837
 IR Inten    --      4.6828                51.8935                17.7186

                     16                     17                     18
                      A                      A                      A
 Frequencies --    833.4656               910.7546               958.4011
 Red. masses --      4.4988                 3.2311                 4.0549
 Frc consts  --      1.8413                 1.5791                 2.1945
 IR Inten    --      6.1949                32.4608               134.9106

                     19                     20                     21
                      A                      A                      A
 Frequencies --   1032.4589              1058.1489              1091.5736
 Red. masses --      1.5632                 3.2349                 3.5124
 Frc consts  --      0.9818                 2.1341                 2.4658
 IR Inten    --      0.7258                96.9678               185.7034

                     22                     23                     24
                      A                      A                      A
 Frequencies --   1162.0765              1206.2998              1243.3145
 Red. masses --      1.8098                 2.4760                 5.1468
 Frc consts  --      1.4400                 2.1228                 4.6876
 IR Inten    --     20.7977                 8.9231               317.8037

                     25                     26                     27
                      A                      A                      A
 Frequencies --   1266.2726              1289.6911              1307.7125
 Red. masses --      2.2831                 1.6255                 1.4599
 Frc consts  --      2.1569                 1.5930                 1.4710
 IR Inten    --    101.3066                15.8852                15.7794

                     28                     29                     30
                      A                      A                      A
 Frequencies --   1350.4634              1441.8065              1490.0175
 Red. masses --      1.3551                 1.1881                 1.0909
 Frc consts  --      1.4561                 1.4552                 1.4270
 IR Inten    --      0.8120                 5.9304                10.5135

                     31                     32                     33
                      A                      A                      A
 Frequencies --   1516.8309              1843.2053              1891.7436
 Red. masses --      1.7881                 7.5359                13.1144
 Frc consts  --      2.4238                15.0845                27.6517
 IR Inten    --     38.0914               503.7877               546.1204

                     34                     35                     36
                      A                      A                      A
 Frequencies --   1961.3437              2960.2003              3063.4148
 Red. masses --     12.9355                 1.0860                 1.0827
 Frc consts  --     29.3185                 5.6067                 5.9866
 IR Inten    --     92.2790                79.3626                 5.4100

                     37                     38                     39
                      A                      A                      A
 Frequencies --   3079.9518              3155.9159              3582.0858
 Red. masses --      1.0686                 1.0975                 1.0764
 Frc consts  --      5.9723                 6.4402                 8.1373
 IR Inten    --      1.7368                 1.8103                25.8146

 - Thermochemistry -
 -------------------
 Temperature   298.150 Kelvin.  Pressure   1.00000 Atm.
 Atom     1 has atomic number  6 and mass  12.00000

 Molecular mass:   143.02186 amu.
 Principal axes and moments of inertia in atomic units:
                           1         2         3
     Eigenvalues --   584.733772369.713742866.68553
           X            0.99999   0.00258   0.00385
           Y           -0.00257   0.99999  -0.00215
           Z           -0.00385   0.00214   0.99999
 This molecule is an asymmetric top.
 Rotational symmetry number  1.
 Warning -- assumption of classical behavior for rotation
           may cause significant error
 Rotational temperatures (Kelvin)      0.14813     0.03655     0.03021
 Rotational constants (GHZ):           3.08643     0.76159     0.62956
 Zero-point vibrational energy     278876.6 (Joules/Mol)
                                   66.65312 (Kcal/Mol)
 Warning -- explicit consideration of  12 degrees of freedom as
           vibrations may cause significant error
 Vibrational temperatures:     41.26    86.76   185.34   206.47   322.65
          (Kelvin)            426.91   476.09   628.22   683.72   782.39
                              853.02   876.34   914.45   992.28  1052.30
                             1199.17  1310.37  1378.93  1485.48  1522.44
                             1570.53  1671.97  1735.60  1788.85  1821.88
                             1855.58  1881.51  1943.02  2074.44  2143.80
                             2182.38  2651.96  2721.80  2821.94  4259.07
                             4407.57  4431.36  4540.66  5153.82

 Zero-point correction=                           0.106219 (Hartree/Particle)
 Thermal correction to Energy=                    0.115167
 Thermal correction to Enthalpy=                  0.116111
 Thermal correction to Gibbs Free Energy=         0.070418
 Sum of electronic and zero-point Energies=           -549.119435
 Sum of electronic and thermal Energies=              -549.110487
 Sum of electronic and thermal Enthalpies=            -549.109543
 Sum of electronic and thermal Free Energies=         -549.155236

                     E (Thermal)             CV                S
                      KCal/Mol        Cal/Mol-Kelvin    Cal/Mol-Kelvin
 Total                   72.268             31.283             96.169
 Electronic               0.000              0.000              0.000
 Translational            0.889              2.981             40.785
 Rotational               0.889              2.981             29.764
 Vibrational             70.491             25.322             25.621
 Vibration     1          0.593              1.984              5.919
 Vibration     2          0.597              1.973              4.447
 Vibration     3          0.611              1.924              2.964
 Vibration     4          0.616              1.910              2.757
 Vibration     5          0.649              1.804              1.924
 Vibration     6          0.690              1.680              1.435
 Vibration     7          0.713              1.614              1.256
 Vibration     8          0.797              1.390              0.837
 Vibration     9          0.832              1.305              0.723
 Vibration    10          0.899              1.153              0.557
 Vibration    11          0.950              1.047              0.462
 Vibration    12          0.968              1.013              0.434

 Optimization completed.
    -- Stationary point found.
 Normal termination of Gaussian 16 at Tue Dec  8 13:05:28 2020.

 ----------------------------------------------------------------------
 # B3LYP/6-311++G(d,p) empiricaldispersion=gd3bj scf=xqc pop=npa geom=c
 heck
 ----------------------------------------------------------------------

 -----------------------------------
 CID_118093_JID_548_Energie_neutraal
 -----------------------------------
 Structure from the checkpoint file:  "JID_548.chk"
 Charge =  0 Multiplicity = 1

 SCF Done:  E(RB3LYP) =  -549.395802979     A.U. after   14 cycles
 Normal termination of Gaussian 16 at Tue Dec  8 13:08:32 2020.

 ----------------------------------------------------------------------
 # B3LYP/6-311++G(d,p) empiricaldispersion=gd3bj scf=xqc pop=npa geom=c
 heck
 ----------------------------------------------------------------------

 ---------------------------------
 CID_118093_JID_548_Energie_kation
 ---------------------------------
 Structure from the checkpoint file:  "JID_548.chk"
 Charge =  1 Multiplicity = 2

 SCF Done:  E(UB3LYP) =  -549.020745781     A.U. after   30 cycles
 Normal termination of Gaussian 16 at Tue Dec  8 13:17:25 2020.
 Gaussian 16:  ES64L-G16RevA.03 25-Dec-2016

 ----------------------------------------------------------------------
 # B3LYP/6-311++G(d,p) empiricaldispersion=gd3bj scf=xqc pop=npa geom=c
 heck
 ----------------------------------------------------------------------

 --------------------------------
 CID_118093_JID_548_Energie_anion
 --------------------------------
 Structure from the checkpoint file:  "JID_548.chk"
 Charge = -1 Multiplicity = 2

                         Standard orientation:
 ---------------------------------------------------------------------
 Center     Atomic      Atomic             Coordinates (Angstroms)
 Number     Number       Type             X           Y           Z
 ---------------------------------------------------------------------
      1          6           0       -0.837283   -1.264135   -0.098853
      2          6           0        0.229808   -0.239795    0.312377
      3          6           0       -0.477003    1.103794    0.062180
      4          8           0        0.009987    2.186603   -0.062706
      5          8           0       -1.842821    0.882007   -0.000703
      6          6           0       -2.136918   -0.483872   -0.026265
      7          8           0       -3.262393   -0.880066   -0.009246
      8          7           0        1.508114   -0.336489   -0.331326
      9          6           0        2.704764   -0.390593    0.340302
     10          8           0        3.792366   -0.352819   -0.191903
     11          1           0       -0.686822   -1.590662   -1.135039
     12          1           0       -0.885424   -2.156825    0.527015
     13          1           0        0.402432   -0.298927    1.394774
     14          1           0        1.574299   -0.139533   -1.324152
     15          1           0        2.561388   -0.496823    1.434704
 ---------------------------------------------------------------------

 SCF Done:  E(UB3LYP) =  -549.402103790     A.U. after   28 cycles

 The electronic state is 2-A.
 Alpha  occ. eigenvalues --  -19.06392 -19.00075 -18.99528 -18.98575 -14.24077
 Alpha  occ. eigenvalues --  -10.18489 -10.16984 -10.16295 -10.12427 -10.08282
 Alpha  occ. eigenvalues --   -1.00861  -0.94560  -0.94268  -0.90517  -0.83306
 Alpha  occ. eigenvalues --   -0.68852  -0.58438  -0.52962  -0.52041  -0.46491
 Alpha  occ. eigenvalues --   -0.41451  -0.38553  -0.37438  -0.36044  -0.33902
 Alpha  occ. eigenvalues --   -0.32692  -0.32008  -0.31697  -0.30807  -0.28971
 Alpha  occ. eigenvalues --   -0.27278  -0.25109  -0.20809  -0.19537  -0.16865
 Alpha  occ. eigenvalues --   -0.15802  -0.15086   0.04473
 Alpha virt. eigenvalues --    0.07780   0.08599   0.09939   0.10663   0.11005
 Alpha virt. eigenvalues --    0.11902   0.12694   0.14278   0.15510   0.15832
 Alpha virt. eigenvalues --    0.15897   0.17359   0.18336   0.19050   0.19960

  Beta  occ. eigenvalues --  -19.06457 -18.99910 -18.99514 -18.98260 -14.24044
  Beta  occ. eigenvalues --  -10.18320 -10.16958 -10.15962 -10.12429 -10.08231
  Beta  occ. eigenvalues --   -1.00663  -0.94383  -0.93994  -0.90183  -0.83246
  Beta  occ. eigenvalues --   -0.68722  -0.58059  -0.52823  -0.51813  -0.46224
  Beta  occ. eigenvalues --   -0.41119  -0.38385  -0.37099  -0.35707  -0.33698
  Beta  occ. eigenvalues --   -0.32454  -0.31816  -0.31333  -0.30157  -0.28836
  Beta  occ. eigenvalues --   -0.27147  -0.24348  -0.19970  -0.19405  -0.16758
  Beta  occ. eigenvalues --   -0.15678  -0.14886
  Beta virt. eigenvalues --    0.08300   0.09032   0.10359   0.10588   0.11037
  Beta virt. eigenvalues --    0.11731   0.12901   0.13230   0.14448   0.15547
  Beta virt. eigenvalues --    0.15717   0.16063   0.17489   0.18360   0.19222

 Mulliken charges and spin densities:
               1          2
     1  C    1.573130  -1.750065
     2  C   -1.326167   0.996923
     3  C    0.869359  -0.636703
     4  O   -0.381767   0.111424
     5  O   -0.122832  -0.000614
     6  C    0.149587   0.004705
     7  O   -0.368188   0.074690
     8  N    0.120765  -0.101152
     9  C    0.401941  -0.220665
    10  O   -0.398011   0.010120
    11  H   -0.540687   0.733396
    12  H   -0.262740   0.459218
    13  H   -0.717831   0.940930
    14  H    0.226386   0.059953
    15  H   -0.222944   0.317840
 Sum of Mulliken charges =  -1.00000   1.00000

 Dipole moment (field-independent basis, Debye):
    X=              0.2952    Y=             -0.0115    Z=             -0.9883  Tot=              1.0315
 Quadrupole moment (field-independent basis, Debye-Ang):
   XX=           -110.0334   YY=            -84.5788   ZZ=            -74.8111
   XY=             -1.5229   XZ=              0.3906   YZ=              1.3381

 Summary of Natural Population Analysis:

                                       Natural Population
                Natural  -----------------------------------------------
    Atom  No    Charge         Core      Valence    Rydberg      Total
 -----------------------------------------------------------------------
      C    1   -0.24788      0.99959     2.23889    0.00940     3.24788
      C    2   -0.06615      0.99956     2.05173    0.01485     3.06615
      C    3    0.43829      0.99968     1.53536    0.02666     2.56171
      O    4   -0.25862      0.99986     3.25235    0.00640     4.25862
      O    5   -0.28715      0.99985     3.28011    0.00719     4.28715
      C    6    0.42844      0.99970     1.54570    0.02617     2.57156
      O    7   -0.27151      0.99986     3.26482    0.00682     4.27151
      N    8   -0.31084      0.99969     2.80038    0.01077     3.81084
      C    9    0.28079      0.99974     1.69698    0.02250     2.71921
      O   10   -0.31392      0.99988     3.30770    0.00634     4.31392
      H   11    0.12085      0.00000     0.37523    0.00392     0.37915
      H   12    0.11749      0.00000     0.38068    0.00183     0.38251
      H   13    0.12163      0.00000     0.37036    0.00801     0.37837
      H   14    0.19613      0.00000     0.30144    0.00243     0.30387
      H   15    0.05243      0.00000     0.44557    0.00199     0.44757
 =======================================================================
   * Total *   -0.00000      9.99741    26.84731    0.15528    37.00000

 Normal termination of Gaussian 16 at Tue Dec  8 13:23:41 2020.
