 Gaussian 16, Revision A.03,

 -----------------------------------------------------------
 # opt freq B3LYP/6-31G(d) empiricaldispersion=gd3bj scf=xqc
 -----------------------------------------------------------

 -------------------------------
 CID_153288693_JID_4984_neutraal
 -------------------------------
 Symbolic Z-matrix:
 Charge =  0 Multiplicity = 1

 SCF Done:  E(RB3LYP) =  -629.572435600     A.U. after   14 cycles
 SCF Done:  E(RB3LYP) =  -629.576239724     A.U. after   12 cycles
 SCF Done:  E(RB3LYP) =  -629.576835094     A.U. after   12 cycles
 SCF Done:  E(RB3LYP) =  -629.576932541     A.U. after   11 cycles
 SCF Done:  E(RB3LYP) =  -629.576963794     A.U. after   10 cycles
 SCF Done:  E(RB3LYP) =  -629.576973817     A.U. after    9 cycles
 SCF Done:  E(RB3LYP) =  -629.576976052     A.U. after    9 cycles
 SCF Done:  E(RB3LYP) =  -629.576976606     A.U. after    8 cycles
 Optimization completed.
    -- Stationary point found.
 Normal termination of Gaussian 16 at Thu Dec 10 10:59:51 2020.

 --------------------------------------------------------------------
 #N Geom=AllCheck Guess=TCheck SCRF=Check GenChk RB3LYP/6-31G(d) Freq
 --------------------------------------------------------------------

 Structure from the checkpoint file:  "JID_4984.chk"
 -------------------------------
 CID_153288693_JID_4984_neutraal
 -------------------------------
 Charge =  0 Multiplicity = 1

 SCF Done:  E(RB3LYP) =  -629.576976606     A.U. after    1 cycles

  Exact polarizability: 197.245   6.298 122.833  -1.886   0.042  76.985
 Approx polarizability: 262.346  17.298 217.149  -3.843   3.199 114.138

                      1                      2                      3
                      A                      A                      A
 Frequencies --     38.0792                58.2362                70.8655
 Red. masses --      3.5719                 4.3994                 4.3788
 Frc consts  --      0.0031                 0.0088                 0.0130
 IR Inten    --      0.2237                 1.3564                 0.3744

                      4                      5                      6
                      A                      A                      A
 Frequencies --    121.8391               160.6139               224.8370
 Red. masses --      5.0148                 3.8292                 3.6690
 Frc consts  --      0.0439                 0.0582                 0.1093
 IR Inten    --      0.6479                 1.6911                 0.5721

                      7                      8                      9
                      A                      A                      A
 Frequencies --    234.3924               257.5865               278.7618
 Red. masses --      1.1841                 2.5824                 1.8098
 Frc consts  --      0.0383                 0.1010                 0.0829
 IR Inten    --      0.2684                 0.4619                 5.7537

                     10                     11                     12
                      A                      A                      A
 Frequencies --    288.0378               316.6859               330.1562
 Red. masses --      1.6965                 1.9152                 1.7006
 Frc consts  --      0.0829                 0.1132                 0.1092
 IR Inten    --      2.9254                50.1556                54.3065

                     13                     14                     15
                      A                      A                      A
 Frequencies --    333.8192               358.6424               370.5853
 Red. masses --      1.0441                 3.5610                 2.0994
 Frc consts  --      0.0686                 0.2699                 0.1699
 IR Inten    --      0.0238                 2.6260                20.9741

                     16                     17                     18
                      A                      A                      A
 Frequencies --    402.6738               418.9846               427.4735
 Red. masses --      1.5706                 3.1926                 3.3411
 Frc consts  --      0.1500                 0.3302                 0.3597
 IR Inten    --     37.7063                 3.0718                 1.5864

                     19                     20                     21
                      A                      A                      A
 Frequencies --    444.5816               463.0112               495.6333
 Red. masses --      2.0007                 2.9081                 3.8877
 Frc consts  --      0.2330                 0.3673                 0.5627
 IR Inten    --     17.9088                12.6235                 0.5906

                     22                     23                     24
                      A                      A                      A
 Frequencies --    575.0164               579.8438               629.5530
 Red. masses --      3.0385                 3.3137                 1.9534
 Frc consts  --      0.5919                 0.6564                 0.4561
 IR Inten    --     18.5559                 6.2817                72.0573

                     25                     26                     27
                      A                      A                      A
 Frequencies --    655.6939               739.2702               747.6174
 Red. masses --      6.8504                 3.3244                 3.1525
 Frc consts  --      1.7353                 1.0705                 1.0382
 IR Inten    --     21.0690                75.2072                93.6961

                     28                     29                     30
                      A                      A                      A
 Frequencies --    797.4997               834.6376               866.8400
 Red. masses --      5.5546                 3.1432                 3.2963
 Frc consts  --      2.0815                 1.2901                 1.4593
 IR Inten    --     10.9199                12.6456                 7.8054

                     31                     32                     33
                      A                      A                      A
 Frequencies --    876.3638               940.7563               953.6947
 Red. masses --      1.5246                 1.7776                 1.7062
 Frc consts  --      0.6899                 0.9269                 0.9143
 IR Inten    --     24.6767                 0.5288                 1.1914

                     34                     35                     36
                      A                      A                      A
 Frequencies --    956.3337               961.1000               974.9385
 Red. masses --      4.0031                 1.7717                 1.2019
 Frc consts  --      2.1571                 0.9642                 0.6731
 IR Inten    --    122.8356                34.2028                 0.1675

                     37                     38                     39
                      A                      A                      A
 Frequencies --    996.2342              1042.4362              1059.4759
 Red. masses --      1.3104                 3.2277                 1.4683
 Frc consts  --      0.7663                 2.0665                 0.9710
 IR Inten    --      0.2666                 8.3521                 2.2743

                     40                     41                     42
                      A                      A                      A
 Frequencies --   1063.8124              1123.9553              1156.1150
 Red. masses --      1.3952                 2.4059                 2.1558
 Frc consts  --      0.9303                 1.7907                 1.6977
 IR Inten    --      0.0050                41.3508                 1.6488

                     43                     44                     45
                      A                      A                      A
 Frequencies --   1174.9987              1208.0166              1242.3782
 Red. masses --      1.3348                 2.0478                 2.6240
 Frc consts  --      1.0858                 1.7607                 2.3863
 IR Inten    --      9.9048                23.0405                 0.4281

                     46                     47                     48
                      A                      A                      A
 Frequencies --   1243.1312              1309.4143              1317.2134
 Red. masses --      2.7030                 3.7246                 5.4235
 Frc consts  --      2.4611                 3.7625                 5.5443
 IR Inten    --      3.1274                11.6353                13.7751

                     49                     50                     51
                      A                      A                      A
 Frequencies --   1337.6429              1367.0882              1414.4243
 Red. masses --      1.6491                 1.5021                 2.0280
 Frc consts  --      1.7386                 1.6541                 2.3904
 IR Inten    --     36.2083                76.8673                 7.1624

                     52                     53                     54
                      A                      A                      A
 Frequencies --   1427.4381              1433.9542              1456.4231
 Red. masses --      1.2117                 1.4466                 1.9368
 Frc consts  --      1.4547                 1.7525                 2.4205
 IR Inten    --      4.0642                21.1023                 4.7382

                     55                     56                     57
                      A                      A                      A
 Frequencies --   1461.1506              1512.9337              1516.4650
 Red. masses --      1.3011                 1.0494                 1.0456
 Frc consts  --      1.6366                 1.4152                 1.4166
 IR Inten    --      2.7146                 0.0005                 0.1224

                     58                     59                     60
                      A                      A                      A
 Frequencies --   1519.4148              1534.1397              1538.7306
 Red. masses --      1.0758                 1.0758                 1.0501
 Frc consts  --      1.4634                 1.4919                 1.4649
 IR Inten    --      2.2526                11.6808                 5.6583

                     61                     62                     63
                      A                      A                      A
 Frequencies --   1546.2849              1551.2882              1604.6355
 Red. masses --      2.0984                 1.1643                 5.4761
 Frc consts  --      2.9562                 1.6508                 8.3075
 IR Inten    --     20.7916                25.1177                20.6695

                     64                     65                     66
                      A                      A                      A
 Frequencies --   1651.6667              1656.8725              1722.0796
 Red. masses --      2.2545                 1.8645                 4.8307
 Frc consts  --      3.6236                 3.0158                 8.4405
 IR Inten    --     18.2514                55.6748                83.2416

                     67                     68                     69
                      A                      A                      A
 Frequencies --   3046.3283              3047.3649              3054.5953
 Red. masses --      1.0346                 1.0347                 1.0359
 Frc consts  --      5.6570                 5.6610                 5.6950
 IR Inten    --     25.6767                24.4059                22.0304

                     70                     71                     72
                      A                      A                      A
 Frequencies --   3113.5288              3114.6829              3120.2099
 Red. masses --      1.1024                 1.1026                 1.1034
 Frc consts  --      6.2963                 6.3022                 6.3292
 IR Inten    --      3.9192                 4.3438                 6.4016

                     73                     74                     75
                      A                      A                      A
 Frequencies --   3122.1799              3123.8044              3125.5938
 Red. masses --      1.1015                 1.1022                 1.1021
 Frc consts  --      6.3264                 6.3370                 6.3438
 IR Inten    --     96.8719                39.4976                35.0405

                     76                     77                     78
                      A                      A                      A
 Frequencies --   3193.8177              3201.3712              3220.0178
 Red. masses --      1.0882                 1.0890                 1.0936
 Frc consts  --      6.5399                 6.5759                 6.6808
 IR Inten    --     15.9635                23.4886                 5.8631

                     79                     80                     81
                      A                      A                      A
 Frequencies --   3549.7065              3652.7940              3782.5843
 Red. masses --      1.0468                 1.0987                 1.0679
 Frc consts  --      7.7712                 8.6372                 9.0021
 IR Inten    --     22.4097                20.4043               100.5883

 - Thermochemistry -
 -------------------
 Temperature   298.150 Kelvin.  Pressure   1.00000 Atm.
 Atom     1 has atomic number  6 and mass  12.00000

 Molecular mass:   193.12151 amu.
 Principal axes and moments of inertia in atomic units:
                           1         2         3
     Eigenvalues --   908.492795950.605086396.94230
           X            0.99998  -0.00547   0.00201
           Y            0.00548   0.99997  -0.00496
           Z           -0.00198   0.00497   0.99999
 This molecule is an asymmetric top.
 Rotational symmetry number  1.
 Warning -- assumption of classical behavior for rotation
           may cause significant error
 Rotational temperatures (Kelvin)      0.09534     0.01456     0.01354
 Rotational constants (GHZ):           1.98652     0.30329     0.28213
 Zero-point vibrational energy     645044.7 (Joules/Mol)
                                  154.16938 (Kcal/Mol)
 Warning -- explicit consideration of  23 degrees of freedom as
           vibrations may cause significant error
 Vibrational temperatures:     54.79    83.79   101.96   175.30   231.09
          (Kelvin)            323.49   337.24   370.61   401.08   414.42
                              455.64   475.02   480.29   516.01   533.19
                              579.36   602.83   615.04   639.65   666.17
                              713.11   827.32   834.27   905.79   943.40
                             1063.64  1075.65  1147.42  1200.86  1247.19
                             1260.89  1353.54  1372.15  1375.95  1382.81
                             1402.72  1433.36  1499.83  1524.35  1530.59
                             1617.12  1663.39  1690.56  1738.07  1787.51
                             1788.59  1883.96  1895.18  1924.57  1966.93
                             2035.04  2053.77  2063.14  2095.47  2102.27
                             2176.77  2181.85  2186.10  2207.28  2213.89
                             2224.76  2231.96  2308.71  2376.38  2383.87
                             2477.69  4382.99  4384.48  4394.88  4479.67
                             4481.33  4489.29  4492.12  4494.46  4497.03
                             4595.19  4606.06  4632.89  5107.24  5255.56
                             5442.30

 Zero-point correction=                           0.245685 (Hartree/Particle)
 Thermal correction to Energy=                    0.259824
 Thermal correction to Enthalpy=                  0.260768
 Thermal correction to Gibbs Free Energy=         0.205160
 Sum of electronic and zero-point Energies=           -629.331292
 Sum of electronic and thermal Energies=              -629.317152
 Sum of electronic and thermal Enthalpies=            -629.316208
 Sum of electronic and thermal Free Energies=         -629.371816

                     E (Thermal)             CV                S
                      KCal/Mol        Cal/Mol-Kelvin    Cal/Mol-Kelvin
 Total                  163.042             54.944            117.037
 Electronic               0.000              0.000              0.000
 Translational            0.889              2.981             41.680
 Rotational               0.889              2.981             31.914
 Vibrational            161.265             48.982             43.443
 Vibration     1          0.594              1.982              5.357
 Vibration     2          0.596              1.974              4.516
 Vibration     3          0.598              1.968              4.129
 Vibration     4          0.609              1.931              3.071
 Vibration     5          0.622              1.891              2.543
 Vibration     6          0.649              1.803              1.920
 Vibration     7          0.654              1.788              1.845
 Vibration     8          0.667              1.750              1.678
 Vibration     9          0.679              1.713              1.541
 Vibration    10          0.685              1.696              1.485
 Vibration    11          0.704              1.642              1.327
 Vibration    12          0.713              1.615              1.259
 Vibration    13          0.715              1.608              1.242
 Vibration    14          0.733              1.557              1.128
 Vibration    15          0.743              1.533              1.077
 Vibration    16          0.768              1.464              0.953
 Vibration    17          0.782              1.429              0.895
 Vibration    18          0.789              1.410              0.867
 Vibration    19          0.804              1.373              0.812
 Vibration    20          0.821              1.332              0.757
 Vibration    21          0.851              1.260              0.669
 Vibration    22          0.931              1.085              0.495
 Vibration    23          0.936              1.075              0.486

 Optimization completed.
    -- Stationary point found.
 Normal termination of Gaussian 16 at Thu Dec 10 11:08:10 2020.

 ----------------------------------------------------------------------
 # B3LYP/6-311++G(d,p) empiricaldispersion=gd3bj scf=xqc pop=npa geom=c
 heck
 ----------------------------------------------------------------------

 ---------------------------------------
 CID_153288693_JID_4984_Energie_neutraal
 ---------------------------------------
 Structure from the checkpoint file:  "JID_4984.chk"
 Charge =  0 Multiplicity = 1

 SCF Done:  E(RB3LYP) =  -629.763692389     A.U. after   15 cycles
 Normal termination of Gaussian 16 at Thu Dec 10 11:12:01 2020.

 ----------------------------------------------------------------------
 # B3LYP/6-311++G(d,p) empiricaldispersion=gd3bj scf=xqc pop=npa geom=c
 heck
 ----------------------------------------------------------------------

 -------------------------------------
 CID_153288693_JID_4984_Energie_kation
 -------------------------------------
 Structure from the checkpoint file:  "JID_4984.chk"
 Charge =  1 Multiplicity = 2

 SCF Done:  E(UB3LYP) =  -629.469388057     A.U. after   25 cycles
 Normal termination of Gaussian 16 at Thu Dec 10 11:21:18 2020.
 Gaussian 16:  ES64L-G16RevA.03 25-Dec-2016

 ----------------------------------------------------------------------
 # B3LYP/6-311++G(d,p) empiricaldispersion=gd3bj scf=xqc pop=npa geom=c
 heck
 ----------------------------------------------------------------------

 ------------------------------------
 CID_153288693_JID_4984_Energie_anion
 ------------------------------------
 Structure from the checkpoint file:  "JID_4984.chk"
 Charge = -1 Multiplicity = 2

                         Standard orientation:
 ---------------------------------------------------------------------
 Center     Atomic      Atomic             Coordinates (Angstroms)
 Number     Number       Type             X           Y           Z
 ---------------------------------------------------------------------
      1          6           0        3.546464    0.859766   -1.068255
      2          6           0        2.980254   -0.089749    0.009885
      3          6           0        3.488721   -1.511623   -0.281162
      4          6           0        3.503368    0.339583    1.398036
      5          6           0        1.451786   -0.007432    0.001497
      6          6           0        0.619594   -1.110490   -0.239320
      7          7           0       -0.715315   -1.074264   -0.264183
      8          6           0       -1.317575    0.099218   -0.027919
      9          6           0       -0.590464    1.269515    0.232877
     10          6           0        0.797074    1.207004    0.242758
     11          6           0       -2.802172    0.136543   -0.052615
     12          7           0       -3.446989   -0.927554    0.291898
     13          8           0       -4.846144   -0.680422    0.192449
     14          7           0       -3.401271    1.351959   -0.358257
     15          1           0        4.642003    0.820351   -1.071331
     16          1           0        3.250056    1.898639   -0.889990
     17          1           0        3.190935    0.574694   -2.064475
     18          1           0        4.583859   -1.518739   -0.265962
     19          1           0        3.141379   -2.229160    0.469978
     20          1           0        3.167617   -1.864339   -1.267248
     21          1           0        3.207207    1.364575    1.643946
     22          1           0        3.114781   -0.319628    2.181776
     23          1           0        4.598357    0.292612    1.422001
     24          1           0        1.049889   -2.088402   -0.433777
     25          1           0       -1.109118    2.197081    0.450267
     26          1           0        1.368956    2.107152    0.449393
     27          1           0       -5.213465   -1.539119    0.447177
     28          1           0       -2.939874    1.877555   -1.090490
     29          1           0       -4.400701    1.265106   -0.501745
 ---------------------------------------------------------------------

 SCF Done:  E(UB3LYP) =  -629.756591359     A.U. after   33 cycles
 SCF Done:  E(UB3LYP) =  -629.756591359     a.u. after    1 cycles

 The electronic state is 2-A.
 Alpha  occ. eigenvalues --  -19.04381 -14.21312 -14.20939 -14.16569 -10.10919
 Alpha  occ. eigenvalues --  -10.08310 -10.07597 -10.07401 -10.05649 -10.05447
 Alpha  occ. eigenvalues --  -10.05447 -10.05279 -10.05252 -10.05091  -0.95848
 Alpha  occ. eigenvalues --   -0.82451  -0.80076  -0.72481  -0.70693  -0.66549
 Alpha  occ. eigenvalues --   -0.63014  -0.58570  -0.58183  -0.53175  -0.50333
 Alpha  occ. eigenvalues --   -0.46095  -0.43819  -0.42482  -0.40282  -0.38271
 Alpha  occ. eigenvalues --   -0.35774  -0.34785  -0.33781  -0.33498  -0.32232
 Alpha  occ. eigenvalues --   -0.31978  -0.30058  -0.29163  -0.27727  -0.27381
 Alpha  occ. eigenvalues --   -0.26546  -0.26333  -0.26293  -0.23228  -0.22674
 Alpha  occ. eigenvalues --   -0.21924  -0.21253  -0.16496  -0.15954  -0.14044
 Alpha  occ. eigenvalues --   -0.12329  -0.10556   0.04707
 Alpha virt. eigenvalues --    0.06557   0.07220   0.08113   0.08751   0.09008
 Alpha virt. eigenvalues --    0.09430   0.09738   0.10677   0.11525   0.11705
 Alpha virt. eigenvalues --    0.12278   0.12372   0.13159   0.14251   0.14885

  Beta  occ. eigenvalues --  -19.04347 -14.21144 -14.20899 -14.16297 -10.10904
  Beta  occ. eigenvalues --  -10.08322 -10.07461 -10.07436 -10.05633 -10.05480
  Beta  occ. eigenvalues --  -10.05422 -10.05240 -10.05125 -10.04910  -0.95715
  Beta  occ. eigenvalues --   -0.82199  -0.79806  -0.72322  -0.70500  -0.66291
  Beta  occ. eigenvalues --   -0.62764  -0.58525  -0.58115  -0.52812  -0.50256
  Beta  occ. eigenvalues --   -0.45957  -0.43671  -0.42404  -0.40202  -0.38204
  Beta  occ. eigenvalues --   -0.35634  -0.34686  -0.33685  -0.33408  -0.32161
  Beta  occ. eigenvalues --   -0.31887  -0.29640  -0.29011  -0.27680  -0.27254
  Beta  occ. eigenvalues --   -0.26427  -0.26220  -0.25767  -0.23097  -0.22576
  Beta  occ. eigenvalues --   -0.21834  -0.21043  -0.16243  -0.15056  -0.13421
  Beta  occ. eigenvalues --   -0.12008  -0.09867
  Beta virt. eigenvalues --    0.06892   0.07303   0.08419   0.08980   0.09080
  Beta virt. eigenvalues --    0.09388   0.09672   0.09980   0.10798   0.11713
  Beta virt. eigenvalues --    0.11828   0.12321   0.12601   0.13391   0.14359

 Mulliken charges and spin densities:
               1          2
     1  C    0.474120  -1.105815
     2  C   -0.657913   1.152196
     3  C   -0.433192  -0.158892
     4  C    0.011880  -0.643955
     5  C    0.824488  -0.404844
     6  C   -0.694608   0.501683
     7  N    0.033069   0.143253
     8  C    0.657273  -0.738828
     9  C    0.344144  -0.752805
    10  C   -0.166336   0.054012
    11  C   -0.410851   0.254901
    12  N   -0.363854   0.036725
    13  O   -0.130451   0.025226
    14  N   -0.304199  -0.063012
    15  H   -0.362936   0.506046
    16  H   -0.119086   0.258373
    17  H    0.040569   0.101724
    18  H   -0.139504   0.284787
    19  H    0.091317   0.036507
    20  H    0.017186   0.115590
    21  H   -0.205988   0.347070
    22  H    0.111489   0.026417
    23  H   -0.017764   0.152484
    24  H    0.157361   0.027099
    25  H   -0.230807   0.423304
    26  H    0.037510   0.083540
    27  H    0.207757   0.058643
    28  H    0.128701   0.088815
    29  H    0.100624   0.189751
 Sum of Mulliken charges =  -1.00000   1.00000

 Dipole moment (field-independent basis, Debye):
    X=             -1.5216    Y=             -0.6040    Z=             -0.2676  Tot=              1.6588
 Quadrupole moment (field-independent basis, Debye-Ang):
   XX=           -157.8772   YY=           -109.5648   ZZ=           -104.6700
   XY=             -5.1140   XZ=              5.6335   YZ=             -3.4923

 Summary of Natural Population Analysis:

                                       Natural Population
                Natural  -----------------------------------------------
    Atom  No    Charge         Core      Valence    Rydberg      Total
 -----------------------------------------------------------------------
      C    1   -0.27864      0.99963     2.27201    0.00700     3.27864
      C    2   -0.05468      0.99956     2.04430    0.01082     3.05468
      C    3   -0.28538      0.99964     2.27821    0.00752     3.28538
      C    4   -0.27692      0.99963     2.27047    0.00682     3.27692
      C    5   -0.00171      0.99947     1.99044    0.01180     3.00171
      C    6    0.01250      0.99953     1.97533    0.01264     2.98750
      N    7   -0.18306      0.99968     2.67344    0.00994     3.68306
      C    8    0.09502      0.99949     1.89032    0.01517     2.90498
      C    9   -0.12376      0.99953     2.11532    0.00891     3.12376
      C   10   -0.06724      0.99952     2.05863    0.00909     3.06724
      C   11    0.18007      0.99961     1.80118    0.01914     2.81993
      N   12   -0.08693      0.99962     2.57415    0.01316     3.58693
      O   13   -0.31048      0.99990     3.30430    0.00628     4.31048
      N   14   -0.40855      0.99971     2.89897    0.00987     3.90855
      H   15    0.09741      0.00000     0.40117    0.00142     0.40259
      H   16    0.09932      0.00000     0.39962    0.00106     0.40068
      H   17    0.10061      0.00000     0.39855    0.00084     0.39939
      H   18    0.09873      0.00000     0.40047    0.00081     0.40127
      H   19    0.09937      0.00000     0.39980    0.00083     0.40063
      H   20    0.10099      0.00000     0.39817    0.00084     0.39901
      H   21    0.10070      0.00000     0.39833    0.00096     0.39930
      H   22    0.09920      0.00000     0.40004    0.00076     0.40080
      H   23    0.09496      0.00000     0.40421    0.00083     0.40504
      H   24    0.08600      0.00000     0.41228    0.00172     0.41400
      H   25    0.10364      0.00000     0.39509    0.00127     0.39636
      H   26    0.09548      0.00000     0.40301    0.00150     0.40452
      H   27    0.23218      0.00000     0.26447    0.00335     0.26782
      H   28    0.18641      0.00000     0.31207    0.00152     0.31359
      H   29    0.19476      0.00000     0.30332    0.00192     0.30524
 =======================================================================
   * Total *   -0.00000     13.99453    37.83766    0.16781    52.00000

 Normal termination of Gaussian 16 at Thu Dec 10 11:33:41 2020.
