 Gaussian 16, Revision A.03,

 -----------------------------------------------------------
 # opt freq B3LYP/6-31G(d) empiricaldispersion=gd3bj scf=xqc
 -----------------------------------------------------------

 --------------------------------
 CID_115987344_JID_10149_neutraal
 --------------------------------
 Symbolic Z-matrix:
 Charge =  0 Multiplicity = 1

 SCF Done:  E(RB3LYP) =  -1235.39444670     A.U. after   14 cycles
 SCF Done:  E(RB3LYP) =  -1235.40212754     A.U. after   12 cycles
 SCF Done:  E(RB3LYP) =  -1235.40193170     A.U. after   13 cycles
 SCF Done:  E(RB3LYP) =  -1235.40350377     A.U. after   13 cycles
 SCF Done:  E(RB3LYP) =  -1235.40482619     A.U. after   12 cycles
 SCF Done:  E(RB3LYP) =  -1235.40495478     A.U. after   12 cycles
 SCF Done:  E(RB3LYP) =  -1235.40518420     A.U. after   12 cycles
 SCF Done:  E(RB3LYP) =  -1235.40533583     A.U. after   12 cycles
 SCF Done:  E(RB3LYP) =  -1235.40542422     A.U. after   13 cycles
 SCF Done:  E(RB3LYP) =  -1235.40560602     A.U. after   11 cycles
 SCF Done:  E(RB3LYP) =  -1235.40664821     A.U. after   10 cycles
 SCF Done:  E(RB3LYP) =  -1235.40665255     A.U. after   10 cycles
 SCF Done:  E(RB3LYP) =  -1235.40665303     A.U. after    8 cycles
 SCF Done:  E(RB3LYP) =  -1235.40665308     A.U. after    7 cycles
 SCF Done:  E(RB3LYP) =  -1235.40665308     A.U. after    7 cycles
 Optimization completed.
    -- Stationary point found.
 Normal termination of Gaussian 16 at Sun Dec 13 21:29:34 2020.

 --------------------------------------------------------------------
 #N Geom=AllCheck Guess=TCheck SCRF=Check GenChk RB3LYP/6-31G(d) Freq
 --------------------------------------------------------------------

 Structure from the checkpoint file:  "JID_10149.chk"
 --------------------------------
 CID_115987344_JID_10149_neutraal
 --------------------------------
 Charge =  0 Multiplicity = 1

 SCF Done:  E(RB3LYP) =  -1235.40665308     A.U. after    1 cycles

  Exact polarizability: 254.329  12.347 189.109  13.530 -11.854 141.065
 Approx polarizability: 345.851  22.871 308.399  32.734 -31.055 220.926

                      1                      2                      3
                      A                      A                      A
 Frequencies --     10.2519                29.7884                40.0378
 Red. masses --      4.6346                 4.1350                 3.1660
 Frc consts  --      0.0003                 0.0022                 0.0030
 IR Inten    --      0.3030                 0.2127                 1.7175

                      4                      5                      6
                      A                      A                      A
 Frequencies --     57.4677                71.0743                87.6464
 Red. masses --      5.7590                 4.1480                 3.7676
 Frc consts  --      0.0112                 0.0123                 0.0171
 IR Inten    --      0.3577                 0.3500                 0.2126

                      7                      8                      9
                      A                      A                      A
 Frequencies --     88.6216               112.4589               124.6220
 Red. masses --      1.3789                 2.0791                 2.4446
 Frc consts  --      0.0064                 0.0155                 0.0224
 IR Inten    --      1.0658                 2.9795                 0.6829

                     10                     11                     12
                      A                      A                      A
 Frequencies --    155.5585               161.6489               181.8358
 Red. masses --      3.6466                 1.9087                 2.5350
 Frc consts  --      0.0520                 0.0294                 0.0494
 IR Inten    --      1.3253                 0.1520                 0.0282

                     13                     14                     15
                      A                      A                      A
 Frequencies --    200.0412               204.5460               223.2764
 Red. masses --      1.3486                 1.4161                 4.1656
 Frc consts  --      0.0318                 0.0349                 0.1224
 IR Inten    --      0.2293                 0.2558                 1.7829

                     16                     17                     18
                      A                      A                      A
 Frequencies --    230.3097               236.7928               251.8049
 Red. masses --      1.8541                 3.0713                 5.1154
 Frc consts  --      0.0579                 0.1015                 0.1911
 IR Inten    --      1.7102                 3.7167                 9.0232

                     19                     20                     21
                      A                      A                      A
 Frequencies --    256.1428               302.6415               335.5531
 Red. masses --      1.9616                 2.2635                 3.6924
 Frc consts  --      0.0758                 0.1221                 0.2450
 IR Inten    --      4.5255                 1.0971                 5.1560

                     22                     23                     24
                      A                      A                      A
 Frequencies --    345.0168               366.0882               381.4175
 Red. masses --      3.6418                 3.2024                 1.3505
 Frc consts  --      0.2554                 0.2529                 0.1158
 IR Inten    --      8.4737                19.1501               220.1030

                     25                     26                     27
                      A                      A                      A
 Frequencies --    387.3017               455.7520               473.7555
 Red. masses --      2.5312                 2.0645                 3.2858
 Frc consts  --      0.2237                 0.2526                 0.4345
 IR Inten    --      2.1112                 0.5046                 0.0791

                     28                     29                     30
                      A                      A                      A
 Frequencies --    508.2194               511.1849               535.9263
 Red. masses --      1.1943                 2.9513                 3.8078
 Frc consts  --      0.1817                 0.4544                 0.6444
 IR Inten    --     72.0994                 3.3404                 6.7042

                     31                     32                     33
                      A                      A                      A
 Frequencies --    545.5931               590.2764               613.9900
 Red. masses --      5.2997                 3.2485                 3.7675
 Frc consts  --      0.9295                 0.6669                 0.8368
 IR Inten    --      4.4464                 4.2886                 5.6211

                     34                     35                     36
                      A                      A                      A
 Frequencies --    624.4739               649.3108               666.0212
 Red. masses --      4.2264                 5.9284                 4.3481
 Frc consts  --      0.9711                 1.4726                 1.1364
 IR Inten    --      5.3533                 0.4995                 5.0450

                     37                     38                     39
                      A                      A                      A
 Frequencies --    691.3967               720.6240               741.7991
 Red. masses --     10.6927                 5.2737                 6.9753
 Frc consts  --      3.0116                 1.6135                 2.2614
 IR Inten    --      3.4318                 2.3835                20.4940

                     40                     41                     42
                      A                      A                      A
 Frequencies --    764.5838               777.1867               817.4636
 Red. masses --      3.0256                 2.6496                 3.5792
 Frc consts  --      1.0421                 0.9429                 1.4092
 IR Inten    --      8.6338                14.0615                20.3913

                     43                     44                     45
                      A                      A                      A
 Frequencies --    839.8429               845.4357               860.7825
 Red. masses --      1.7599                 1.7515                 1.8068
 Frc consts  --      0.7314                 0.7376                 0.7888
 IR Inten    --      6.2508                 2.6060                 0.2580

                     46                     47                     48
                      A                      A                      A
 Frequencies --    873.9245               924.6098               967.9468
 Red. masses --      4.7642                 1.9922                 2.9748
 Frc consts  --      2.1438                 1.0035                 1.6422
 IR Inten    --     35.8643                 1.7830                26.2661

                     49                     50                     51
                      A                      A                      A
 Frequencies --    983.8576               988.3041               998.2457
 Red. masses --      1.8030                 1.2124                 2.4105
 Frc consts  --      1.0283                 0.6977                 1.4153
 IR Inten    --     16.3094                 4.2692                 5.2836

                     52                     53                     54
                      A                      A                      A
 Frequencies --   1017.3355              1026.4985              1061.9259
 Red. masses --      1.6427                 2.2156                 2.3361
 Frc consts  --      1.0017                 1.3755                 1.5522
 IR Inten    --      3.9818                 4.3526                14.0754

                     55                     56                     57
                      A                      A                      A
 Frequencies --   1073.2415              1095.1339              1109.9749
 Red. masses --      1.8028                 3.0145                 2.5522
 Frc consts  --      1.2234                 2.1301                 1.8526
 IR Inten    --     13.8030                42.3835                 6.1700

                     58                     59                     60
                      A                      A                      A
 Frequencies --   1113.4161              1131.7634              1162.5631
 Red. masses --      1.4858                 2.1580                 1.3840
 Frc consts  --      1.0853                 1.6286                 1.1021
 IR Inten    --      7.6301                12.7168                 2.0035

                     61                     62                     63
                      A                      A                      A
 Frequencies --   1166.8414              1180.8080              1222.3480
 Red. masses --      1.2951                 2.0414                 1.4674
 Frc consts  --      1.0389                 1.6770                 1.2918
 IR Inten    --      0.0476                20.5304                 9.6519

                     64                     65                     66
                      A                      A                      A
 Frequencies --   1229.3421              1260.2194              1273.1566
 Red. masses --      1.4948                 3.5095                 1.3914
 Frc consts  --      1.3310                 3.2839                 1.3288
 IR Inten    --      1.9179                43.6268                21.5796

                     67                     68                     69
                      A                      A                      A
 Frequencies --   1304.0627              1308.8431              1323.5777
 Red. masses --      1.7264                 5.3581                 1.3612
 Frc consts  --      1.7297                 5.4079                 1.4050
 IR Inten    --     18.1927                13.0152                 5.4126

                     70                     71                     72
                      A                      A                      A
 Frequencies --   1337.3903              1341.1661              1361.6776
 Red. masses --      2.7838                 2.3489                 1.2350
 Frc consts  --      2.9337                 2.4893                 1.3491
 IR Inten    --      1.2811                 7.8404                30.4443

                     73                     74                     75
                      A                      A                      A
 Frequencies --   1380.0736              1385.9770              1396.5165
 Red. masses --      1.4052                 1.3116                 2.1587
 Frc consts  --      1.5769                 1.4844                 2.4804
 IR Inten    --     36.0451                 2.1897                32.2522

                     76                     77                     78
                      A                      A                      A
 Frequencies --   1401.0122              1416.3284              1433.4536
 Red. masses --      1.4843                 1.4553                 5.9280
 Frc consts  --      1.7166                 1.7200                 7.1767
 IR Inten    --     26.4134                16.7260                70.2076

                     79                     80                     81
                      A                      A                      A
 Frequencies --   1442.2208              1466.4476              1488.7153
 Red. masses --      1.2478                 1.3675                 1.1842
 Frc consts  --      1.5292                 1.7327                 1.5463
 IR Inten    --      4.8355                10.0423                 1.3473

                     82                     83                     84
                      A                      A                      A
 Frequencies --   1489.0845              1494.3009              1498.4317
 Red. masses --      3.1468                 3.2718                 1.0725
 Frc consts  --      4.1111                 4.3044                 1.4187
 IR Inten    --     18.8795                83.3278                 3.0422

                     85                     86                     87
                      A                      A                      A
 Frequencies --   1506.1343              1513.2739              1514.5768
 Red. masses --      1.1813                 1.0490                 1.0696
 Frc consts  --      1.5789                 1.4154                 1.4456
 IR Inten    --     17.3094                 8.6168                 6.1157

                     88                     89                     90
                      A                      A                      A
 Frequencies --   1516.7254              1525.2210              1527.6711
 Red. masses --      1.0651                 1.5338                 1.1130
 Frc consts  --      1.4436                 2.1023                 1.5304
 IR Inten    --     22.5470                18.8832                 3.7881

                     91                     92                     93
                      A                      A                      A
 Frequencies --   1531.5710              1538.0961              1544.5769
 Red. masses --      1.0614                 1.0737                 1.0512
 Frc consts  --      1.4669                 1.4966                 1.4775
 IR Inten    --      0.6477                15.2621                 8.8235

                     94                     95                     96
                      A                      A                      A
 Frequencies --   1550.0904              1555.0667              1615.8365
 Red. masses --      1.0771                 2.0442                 4.1063
 Frc consts  --      1.5248                 2.9125                 6.3168
 IR Inten    --      3.3275                15.8176               131.8746

                     97                     98                     99
                      A                      A                      A
 Frequencies --   1641.8964              1678.0467              2893.9746
 Red. masses --      5.8880                 1.6496                 1.0798
 Frc consts  --      9.3520                 2.7368                 5.3283
 IR Inten    --    280.0245               389.7664                49.1352

                    100                    101                    102
                      A                      A                      A
 Frequencies --   2967.3228              3049.4742              3057.6954
 Red. masses --      1.0610                 1.0390                 1.0315
 Frc consts  --      5.5040                 5.6924                 5.6820
 IR Inten    --     61.1769                21.4399                39.6678

                    103                    104                    105
                      A                      A                      A
 Frequencies --   3066.1981              3072.7219              3093.7973
 Red. masses --      1.0629                 1.0328                 1.0654
 Frc consts  --      5.8879                 5.7451                 6.0080
 IR Inten    --     10.2424                52.4484                17.0426

                    106                    107                    108
                      A                      A                      A
 Frequencies --   3097.0861              3101.5007              3108.8287
 Red. masses --      1.0819                 1.0676                 1.0889
 Frc consts  --      6.1141                 6.0506                 6.2006
 IR Inten    --     29.8051                17.3729                47.3958

                    109                    110                    111
                      A                      A                      A
 Frequencies --   3113.1183              3132.1595              3137.6080
 Red. masses --      1.0958                 1.0991                 1.1046
 Frc consts  --      6.2572                 6.3528                 6.4068
 IR Inten    --     11.2309                57.1084                14.0153

                    112                    113                    114
                      A                      A                      A
 Frequencies --   3138.7246              3145.0278              3148.8987
 Red. masses --      1.1065                 1.1019                 1.1035
 Frc consts  --      6.4226                 6.4215                 6.4470
 IR Inten    --     16.0973                33.1125                22.8318

                    115                    116                    117
                      A                      A                      A
 Frequencies --   3151.7239              3159.6492              3179.3248
 Red. masses --      1.1046                 1.0996                 1.1037
 Frc consts  --      6.4647                 6.4678                 6.5731
 IR Inten    --      6.4713                 5.7240                 2.0169

                    118                    119                    120
                      A                      A                      A
 Frequencies --   3251.8282              3586.4923              3706.0382
 Red. masses --      1.0956                 1.0462                 1.1024
 Frc consts  --      6.8261                 7.9288                 8.9208
 IR Inten    --      9.2178                56.9970                30.4386

 - Thermochemistry -
 -------------------
 Temperature   298.150 Kelvin.  Pressure   1.00000 Atm.
 Atom     1 has atomic number  6 and mass  12.00000

 Molecular mass:   294.16267 amu.
 Principal axes and moments of inertia in atomic units:
                           1         2         3
     Eigenvalues --  2962.34288********************
           X            0.99990   0.00508  -0.01323
           Y           -0.00512   0.99998  -0.00312
           Z            0.01322   0.00319   0.99991
 This molecule is an asymmetric top.
 Rotational symmetry number  1.
 Warning -- assumption of classical behavior for rotation
           may cause significant error
 Rotational temperatures (Kelvin)      0.02924     0.00766     0.00707
 Rotational constants (GHZ):           0.60923     0.15951     0.14739
 Zero-point vibrational energy     941008.1 (Joules/Mol)
                                  224.90634 (Kcal/Mol)
 Warning -- explicit consideration of  33 degrees of freedom as
           vibrations may cause significant error
 Vibrational temperatures:     14.75    42.86    57.61    82.68   102.26
          (Kelvin)            126.10   127.51   161.80   179.30   223.81
                              232.58   261.62   287.81   294.30   321.24
                              331.36   340.69   362.29   368.53   435.43
                              482.79   496.40   526.72   548.77   557.24
                              655.73   681.63   731.21   735.48   771.08
                              784.99   849.28   883.39   898.48   934.21
                              958.26   994.77  1036.82  1067.28  1100.07
                             1118.20  1176.15  1208.35  1216.39  1238.47
                             1257.38  1330.31  1392.66  1415.55  1421.95
                             1436.25  1463.72  1476.90  1527.87  1544.16
                             1575.65  1597.01  1601.96  1628.36  1672.67
                             1678.82  1698.92  1758.69  1768.75  1813.17
                             1831.79  1876.26  1883.13  1904.33  1924.21
                             1929.64  1959.15  1985.62  1994.11  2009.28
                             2015.74  2037.78  2062.42  2075.03  2109.89
                             2141.93  2142.46  2149.97  2155.91  2166.99
                             2177.26  2179.14  2182.23  2194.45  2197.98
                             2203.59  2212.98  2222.30  2230.23  2237.39
                             2324.83  2362.32  2414.33  4163.78  4269.32
                             4387.51  4399.34  4411.58  4420.96  4451.28
                             4456.02  4462.37  4472.91  4479.08  4506.48
                             4514.32  4515.92  4524.99  4530.56  4534.63
                             4546.03  4574.34  4678.66  5160.16  5332.16

 Zero-point correction=                           0.358411 (Hartree/Particle)
 Thermal correction to Energy=                    0.379654
 Thermal correction to Enthalpy=                  0.380598
 Thermal correction to Gibbs Free Energy=         0.306339
 Sum of electronic and zero-point Energies=          -1235.048242
 Sum of electronic and thermal Energies=             -1235.026999
 Sum of electronic and thermal Enthalpies=           -1235.026055
 Sum of electronic and thermal Free Energies=        -1235.100314

                     E (Thermal)             CV                S
                      KCal/Mol        Cal/Mol-Kelvin    Cal/Mol-Kelvin
 Total                  238.237             78.864            156.292
 Electronic               0.000              0.000              0.000
 Translational            0.889              2.981             42.934
 Rotational               0.889              2.981             34.372
 Vibrational            236.459             72.902             78.986
 Vibration     1          0.593              1.987              7.962
 Vibration     2          0.594              1.984              5.843
 Vibration     3          0.594              1.981              5.257
 Vibration     4          0.596              1.975              4.542
 Vibration     5          0.598              1.968              4.123
 Vibration     6          0.601              1.958              3.712
 Vibration     7          0.601              1.957              3.690
 Vibration     8          0.607              1.939              3.226
 Vibration     9          0.610              1.928              3.027
 Vibration    10          0.620              1.896              2.603
 Vibration    11          0.622              1.889              2.530
 Vibration    12          0.630              1.864              2.309
 Vibration    13          0.638              1.840              2.133
 Vibration    14          0.640              1.833              2.092
 Vibration    15          0.649              1.806              1.932
 Vibration    16          0.652              1.795              1.877
 Vibration    17          0.656              1.784              1.827
 Vibration    18          0.664              1.760              1.718
 Vibration    19          0.666              1.752              1.688
 Vibration    20          0.694              1.669              1.402
 Vibration    21          0.717              1.604              1.233
 Vibration    22          0.723              1.585              1.189
 Vibration    23          0.739              1.542              1.096
 Vibration    24          0.751              1.510              1.034
 Vibration    25          0.756              1.497              1.011
 Vibration    26          0.814              1.348              0.779
 Vibration    27          0.831              1.308              0.727
 Vibration    28          0.863              1.232              0.638
 Vibration    29          0.866              1.225              0.631
 Vibration    30          0.891              1.171              0.574
 Vibration    31          0.901              1.149              0.553
 Vibration    32          0.948              1.053              0.467
 Vibration    33          0.973              1.002              0.426

                           ! Non-Optimized Parameters !
 Normal termination of Gaussian 16 at Sun Dec 13 21:50:58 2020.

 ----------------------------------------------------------------------
 # B3LYP/6-311++G(d,p) empiricaldispersion=gd3bj scf=xqc pop=npa geom=c
 heck
 ----------------------------------------------------------------------

 ----------------------------------------
 CID_115987344_JID_10149_Energie_neutraal
 ----------------------------------------
 Structure from the checkpoint file:  "JID_10149.chk"
 Charge =  0 Multiplicity = 1

 SCF Done:  E(RB3LYP) =  -1235.66118092     A.U. after   16 cycles
 Normal termination of Gaussian 16 at Sun Dec 13 22:00:33 2020.

 ----------------------------------------------------------------------
 # B3LYP/6-311++G(d,p) empiricaldispersion=gd3bj scf=xqc pop=npa geom=c
 heck
 ----------------------------------------------------------------------

 --------------------------------------
 CID_115987344_JID_10149_Energie_kation
 --------------------------------------
 Structure from the checkpoint file:  "JID_10149.chk"
 Charge =  1 Multiplicity = 2

 SCF Done:  E(UB3LYP) =  -1235.39565767     A.U. after   24 cycles
 Normal termination of Gaussian 16 at Sun Dec 13 22:20:15 2020.
 Gaussian 16:  ES64L-G16RevA.03 25-Dec-2016

 ----------------------------------------------------------------------
 # B3LYP/6-311++G(d,p) empiricaldispersion=gd3bj scf=xqc pop=npa geom=c
 heck
 ----------------------------------------------------------------------

 -------------------------------------
 CID_115987344_JID_10149_Energie_anion
 -------------------------------------
 Structure from the checkpoint file:  "JID_10149.chk"
 Charge = -1 Multiplicity = 2

                         Standard orientation:
 ---------------------------------------------------------------------
 Center     Atomic      Atomic             Coordinates (Angstroms)
 Number     Number       Type             X           Y           Z
 ---------------------------------------------------------------------
      1          6           0       -3.533429    0.362433    2.613038
      2          6           0       -2.944745    1.198107    1.471970
      3          6           0       -1.921779    0.443577    0.602493
      4          6           0       -2.532910   -0.814084   -0.038527
      5         16           0       -3.802559   -0.542927   -1.341111
      6          6           0       -5.355182   -0.662982   -0.386490
      7          7           0       -1.335565    1.347145   -0.401496
      8          6           0       -0.682448    2.517345    0.179687
      9          6           0       -0.490949    0.713052   -1.423287
     10          6           0        0.776506    0.075443   -0.885897
     11          7           0        0.679287   -1.219171   -0.498148
     12          6           0        1.740644   -1.816867    0.056180
     13          6           0        2.944146   -1.094544    0.227733
     14          6           0        4.265879   -1.260138    0.729573
     15          7           0        4.969644   -0.146774    0.592891
     16          7           0        4.137026    0.763707    0.004956
     17          6           0        2.904917    0.239162   -0.231322
     18          7           0        1.853635    0.859530   -0.791371
     19          6           0        4.588451    2.107471   -0.284431
     20          7           0        1.589891   -3.109528    0.464294
     21          1           0       -4.173104   -0.450375    2.256644
     22          1           0       -4.143053    0.990244    3.272033
     23          1           0       -2.738825   -0.083797    3.223842
     24          1           0       -3.735669    1.585789    0.818836
     25          1           0       -2.460913    2.069551    1.921461
     26          1           0       -1.131709    0.061858    1.282875
     27          1           0       -1.741513   -1.409231   -0.494852
     28          1           0       -2.975460   -1.439075    0.741212
     29          1           0       -5.399637   -1.598505    0.180017
     30          1           0       -5.490772    0.183077    0.291510
     31          1           0       -6.169534   -0.660231   -1.116182
     32          1           0        0.046708    2.271454    0.972534
     33          1           0       -0.139237    3.046905   -0.606263
     34          1           0       -1.423275    3.205697    0.594224
     35          1           0       -1.072869   -0.034340   -1.964289
     36          1           0       -0.206067    1.492348   -2.134884
     37          1           0        4.727842   -2.127159    1.183626
     38          1           0        4.883008    2.614190    0.638941
     39          1           0        5.441490    2.079717   -0.968095
     40          1           0        3.755825    2.637224   -0.749712
     41          1           0        2.411801   -3.677171    0.607355
     42          1           0        0.763876   -3.583552    0.124745
 ---------------------------------------------------------------------

 SCF Done:  E(UB3LYP) =  -1235.65896248     A.U. after   33 cycles
 SCF Done:  E(UB3LYP) =  -1235.65896248     a.u. after    1 cycles

 The electronic state is 2-A.
 Alpha  occ. eigenvalues --  -88.73966 -14.27090 -14.21437 -14.21276 -14.20210
 Alpha  occ. eigenvalues --  -14.18148 -14.18090 -10.12906 -10.12352 -10.11271
 Alpha  occ. eigenvalues --  -10.11119 -10.10371 -10.10369 -10.09084 -10.08413
 Alpha  occ. eigenvalues --  -10.08386 -10.08171 -10.07456 -10.07382 -10.05889
 Alpha  occ. eigenvalues --   -7.82553  -5.78972  -5.78585  -5.77899  -0.93917
 Alpha  occ. eigenvalues --   -0.86663  -0.82473  -0.81162  -0.75040  -0.73051
 Alpha  occ. eigenvalues --   -0.71301  -0.68270  -0.67239  -0.63267  -0.61366
 Alpha  occ. eigenvalues --   -0.60544  -0.57489  -0.54692  -0.53331  -0.51752
 Alpha  occ. eigenvalues --   -0.50233  -0.47146  -0.45030  -0.44078  -0.41838
 Alpha  occ. eigenvalues --   -0.40091  -0.38658  -0.38087  -0.37831  -0.37363
 Alpha  occ. eigenvalues --   -0.36482  -0.34627  -0.33710  -0.33360  -0.33191
 Alpha  occ. eigenvalues --   -0.32512  -0.32015  -0.31623  -0.31227  -0.30588
 Alpha  occ. eigenvalues --   -0.29623  -0.28989  -0.28237  -0.27730  -0.26913
 Alpha  occ. eigenvalues --   -0.26500  -0.25576  -0.23898  -0.23754  -0.22869
 Alpha  occ. eigenvalues --   -0.21219  -0.19995  -0.17698  -0.16499  -0.14500
 Alpha  occ. eigenvalues --   -0.14337  -0.12623  -0.11570  -0.10801   0.04064
 Alpha virt. eigenvalues --    0.05480   0.06692   0.06915   0.07349   0.08060
 Alpha virt. eigenvalues --    0.08672   0.09434   0.09738   0.09966   0.10474
 Alpha virt. eigenvalues --    0.10892   0.11201   0.11392   0.11494   0.12101

  Beta  occ. eigenvalues --  -88.73964 -14.27047 -14.21339 -14.20986 -14.20177
  Beta  occ. eigenvalues --  -14.18236 -14.17959 -10.12614 -10.12378 -10.11273
  Beta  occ. eigenvalues --  -10.10931 -10.10371 -10.10349 -10.09081 -10.08413
  Beta  occ. eigenvalues --  -10.08400 -10.08115 -10.07442 -10.07379 -10.05915
  Beta  occ. eigenvalues --   -7.82551  -5.78968  -5.78582  -5.77897  -0.93700
  Beta  occ. eigenvalues --   -0.86429  -0.82345  -0.80972  -0.74877  -0.72935
  Beta  occ. eigenvalues --   -0.71280  -0.68217  -0.67048  -0.63248  -0.61266
  Beta  occ. eigenvalues --   -0.60479  -0.57471  -0.54407  -0.53219  -0.51722
  Beta  occ. eigenvalues --   -0.50096  -0.47011  -0.44938  -0.43999  -0.41704
  Beta  occ. eigenvalues --   -0.40016  -0.38617  -0.37961  -0.37607  -0.37234
  Beta  occ. eigenvalues --   -0.36395  -0.34573  -0.33678  -0.33315  -0.33158
  Beta  occ. eigenvalues --   -0.32424  -0.31891  -0.31369  -0.31195  -0.30555
  Beta  occ. eigenvalues --   -0.29563  -0.28911  -0.28165  -0.27388  -0.26713
  Beta  occ. eigenvalues --   -0.26399  -0.25508  -0.23779  -0.23452  -0.22512
  Beta  occ. eigenvalues --   -0.21183  -0.19820  -0.17437  -0.16005  -0.14323
  Beta  occ. eigenvalues --   -0.14134  -0.12607  -0.11073  -0.10389
  Beta virt. eigenvalues --    0.05742   0.06923   0.07354   0.07490   0.08138
  Beta virt. eigenvalues --    0.08430   0.08890   0.09546   0.09795   0.10150
  Beta virt. eigenvalues --    0.10563   0.10913   0.11257   0.11434   0.11661

 Mulliken charges and spin densities:
               1          2
     1  C   -0.139939  -0.529315
     2  C   -0.542607   0.448979
     3  C   -0.059040  -0.226110
     4  C   -0.251999  -0.028406
     5  S   -0.217399   0.177754
     6  C   -0.182965  -0.471695
     7  N    0.374515  -0.003591
     8  C   -0.304800  -0.028613
     9  C   -0.959875  -0.008785
    10  C   -0.400684   0.010907
    11  N    0.111802  -0.135648
    12  C   -0.367016   0.157715
    13  C    0.386052  -0.128287
    14  C   -0.020609  -0.157823
    15  N   -0.353407   0.122963
    16  N    0.226382   0.023577
    17  C    0.713154  -0.358401
    18  N   -0.027764   0.079199
    19  C   -0.285324  -0.027283
    20  N   -0.372443   0.059644
    21  H    0.047608   0.074906
    22  H   -0.108727   0.252267
    23  H    0.046596   0.102296
    24  H    0.189503   0.001680
    25  H    0.120251  -0.006324
    26  H    0.231851  -0.055590
    27  H    0.346934  -0.033818
    28  H    0.114921   0.029652
    29  H   -0.013365   0.184452
    30  H    0.024487   0.142881
    31  H    0.040668   0.109244
    32  H    0.137862   0.015087
    33  H    0.125219  -0.000531
    34  H    0.082266   0.040849
    35  H    0.108020   0.017297
    36  H    0.181785   0.002236
    37  H   -0.097644   0.247712
    38  H    0.125601   0.023547
    39  H    0.147015  -0.000076
    40  H    0.168715  -0.002052
    41  H   -0.323965   0.587485
    42  H   -0.021632   0.290018
 Sum of Mulliken charges =  -1.00000   1.00000

 Dipole moment (field-independent basis, Debye):
    X=             -2.6843    Y=              5.4376    Z=             -0.2250  Tot=              6.0682
 Quadrupole moment (field-independent basis, Debye-Ang):
   XX=           -214.4188   YY=           -168.3360   ZZ=           -154.3718
   XY=             15.1171   XZ=             -4.4648   YZ=              0.6523

 Summary of Natural Population Analysis:

                                       Natural Population
                Natural  -----------------------------------------------
    Atom  No    Charge         Core      Valence    Rydberg      Total
 -----------------------------------------------------------------------
      C    1   -0.28911      0.99967     2.28438    0.00506     3.28911
      C    2   -0.19869      0.99961     2.18878    0.01030     3.19869
      C    3   -0.00652      0.99956     1.99331    0.01366     3.00652
      C    4   -0.26443      0.99954     2.25305    0.01183     3.26443
      S    5    0.08205      4.99963     2.89967    0.01865     7.91795
      C    6   -0.35263      0.99962     2.34646    0.00655     3.35263
      N    7   -0.27273      0.99971     2.76201    0.01101     3.77273
      C    8   -0.17778      0.99965     2.17123    0.00690     3.17778
      C    9   -0.09943      0.99957     2.08860    0.01126     3.09943
      C   10    0.24444      0.99962     1.73792    0.01802     2.75556
      N   11   -0.31623      0.99965     2.80681    0.00977     3.81623
      C   12    0.27003      0.99953     1.71612    0.01432     2.72997
      C   13   -0.12661      0.99944     2.11825    0.00892     3.12661
      C   14    0.00260      0.99963     1.98169    0.01608     2.99740
      N   15   -0.11089      0.99973     2.60007    0.01109     3.61089
      N   16   -0.12024      0.99961     2.60931    0.01132     3.62024
      C   17    0.19751      0.99948     1.78817    0.01485     2.80249
      N   18   -0.27563      0.99964     2.76623    0.00976     3.77563
      C   19   -0.17370      0.99965     2.16758    0.00647     3.17370
      N   20   -0.37862      0.99970     2.86980    0.00911     3.87862
      H   21    0.09569      0.00000     0.40326    0.00105     0.40431
      H   22    0.09847      0.00000     0.40078    0.00075     0.40153
      H   23    0.09792      0.00000     0.40120    0.00088     0.40208
      H   24    0.09934      0.00000     0.39930    0.00136     0.40066
      H   25    0.09792      0.00000     0.40093    0.00115     0.40208
      H   26    0.08811      0.00000     0.40969    0.00220     0.41189
      H   27    0.12712      0.00000     0.37104    0.00184     0.37288
      H   28    0.10490      0.00000     0.39392    0.00118     0.39510
      H   29    0.09907      0.00000     0.39948    0.00144     0.40093
      H   30    0.09880      0.00000     0.39970    0.00150     0.40120
      H   31    0.10440      0.00000     0.39472    0.00088     0.39560
      H   32    0.08463      0.00000     0.41365    0.00172     0.41537
      H   33    0.09908      0.00000     0.40013    0.00080     0.40092
      H   34    0.08828      0.00000     0.41067    0.00105     0.41172
      H   35    0.10073      0.00000     0.39806    0.00121     0.39927
      H   36    0.10011      0.00000     0.39908    0.00081     0.39989
      H   37    0.09585      0.00000     0.40258    0.00157     0.40415
      H   38    0.09491      0.00000     0.40400    0.00108     0.40509
      H   39    0.09466      0.00000     0.40427    0.00107     0.40534
      H   40    0.10918      0.00000     0.38993    0.00089     0.39082
      H   41    0.19407      0.00000     0.29934    0.00659     0.30593
      H   42    0.19337      0.00000     0.30417    0.00246     0.30663
 =======================================================================
   * Total *   -0.00000     23.99224    54.74935    0.25842    79.00000

 Normal termination of Gaussian 16 at Sun Dec 13 22:46:56 2020.
