 Gaussian 16, Revision A.03,

 ----------------------------------------------------------------------
 # opt=(cartesian,calcfc) freq B3LYP/6-31G(d) empiricaldispersion=gd3bj
  scf=xqc
 ----------------------------------------------------------------------

 -------------------------------
 CID_152897770_JID_3974_neutraal
 -------------------------------
 Symbolic Z-matrix:
 Charge =  0 Multiplicity = 1

 SCF Done:  E(RB3LYP) =  -613.971660728     A.U. after   15 cycles
 SCF Done:  E(RB3LYP) =  -613.973961121     A.U. after   11 cycles
 SCF Done:  E(RB3LYP) =  -613.976491863     A.U. after   12 cycles
 SCF Done:  E(RB3LYP) =  -613.977071406     A.U. after   13 cycles
 SCF Done:  E(RB3LYP) =  -613.977009308     A.U. after   12 cycles
 SCF Done:  E(RB3LYP) =  -613.977243091     A.U. after   12 cycles
 SCF Done:  E(RB3LYP) =  -613.977263355     A.U. after   13 cycles
 SCF Done:  E(RB3LYP) =  -613.977308921     A.U. after   13 cycles
 SCF Done:  E(RB3LYP) =  -613.977346742     A.U. after   11 cycles
 SCF Done:  E(RB3LYP) =  -613.977434123     A.U. after   12 cycles
 SCF Done:  E(RB3LYP) =  -613.978121599     A.U. after    9 cycles
 SCF Done:  E(RB3LYP) =  -613.978122479     A.U. after    9 cycles
 SCF Done:  E(RB3LYP) =  -613.978122611     A.U. after    8 cycles
 SCF Done:  E(RB3LYP) =  -613.978122671     A.U. after    8 cycles
 SCF Done:  E(RB3LYP) =  -613.978122698     A.U. after    7 cycles
 SCF Done:  E(RB3LYP) =  -613.978122698     A.U. after    7 cycles
 Optimization completed.
    -- Stationary point found.
 Normal termination of Gaussian 16 at Thu Dec 17 20:27:04 2020.

 --------------------------------------------------------------------
 #N Geom=AllCheck Guess=TCheck SCRF=Check GenChk RB3LYP/6-31G(d) Freq
 --------------------------------------------------------------------

 Structure from the checkpoint file:  "JID_3974.chk"
 -------------------------------
 CID_152897770_JID_3974_neutraal
 -------------------------------
 Charge =  0 Multiplicity = 1

 SCF Done:  E(RB3LYP) =  -613.978122698     A.U. after    1 cycles

  Exact polarizability: 129.105 -11.204 115.497  13.472   8.542  89.747
 Approx polarizability: 193.466 -30.792 190.995  30.607  16.719 136.656

                      1                      2                      3
                      A                      A                      A
 Frequencies --     40.0469                46.0769                71.8253
 Red. masses --      4.2131                 6.1016                 3.8439
 Frc consts  --      0.0040                 0.0076                 0.0117
 IR Inten    --      1.0823                 1.4883                 0.1371

                      4                      5                      6
                      A                      A                      A
 Frequencies --    101.6462               138.0081               163.5058
 Red. masses --      4.7323                 1.1370                 2.6674
 Frc consts  --      0.0288                 0.0128                 0.0420
 IR Inten    --      2.1547                 0.2520                 2.2190

                      7                      8                      9
                      A                      A                      A
 Frequencies --    173.0963               201.1926               251.1945
 Red. masses --      3.3427                 2.4403                 4.3678
 Frc consts  --      0.0590                 0.0582                 0.1624
 IR Inten    --      1.5814                 6.2625                 5.8481

                     10                     11                     12
                      A                      A                      A
 Frequencies --    280.5497               329.4164               351.1375
 Red. masses --      4.1220                 2.8254                 3.8376
 Frc consts  --      0.1912                 0.1806                 0.2788
 IR Inten    --      6.8308                 4.1657                 4.4962

                     13                     14                     15
                      A                      A                      A
 Frequencies --    368.1113               382.6213               454.4386
 Red. masses --      3.0095                 2.4700                 6.3083
 Frc consts  --      0.2403                 0.2131                 0.7676
 IR Inten    --      7.8372                 1.2019                 1.0601

                     16                     17                     18
                      A                      A                      A
 Frequencies --    516.0199               590.7099               596.4972
 Red. masses --      3.7697                 3.2974                 2.8543
 Frc consts  --      0.5914                 0.6779                 0.5984
 IR Inten    --      3.9823                 7.1441                 0.5411

                     19                     20                     21
                      A                      A                      A
 Frequencies --    636.7599               685.2480               734.6923
 Red. masses --      5.4070                 2.2307                 2.2278
 Frc consts  --      1.2917                 0.6171                 0.7085
 IR Inten    --     19.1235                23.8183                17.1233

                     22                     23                     24
                      A                      A                      A
 Frequencies --    763.8737               821.2606               865.6802
 Red. masses --      2.6296                 3.0943                 3.9541
 Frc consts  --      0.9040                 1.2297                 1.7459
 IR Inten    --     14.3580                 7.7631                17.5573

                     25                     26                     27
                      A                      A                      A
 Frequencies --    901.8918               924.7949               947.3811
 Red. masses --      2.8772                 2.5339                 2.3563
 Frc consts  --      1.3789                 1.2768                 1.2461
 IR Inten    --      5.5106                 8.7686                 1.6207

                     28                     29                     30
                      A                      A                      A
 Frequencies --    988.3571              1004.7208              1037.2632
 Red. masses --      1.2595                 1.7004                 2.0266
 Frc consts  --      0.7249                 1.0113                 1.2847
 IR Inten    --      1.1989                 1.3645                 1.8603

                     31                     32                     33
                      A                      A                      A
 Frequencies --   1058.5769              1064.8414              1144.2284
 Red. masses --      7.2515                 2.1832                 2.7080
 Frc consts  --      4.7876                 1.4585                 2.0889
 IR Inten    --     35.9776                 4.4724                15.8010

                     34                     35                     36
                      A                      A                      A
 Frequencies --   1166.8674              1186.6917              1193.4288
 Red. masses --      2.6305                 1.2821                 1.3076
 Frc consts  --      2.1102                 1.0637                 1.0973
 IR Inten    --     16.8283                 2.5598                 3.6084

                     37                     38                     39
                      A                      A                      A
 Frequencies --   1211.0689              1220.7767              1223.5982
 Red. masses --      1.1399                 1.4808                 1.5426
 Frc consts  --      0.9851                 1.3002                 1.3608
 IR Inten    --      8.4652                 2.8739                51.1308

                     40                     41                     42
                      A                      A                      A
 Frequencies --   1271.2927              1295.8342              1298.8026
 Red. masses --      3.3896                 1.7219                 1.3867
 Frc consts  --      3.2277                 1.7035                 1.3782
 IR Inten    --    264.2298                91.0017                48.6155

                     43                     44                     45
                      A                      A                      A
 Frequencies --   1352.1251              1384.0621              1405.1622
 Red. masses --      1.5055                 1.5576                 1.6527
 Frc consts  --      1.6217                 1.7580                 1.9226
 IR Inten    --      1.7878                 3.2927                 1.0088

                     46                     47                     48
                      A                      A                      A
 Frequencies --   1444.0270              1461.8415              1482.2124
 Red. masses --      1.5409                 1.4639                 1.1313
 Frc consts  --      1.8931                 1.8431                 1.4644
 IR Inten    --      4.5979                 5.2897                 9.3825

                     49                     50                     51
                      A                      A                      A
 Frequencies --   1492.7737              1496.7588              1509.5234
 Red. masses --      1.2008                 1.0876                 1.1038
 Frc consts  --      1.5766                 1.4355                 1.4819
 IR Inten    --      8.5983                 5.3014                 1.7457

                     52                     53                     54
                      A                      A                      A
 Frequencies --   1512.6177              1524.4071              1608.3516
 Red. masses --      1.0477                 1.0467                 7.4064
 Frc consts  --      1.4124                 1.4331                11.2880
 IR Inten    --      5.2263                 7.7594               207.8473

                     55                     56                     57
                      A                      A                      A
 Frequencies --   1697.8781              1764.1101              1835.5836
 Red. masses --      6.5305                 8.5150                11.6193
 Frc consts  --     11.0920                15.6129                23.0662
 IR Inten    --     15.1040               145.1058               302.8035

                     58                     59                     60
                      A                      A                      A
 Frequencies --   2902.6047              2992.6174              3004.2489
 Red. masses --      1.0826                 1.0734                 1.0687
 Frc consts  --      5.3738                 5.6637                 5.6828
 IR Inten    --    162.4795                12.6425                46.7841

                     61                     62                     63
                      A                      A                      A
 Frequencies --   3066.0423              3076.6332              3081.3860
 Red. masses --      1.0660                 1.0291                 1.0914
 Frc consts  --      5.9043                 5.7390                 6.1053
 IR Inten    --     14.7619                31.7751                25.2626

                     64                     65                     66
                      A                      A                      A
 Frequencies --   3088.8634              3131.5213              3153.3311
 Red. masses --      1.0898                 1.0955                 1.1076
 Frc consts  --      6.1264                 6.3296                 6.4888
 IR Inten    --     29.6585                 0.9463                17.0974

                     67                     68                     69
                      A                      A                      A
 Frequencies --   3176.2056              3180.2758              3197.4106
 Red. masses --      1.0854                 1.1075                 1.0971
 Frc consts  --      6.4513                 6.5996                 6.6081
 IR Inten    --      5.5413                16.3821                27.1611

 - Thermochemistry -
 -------------------
 Temperature   298.150 Kelvin.  Pressure   1.00000 Atm.
 Atom     1 has atomic number  6 and mass  12.00000

 Molecular mass:   180.07864 amu.
 Principal axes and moments of inertia in atomic units:
                           1         2         3
     Eigenvalues --  1428.409683080.491203473.65406
           X            0.99995   0.00695  -0.00655
           Y           -0.00685   0.99987   0.01444
           Z            0.00665  -0.01439   0.99987
 This molecule is an asymmetric top.
 Rotational symmetry number  1.
 Warning -- assumption of classical behavior for rotation
           may cause significant error
 Rotational temperatures (Kelvin)      0.06064     0.02812     0.02493
 Rotational constants (GHZ):           1.26346     0.58586     0.51955
 Zero-point vibrational energy     536684.3 (Joules/Mol)
                                  128.27061 (Kcal/Mol)
 Warning -- explicit consideration of  18 degrees of freedom as
           vibrations may cause significant error
 Vibrational temperatures:     57.62    66.29   103.34   146.25   198.56
          (Kelvin)            235.25   249.05   289.47   361.41   403.65
                              473.96   505.21   529.63   550.51   653.84
                              742.44   849.90   858.23   916.16   985.92
                             1057.06  1099.04  1181.61  1245.52  1297.62
                             1330.57  1363.07  1422.03  1445.57  1492.39
                             1523.06  1532.07  1646.29  1678.86  1707.38
                             1717.08  1742.46  1756.43  1760.48  1829.11
                             1864.42  1868.69  1945.41  1991.36  2021.72
                             2077.63  2103.26  2132.57  2147.77  2153.50
                             2171.87  2176.32  2193.28  2314.06  2442.87
                             2538.16  2641.00  4176.20  4305.71  4322.44
                             4411.35  4426.59  4433.43  4444.19  4505.56
                             4536.94  4569.85  4575.71  4600.36

 Zero-point correction=                           0.204412 (Hartree/Particle)
 Thermal correction to Energy=                    0.217181
 Thermal correction to Enthalpy=                  0.218125
 Thermal correction to Gibbs Free Energy=         0.164317
 Sum of electronic and zero-point Energies=           -613.773710
 Sum of electronic and thermal Energies=              -613.760942
 Sum of electronic and thermal Enthalpies=            -613.759998
 Sum of electronic and thermal Free Energies=         -613.813805

                     E (Thermal)             CV                S
                      KCal/Mol        Cal/Mol-Kelvin    Cal/Mol-Kelvin
 Total                  136.283             46.339            113.247
 Electronic               0.000              0.000              0.000
 Translational            0.889              2.981             41.471
 Rotational               0.889              2.981             31.103
 Vibrational            134.505             40.378             40.673
 Vibration     1          0.594              1.981              5.257
 Vibration     2          0.595              1.979              4.979
 Vibration     3          0.598              1.967              4.103
 Vibration     4          0.604              1.948              3.423
 Vibration     5          0.614              1.915              2.831
 Vibration     6          0.623              1.887              2.509
 Vibration     7          0.627              1.876              2.402
 Vibration     8          0.638              1.838              2.122
 Vibration     9          0.663              1.761              1.722
 Vibration    10          0.680              1.710              1.530
 Vibration    11          0.712              1.617              1.263
 Vibration    12          0.728              1.573              1.161
 Vibration    13          0.741              1.538              1.088
 Vibration    14          0.752              1.507              1.029
 Vibration    15          0.813              1.351              0.782
 Vibration    16          0.871              1.215              0.619
 Vibration    17          0.948              1.052              0.466
 Vibration    18          0.954              1.039              0.456

 Normal termination of Gaussian 16 at Thu Dec 17 20:32:57 2020.

 ----------------------------------------------------------------------
 # B3LYP/6-311++G(d,p) empiricaldispersion=gd3bj scf=xqc pop=npa geom=c
 heck
 ----------------------------------------------------------------------

 ---------------------------------------
 CID_152897770_JID_3974_Energie_neutraal
 ---------------------------------------
 Structure from the checkpoint file:  "JID_3974.chk"
 Charge =  0 Multiplicity = 1

 SCF Done:  E(RB3LYP) =  -614.154489822     A.U. after   16 cycles
 Normal termination of Gaussian 16 at Thu Dec 17 20:35:09 2020.

 ----------------------------------------------------------------------
 # B3LYP/6-311++G(d,p) empiricaldispersion=gd3bj scf=xqc pop=npa geom=c
 heck
 ----------------------------------------------------------------------

 -------------------------------------
 CID_152897770_JID_3974_Energie_kation
 -------------------------------------
 Structure from the checkpoint file:  "JID_3974.chk"
 Charge =  1 Multiplicity = 2

 SCF Done:  E(UB3LYP) =  -613.849062573     A.U. after   26 cycles
 Normal termination of Gaussian 16 at Thu Dec 17 20:39:52 2020.
 Gaussian 16:  ES64L-G16RevA.03 25-Dec-2016

 ----------------------------------------------------------------------
 # B3LYP/6-311++G(d,p) empiricaldispersion=gd3bj scf=xqc pop=npa geom=c
 heck
 ----------------------------------------------------------------------

 ------------------------------------
 CID_152897770_JID_3974_Energie_anion
 ------------------------------------
 Structure from the checkpoint file:  "JID_3974.chk"
 Charge = -1 Multiplicity = 2

                         Standard orientation:
 ---------------------------------------------------------------------
 Center     Atomic      Atomic             Coordinates (Angstroms)
 Number     Number       Type             X           Y           Z
 ---------------------------------------------------------------------
      1          6           0       -2.610019   -0.699026    1.790912
      2          8           0       -1.536611   -0.631476    0.840597
      3          6           0       -1.924112   -0.435408   -0.435003
      4          8           0       -3.078620   -0.399541   -0.791974
      5          6           0       -0.745893   -0.313348   -1.395707
      6          6           0        0.619824   -0.221005   -0.767143
      7          6           0        1.080375    0.892241   -0.126856
      8          6           0        2.505569    0.913007    0.390620
      9          6           0        2.937131   -0.458526    0.917251
     10          6           0        2.566874   -1.535495   -0.067681
     11          6           0        1.484472   -1.397028   -0.853964
     12          6           0        0.273140    2.101240    0.043504
     13          8           0       -0.907423    2.235117   -0.252503
     14          1           0       -2.133832   -0.858550    2.758765
     15          1           0       -3.285530   -1.524240    1.551508
     16          1           0       -3.174396    0.236871    1.787739
     17          1           0       -0.794845   -1.184265   -2.060297
     18          1           0       -0.966426    0.571370   -1.997636
     19          1           0        2.616737    1.672559    1.172913
     20          1           0        3.181684    1.207427   -0.428492
     21          1           0        4.013532   -0.466657    1.119858
     22          1           0        2.437907   -0.673916    1.876854
     23          1           0        3.150454   -2.452566   -0.092987
     24          1           0        1.186195   -2.195595   -1.528902
     25          1           0        0.825590    2.954846    0.496123
 ---------------------------------------------------------------------

 SCF Done:  E(UB3LYP) =  -614.182364891     A.U. after   24 cycles

 The electronic state is 2-A.
 Alpha  occ. eigenvalues --  -19.03748 -18.97525 -18.91350 -10.16393 -10.10938
 Alpha  occ. eigenvalues --  -10.05273 -10.03523 -10.03187 -10.02564 -10.01274
 Alpha  occ. eigenvalues --  -10.00752 -10.00664  -9.99409  -0.97709  -0.88847
 Alpha  occ. eigenvalues --   -0.84991  -0.69492  -0.64361  -0.60158  -0.59682
 Alpha  occ. eigenvalues --   -0.55563  -0.47186  -0.46780  -0.44212  -0.40737
 Alpha  occ. eigenvalues --   -0.36892  -0.36213  -0.35287  -0.33531  -0.32515
 Alpha  occ. eigenvalues --   -0.30543  -0.29805  -0.28552  -0.27967  -0.26261
 Alpha  occ. eigenvalues --   -0.25195  -0.24120  -0.23847  -0.23280  -0.21987
 Alpha  occ. eigenvalues --   -0.20777  -0.18748  -0.18061  -0.17856  -0.16004
 Alpha  occ. eigenvalues --   -0.14003  -0.07358  -0.06855   0.03615
 Alpha virt. eigenvalues --    0.08637   0.09309   0.10316   0.11167   0.11807
 Alpha virt. eigenvalues --    0.12216   0.12875   0.13089   0.13370   0.13958
 Alpha virt. eigenvalues --    0.14650   0.15106   0.15431   0.16387   0.16452

  Beta  occ. eigenvalues --  -19.03747 -18.97521 -18.90824 -10.16344 -10.10938
  Beta  occ. eigenvalues --  -10.05048 -10.03554 -10.03211 -10.02557 -10.01370
  Beta  occ. eigenvalues --  -10.00292 -10.00243  -9.99336  -0.97696  -0.88837
  Beta  occ. eigenvalues --   -0.84053  -0.69040  -0.64147  -0.59960  -0.59172
  Beta  occ. eigenvalues --   -0.55407  -0.46751  -0.46116  -0.44102  -0.40282
  Beta  occ. eigenvalues --   -0.36697  -0.36177  -0.35188  -0.33401  -0.32224
  Beta  occ. eigenvalues --   -0.30324  -0.29583  -0.28365  -0.27719  -0.25955
  Beta  occ. eigenvalues --   -0.24914  -0.23668  -0.23576  -0.23205  -0.21745
  Beta  occ. eigenvalues --   -0.18854  -0.18583  -0.17766  -0.17700  -0.15145
  Beta  occ. eigenvalues --   -0.13176  -0.06888  -0.04819
  Beta virt. eigenvalues --    0.08624   0.09296   0.10211   0.10531   0.11213
  Beta virt. eigenvalues --    0.11805   0.12209   0.12903   0.13088   0.13363
  Beta virt. eigenvalues --    0.14115   0.14645   0.15252   0.15523   0.16447

 Mulliken charges and spin densities:
               1          2
     1  C   -0.241192  -0.002375
     2  O    0.019413  -0.004256
     3  C   -0.331223   0.004530
     4  O   -0.278456   0.001462
     5  C   -0.462029  -0.023529
     6  C    0.901359   0.334901
     7  C    0.569281   0.075137
     8  C   -0.596080   0.048893
     9  C   -0.466804  -0.037266
    10  C   -0.228820   0.353510
    11  C   -0.635738  -0.098238
    12  C   -0.323243   0.176382
    13  O   -0.353033   0.170843
    14  H    0.123493   0.000483
    15  H    0.145857   0.000139
    16  H    0.176243  -0.000407
    17  H    0.153182   0.005931
    18  H    0.235249   0.011595
    19  H    0.100506   0.001390
    20  H    0.090202  -0.003716
    21  H    0.095180   0.007499
    22  H    0.097694   0.011318
    23  H    0.121978  -0.025338
    24  H    0.071291   0.007715
    25  H    0.015690  -0.016602
 Sum of Mulliken charges =  -1.00000   1.00000

 Dipole moment (field-independent basis, Debye):
    X=              0.5565    Y=             -3.0941    Z=              2.6044  Tot=              4.0824
 Quadrupole moment (field-independent basis, Debye-Ang):
   XX=           -108.1946   YY=            -97.7809   ZZ=            -83.0961
   XY=              7.3045   XZ=             -5.8671   YZ=              0.6364

 Summary of Natural Population Analysis:

                                       Natural Population
                Natural  -----------------------------------------------
    Atom  No    Charge         Core      Valence    Rydberg      Total
 -----------------------------------------------------------------------
      C    1   -0.10579      0.99961     2.09770    0.00847     3.10579
      O    2   -0.27169      0.99985     3.26237    0.00947     4.27169
      C    3    0.43312      0.99970     1.54199    0.02519     2.56688
      O    4   -0.32419      0.99986     3.31765    0.00667     4.32419
      C    5   -0.24486      0.99955     2.23618    0.00913     3.24486
      C    6    0.08225      0.99944     1.90857    0.00973     2.91775
      C    7   -0.06244      0.99942     2.05226    0.01076     3.06244
      C    8   -0.18561      0.99962     2.17824    0.00775     3.18561
      C    9   -0.20573      0.99963     2.19890    0.00720     3.20573
      C   10    0.01493      0.99956     1.97490    0.01061     2.98507
      C   11   -0.14578      0.99951     2.13613    0.01014     3.14578
      C   12    0.22253      0.99966     1.75686    0.02095     2.77747
      O   13   -0.26063      0.99988     3.25205    0.00870     4.26063
      H   14    0.08606      0.00000     0.41312    0.00082     0.41394
      H   15    0.08454      0.00000     0.41424    0.00123     0.41546
      H   16    0.09216      0.00000     0.40666    0.00118     0.40784
      H   17    0.10074      0.00000     0.39793    0.00133     0.39926
      H   18    0.12840      0.00000     0.37051    0.00109     0.37160
      H   19    0.09268      0.00000     0.40584    0.00148     0.40732
      H   20    0.08889      0.00000     0.40941    0.00169     0.41111
      H   21    0.09060      0.00000     0.40792    0.00147     0.40940
      H   22    0.09643      0.00000     0.40171    0.00185     0.40357
      H   23    0.07903      0.00000     0.41970    0.00128     0.42097
      H   24    0.08741      0.00000     0.41086    0.00173     0.41259
      H   25    0.02692      0.00000     0.46967    0.00342     0.47308
 =======================================================================
   * Total *    0.00000     12.99531    34.84137    0.16332    48.00000

 Normal termination of Gaussian 16 at Thu Dec 17 20:44:15 2020.
