 Gaussian 16, Revision A.03,

 -----------------------------------------------------------
 # opt freq B3LYP/6-31G(d) empiricaldispersion=gd3bj scf=xqc
 -----------------------------------------------------------

 -------------------------------
 CID_131583065_JID_6445_neutraal
 -------------------------------
 Symbolic Z-matrix:
 Charge =  0 Multiplicity = 1

 SCF Done:  E(RB3LYP) =  -1139.02895975     A.U. after   17 cycles
 SCF Done:  E(RB3LYP) =  -1139.03521884     A.U. after   15 cycles
 SCF Done:  E(RB3LYP) =  -1139.02819446     A.U. after   16 cycles
 SCF Done:  E(RB3LYP) =  -1139.03745092     A.U. after   15 cycles
 SCF Done:  E(RB3LYP) =  -1139.03522422     A.U. after   17 cycles
 SCF Done:  E(RB3LYP) =  -1139.03862547     A.U. after   15 cycles
 SCF Done:  E(RB3LYP) =  -1139.03891164     A.U. after   14 cycles
 SCF Done:  E(RB3LYP) =  -1139.03905095     A.U. after   13 cycles
 SCF Done:  E(RB3LYP) =  -1139.03914803     A.U. after   13 cycles
 SCF Done:  E(RB3LYP) =  -1139.03918642     A.U. after   12 cycles
 SCF Done:  E(RB3LYP) =  -1139.03920776     A.U. after   10 cycles
 SCF Done:  E(RB3LYP) =  -1139.03920970     A.U. after   10 cycles
 SCF Done:  E(RB3LYP) =  -1139.03921015     A.U. after    9 cycles
 SCF Done:  E(RB3LYP) =  -1139.03921043     A.U. after    9 cycles
 SCF Done:  E(RB3LYP) =  -1139.03921056     A.U. after    8 cycles
 Optimization completed.
    -- Stationary point found.
 Normal termination of Gaussian 16 at Thu Dec 10 22:51:52 2020.

 --------------------------------------------------------------------
 #N Geom=AllCheck Guess=TCheck SCRF=Check GenChk RB3LYP/6-31G(d) Freq
 --------------------------------------------------------------------

 Structure from the checkpoint file:  "JID_6445.chk"
 -------------------------------
 CID_131583065_JID_6445_neutraal
 -------------------------------
 Charge =  0 Multiplicity = 1

 SCF Done:  E(RB3LYP) =  -1139.03921056     A.U. after    1 cycles

  Exact polarizability: 205.257  -1.152 163.323  -9.760  -0.131  64.796
 Approx polarizability: 345.933  -6.435 297.705 -31.688   0.070 117.015

                      1                      2                      3
                      A                      A                      A
 Frequencies --     53.0469                59.7741                88.7495
 Red. masses --      6.3405                 6.7761                 6.3183
 Frc consts  --      0.0105                 0.0143                 0.0293
 IR Inten    --      0.8506                 6.5457                 1.5299

                      4                      5                      6
                      A                      A                      A
 Frequencies --    105.2345               117.5924               166.9422
 Red. masses --      7.1143                 5.1758                 4.2851
 Frc consts  --      0.0464                 0.0422                 0.0704
 IR Inten    --      0.9968                 0.6211                 5.8513

                      7                      8                      9
                      A                      A                      A
 Frequencies --    197.4708               206.3952               247.4778
 Red. masses --      8.0739                 9.3997                 5.0259
 Frc consts  --      0.1855                 0.2359                 0.1814
 IR Inten    --      8.1692                 7.0834                 4.0497

                     10                     11                     12
                      A                      A                      A
 Frequencies --    258.8342               281.7429               308.7716
 Red. masses --      1.2525                 3.6023                 3.1261
 Frc consts  --      0.0494                 0.1685                 0.1756
 IR Inten    --     92.9408                11.7558                 8.9369

                     13                     14                     15
                      A                      A                      A
 Frequencies --    342.4102               362.5141               377.2881
 Red. masses --      8.1733                 8.6646                 7.7389
 Frc consts  --      0.5646                 0.6709                 0.6490
 IR Inten    --      5.0541                 1.5032                 4.3284

                     16                     17                     18
                      A                      A                      A
 Frequencies --    418.9441               458.3524               493.3170
 Red. masses --      6.1245                 5.7629                 4.6496
 Frc consts  --      0.6333                 0.7133                 0.6667
 IR Inten    --      2.8402                 8.4244                 1.2476

                     19                     20                     21
                      A                      A                      A
 Frequencies --    523.2940               570.3530               624.8655
 Red. masses --      6.6615                 5.7242                 5.9895
 Frc consts  --      1.0748                 1.0971                 1.3779
 IR Inten    --      6.9808                 7.3915                 1.2472

                     22                     23                     24
                      A                      A                      A
 Frequencies --    663.7411               682.5922               735.8092
 Red. masses --      4.8016                 4.0654                 7.9107
 Frc consts  --      1.2463                 1.1160                 2.5235
 IR Inten    --     17.3756                14.6704                 6.7885

                     25                     26                     27
                      A                      A                      A
 Frequencies --    751.8304               778.0270               793.3415
 Red. masses --      1.8389                 6.2291                 7.8404
 Frc consts  --      0.6124                 2.2216                 2.9074
 IR Inten    --     17.3233                15.6520                32.7873

                     28                     29                     30
                      A                      A                      A
 Frequencies --    810.1267               849.5231               886.7192
 Red. masses --      4.6631                 4.8802                 4.9747
 Frc consts  --      1.8031                 2.0751                 2.3046
 IR Inten    --     28.4955                24.5527                17.6388

                     31                     32                     33
                      A                      A                      A
 Frequencies --    920.1393               933.6220               939.9700
 Red. masses --      1.3128                 5.6131                 1.3562
 Frc consts  --      0.6549                 2.8827                 0.7060
 IR Inten    --      0.7761                23.3085                12.8281

                     34                     35                     36
                      A                      A                      A
 Frequencies --   1009.1885              1029.4693              1046.9726
 Red. masses --      1.8752                 4.3242                 1.9959
 Frc consts  --      1.1252                 2.7001                 1.2890
 IR Inten    --      1.2812                19.0132                16.9107

                     37                     38                     39
                      A                      A                      A
 Frequencies --   1077.4951              1127.5683              1191.3675
 Red. masses --      5.6427                 1.1327                 2.6168
 Frc consts  --      3.8598                 0.8485                 2.1883
 IR Inten    --     72.1403                 2.8588                14.6865

                     40                     41                     42
                      A                      A                      A
 Frequencies --   1226.6859              1250.1487              1270.7422
 Red. masses --      2.0443                 1.3664                 1.4366
 Frc consts  --      1.8124                 1.2582                 1.3668
 IR Inten    --    112.1298                72.9828                 1.9188

                     43                     44                     45
                      A                      A                      A
 Frequencies --   1283.6483              1349.1798              1382.7526
 Red. masses --      1.5213                 3.7896                 3.3857
 Frc consts  --      1.4769                 4.0643                 3.8141
 IR Inten    --     39.7973                79.3350                 7.9550

                     46                     47                     48
                      A                      A                      A
 Frequencies --   1399.1821              1429.2264              1457.5450
 Red. masses --      7.6717                 3.2137                 1.3398
 Frc consts  --      8.8489                 3.8678                 1.6770
 IR Inten    --    200.9763                44.1749                 3.7612

                     49                     50                     51
                      A                      A                      A
 Frequencies --   1475.7370              1483.6506              1542.0475
 Red. masses --      4.6643                 1.8023                 5.7307
 Frc consts  --      5.9849                 2.3375                 8.0289
 IR Inten    --      5.9536                12.2355                27.6875

                     52                     53                     54
                      A                      A                      A
 Frequencies --   1554.1602              1584.9853              1621.8410
 Red. masses --      1.0928                 6.7868                 9.1406
 Frc consts  --      1.5551                10.0453                14.1659
 IR Inten    --      5.1831                 4.2090               102.9316

                     55                     56                     57
                      A                      A                      A
 Frequencies --   1648.6562              1789.7305              3002.9620
 Red. masses --     10.2172                 9.4417                 1.0735
 Frc consts  --     16.3622                17.8187                 5.7039
 IR Inten    --    178.0604               220.9615                35.3386

                     58                     59                     60
                      A                      A                      A
 Frequencies --   3043.3281              3143.3502              3224.1824
 Red. masses --      1.0864                 1.0892                 1.0911
 Frc consts  --      5.9282                 6.3410                 6.6827
 IR Inten    --     94.9171                12.2700                 1.9720

                     61                     62                     63
                      A                      A                      A
 Frequencies --   3263.3138              3281.6318              3747.0677
 Red. masses --      1.0890                 1.0996                 1.0663
 Frc consts  --      6.8325                 6.9771                 8.8212
 IR Inten    --      2.4066                 0.5410                27.1448

 - Thermochemistry -
 -------------------
 Temperature   298.150 Kelvin.  Pressure   1.00000 Atm.
 Atom     1 has atomic number  6 and mass  12.00000

 Molecular mass:   237.00958 amu.
 Principal axes and moments of inertia in atomic units:
                           1         2         3
     Eigenvalues --  3034.181443943.046676681.03887
           X            0.99999  -0.00471  -0.00087
           Y            0.00471   0.99999   0.00146
           Z            0.00086  -0.00146   1.00000
 This molecule is an asymmetric top.
 Rotational symmetry number  1.
 Warning -- assumption of classical behavior for rotation
           may cause significant error
 Rotational temperatures (Kelvin)      0.02855     0.02197     0.01296
 Rotational constants (GHZ):           0.59480     0.45770     0.27013
 Zero-point vibrational energy     418373.7 (Joules/Mol)
                                   99.99373 (Kcal/Mol)
 Warning -- explicit consideration of  20 degrees of freedom as
           vibrations may cause significant error
 Vibrational temperatures:     76.32    86.00   127.69   151.41   169.19
          (Kelvin)            240.19   284.12   296.96   356.07   372.40
                              405.37   444.25   492.65   521.58   542.83
                              602.77   659.47   709.77   752.90   820.61
                              899.04   954.98   982.10  1058.67  1081.72
                             1119.41  1141.44  1165.59  1222.27  1275.79
                             1323.88  1343.27  1352.41  1452.00  1481.18
                             1506.36  1550.28  1622.32  1714.11  1764.93
                             1798.69  1828.31  1846.88  1941.17  1989.47
                             2013.11  2056.34  2097.08  2123.26  2134.64
                             2218.66  2236.09  2280.44  2333.47  2372.05
                             2575.02  4320.59  4378.67  4522.58  4638.88
                             4695.18  4721.54  5391.19

 Zero-point correction=                           0.159350 (Hartree/Particle)
 Thermal correction to Energy=                    0.173146
 Thermal correction to Enthalpy=                  0.174090
 Thermal correction to Gibbs Free Energy=         0.118099
 Sum of electronic and zero-point Energies=          -1138.879860
 Sum of electronic and thermal Energies=             -1138.866064
 Sum of electronic and thermal Enthalpies=           -1138.865120
 Sum of electronic and thermal Free Energies=        -1138.921111

                     E (Thermal)             CV                S
                      KCal/Mol        Cal/Mol-Kelvin    Cal/Mol-Kelvin
 Total                  108.651             51.343            117.843
 Electronic               0.000              0.000              0.000
 Translational            0.889              2.981             42.290
 Rotational               0.889              2.981             32.747
 Vibrational            106.873             45.382             42.806
 Vibration     1          0.596              1.976              4.700
 Vibration     2          0.597              1.973              4.465
 Vibration     3          0.602              1.957              3.687
 Vibration     4          0.605              1.945              3.355
 Vibration     5          0.608              1.935              3.140
 Vibration     6          0.624              1.883              2.470
 Vibration     7          0.637              1.843              2.157
 Vibration     8          0.641              1.831              2.075
 Vibration     9          0.661              1.767              1.748
 Vibration    10          0.668              1.748              1.670
 Vibration    11          0.681              1.707              1.523
 Vibration    12          0.698              1.657              1.369
 Vibration    13          0.722              1.591              1.201
 Vibration    14          0.736              1.549              1.111
 Vibration    15          0.748              1.519              1.050
 Vibration    16          0.782              1.429              0.896
 Vibration    17          0.816              1.342              0.771
 Vibration    18          0.849              1.265              0.675
 Vibration    19          0.878              1.198              0.602
 Vibration    20          0.926              1.095              0.504

                           ! Non-Optimized Parameters !
 Normal termination of Gaussian 16 at Thu Dec 10 22:59:05 2020.

 ----------------------------------------------------------------------
 # B3LYP/6-311++G(d,p) empiricaldispersion=gd3bj scf=xqc pop=npa geom=c
 heck
 ----------------------------------------------------------------------

 ---------------------------------------
 CID_131583065_JID_6445_Energie_neutraal
 ---------------------------------------
 Structure from the checkpoint file:  "JID_6445.chk"
 Charge =  0 Multiplicity = 1

 SCF Done:  E(RB3LYP) =  -1139.28139376     A.U. after   19 cycles
 Normal termination of Gaussian 16 at Thu Dec 10 23:03:08 2020.

 ----------------------------------------------------------------------
 # B3LYP/6-311++G(d,p) empiricaldispersion=gd3bj scf=xqc pop=npa geom=c
 heck
 ----------------------------------------------------------------------

 -------------------------------------
 CID_131583065_JID_6445_Energie_kation
 -------------------------------------
 Structure from the checkpoint file:  "JID_6445.chk"
 Charge =  1 Multiplicity = 2

 SCF Done:  E(UB3LYP) =  -1138.95997360     A.U. after   33 cycles
 SCF Done:  E(UB3LYP) =  -1138.95997360     a.u. after    2 cycles
 Normal termination of Gaussian 16 at Thu Dec 10 23:22:07 2020.
 Gaussian 16:  ES64L-G16RevA.03 25-Dec-2016

 ----------------------------------------------------------------------
 # B3LYP/6-311++G(d,p) empiricaldispersion=gd3bj scf=xqc pop=npa geom=c
 heck
 ----------------------------------------------------------------------

 ------------------------------------
 CID_131583065_JID_6445_Energie_anion
 ------------------------------------
 Structure from the checkpoint file:  "JID_6445.chk"
 Charge = -1 Multiplicity = 2

                         Standard orientation:
 ---------------------------------------------------------------------
 Center     Atomic      Atomic             Coordinates (Angstroms)
 Number     Number       Type             X           Y           Z
 ---------------------------------------------------------------------
      1          6           0        2.514580   -0.961186   -0.055830
      2          6           0        3.497007   -0.020147   -0.093448
      3         16           0        2.907138    1.620732   -0.069964
      4          6           0        1.254360    1.039625   -0.002298
      5          6           0        1.202698   -0.377869   -0.002531
      6          6           0       -0.074921   -0.975955    0.080830
      7          6           0       -1.253633   -0.230165    0.121771
      8          6           0       -1.140982    1.185838    0.121868
      9          6           0        0.104050    1.811879    0.063358
     10          6           0       -2.326019    2.083794    0.245113
     11          8           0       -2.235311    3.296931    0.206558
     12          6           0       -2.632531   -0.858590    0.081087
     13          8           0       -3.329768   -0.270559   -1.018658
     14          7           0       -0.123413   -2.441487    0.150963
     15          8           0        0.637229   -3.076971   -0.578607
     16          8           0       -0.908015   -2.951240    0.953618
     17          1           0        2.700250   -2.025136   -0.079624
     18          1           0        4.563393   -0.196990   -0.142117
     19          1           0        0.132123    2.896421    0.077384
     20          1           0       -3.301889    1.596586    0.393414
     21          1           0       -2.568754   -1.941164   -0.028739
     22          1           0       -3.146836   -0.661967    1.035134
     23          1           0       -4.209341   -0.677688   -1.055590
 ---------------------------------------------------------------------

 SCF Done:  E(UB3LYP) =  -1139.33507043     A.U. after   26 cycles

 The electronic state is 2-A.
 Alpha  occ. eigenvalues --  -88.75883 -19.02773 -18.98615 -18.98548 -18.98529
 Alpha  occ. eigenvalues --  -14.36515 -10.12448 -10.11533 -10.09375 -10.08950
 Alpha  occ. eigenvalues --  -10.08326 -10.08039 -10.06617 -10.06058 -10.05797
 Alpha  occ. eigenvalues --  -10.04785  -7.84539  -5.80843  -5.80494  -5.80091
 Alpha  occ. eigenvalues --   -1.06434  -0.92834  -0.91664  -0.89234  -0.77962
 Alpha  occ. eigenvalues --   -0.72830  -0.67405  -0.64249  -0.61427  -0.58296
 Alpha  occ. eigenvalues --   -0.54020  -0.52464  -0.45830  -0.44948  -0.43647
 Alpha  occ. eigenvalues --   -0.42467  -0.40366  -0.38150  -0.36820  -0.35792
 Alpha  occ. eigenvalues --   -0.35238  -0.34981  -0.33575  -0.31408  -0.29895
 Alpha  occ. eigenvalues --   -0.29237  -0.28982  -0.27188  -0.27025  -0.25233
 Alpha  occ. eigenvalues --   -0.24376  -0.23203  -0.21382  -0.18750  -0.17747
 Alpha  occ. eigenvalues --   -0.16568  -0.15587  -0.13867  -0.13225  -0.12788
 Alpha  occ. eigenvalues --   -0.10953   0.00551
 Alpha virt. eigenvalues --    0.04838   0.07313   0.08376   0.10357   0.10595
 Alpha virt. eigenvalues --    0.10942   0.11236   0.11432   0.11975   0.13333
 Alpha virt. eigenvalues --    0.14281   0.14514   0.14666   0.15318   0.16151

  Beta  occ. eigenvalues --  -88.75871 -19.02763 -18.98425 -18.98264 -18.98205
  Beta  occ. eigenvalues --  -14.36028 -10.12354 -10.11532 -10.09327 -10.09057
  Beta  occ. eigenvalues --  -10.08082 -10.08043 -10.06380 -10.06134 -10.05804
  Beta  occ. eigenvalues --  -10.04430  -7.84528  -5.80838  -5.80490  -5.80049
  Beta  occ. eigenvalues --   -1.05649  -0.92817  -0.91463  -0.88578  -0.77732
  Beta  occ. eigenvalues --   -0.72638  -0.66917  -0.64000  -0.61250  -0.57927
  Beta  occ. eigenvalues --   -0.53506  -0.52080  -0.45615  -0.44697  -0.43307
  Beta  occ. eigenvalues --   -0.42277  -0.39922  -0.37664  -0.35812  -0.35400
  Beta  occ. eigenvalues --   -0.35095  -0.34158  -0.33378  -0.31288  -0.29744
  Beta  occ. eigenvalues --   -0.28910  -0.28540  -0.27022  -0.26472  -0.25102
  Beta  occ. eigenvalues --   -0.24285  -0.23094  -0.20847  -0.18505  -0.16927
  Beta  occ. eigenvalues --   -0.15280  -0.14324  -0.13547  -0.13061  -0.12080
  Beta  occ. eigenvalues --   -0.10080
  Beta virt. eigenvalues --    0.05689   0.06670   0.08128   0.08366   0.10395
  Beta virt. eigenvalues --    0.10746   0.11366   0.11610   0.11942   0.12246
  Beta virt. eigenvalues --    0.13347   0.14305   0.14578   0.14785   0.15336

 Mulliken charges and spin densities:
               1          2
     1  C    0.573201  -0.063850
     2  C   -0.343006   0.174359
     3  S   -0.784664   0.011643
     4  C    0.851842  -0.050445
     5  C    0.250182   0.155191
     6  C   -0.923614   0.043930
     7  C    0.042722  -0.058414
     8  C    0.894020  -0.016179
     9  C   -1.059564   0.287475
    10  C   -0.017758   0.064385
    11  O   -0.315708   0.037807
    12  C   -0.698236   0.009034
    13  O   -0.245129   0.004837
    14  N   -0.208096   0.157417
    15  O   -0.116945   0.128087
    16  O   -0.146447   0.129341
    17  H    0.188944   0.010348
    18  H    0.215615  -0.011849
    19  H    0.168670  -0.021698
    20  H    0.117691  -0.004695
    21  H    0.176492   0.005890
    22  H    0.155760  -0.001252
    23  H    0.224030   0.008637
 Sum of Mulliken charges =  -1.00000   1.00000

 Dipole moment (field-independent basis, Debye):
    X=              0.1936    Y=              0.9108    Z=              0.2093  Tot=              0.9544
 Quadrupole moment (field-independent basis, Debye-Ang):
   XX=           -106.6577   YY=           -151.1372   ZZ=           -109.8473
   XY=             10.8165   XZ=              0.9985   YZ=              1.3788

 Summary of Natural Population Analysis:

                                       Natural Population
                Natural  -----------------------------------------------
    Atom  No    Charge         Core      Valence    Rydberg      Total
 -----------------------------------------------------------------------
      C    1   -0.13902      0.99952     2.12945    0.01006     3.13902
      C    2   -0.12964      0.99954     2.11966    0.01045     3.12964
      S    3    0.17727      4.99945     2.80048    0.02280     7.82273
      C    4   -0.11211      0.99944     2.10199    0.01068     3.11211
      C    5    0.01216      0.99933     1.97977    0.00874     2.98784
      C    6    0.05646      0.99934     1.93226    0.01195     2.94354
      C    7   -0.00169      0.99937     1.99308    0.00924     3.00169
      C    8   -0.08682      0.99948     2.07781    0.00953     3.08682
      C    9   -0.00385      0.99939     1.99424    0.01022     3.00385
      C   10    0.22630      0.99968     1.75383    0.02019     2.77370
      O   11   -0.28790      0.99988     3.28068    0.00733     4.28790
      C   12   -0.02650      0.99956     2.01547    0.01147     3.02650
      O   13   -0.36809      0.99990     3.36182    0.00637     4.36809
      N   14    0.29027      0.99971     2.17996    0.03006     3.20973
      O   15   -0.19180      0.99990     3.18410    0.00781     4.19180
      O   16   -0.19672      0.99990     3.18908    0.00774     4.19672
      H   17    0.11938      0.00000     0.37936    0.00126     0.38062
      H   18    0.09963      0.00000     0.39944    0.00094     0.40037
      H   19    0.10642      0.00000     0.39158    0.00201     0.39358
      H   20    0.05352      0.00000     0.44450    0.00198     0.44648
      H   21    0.10054      0.00000     0.39791    0.00155     0.39946
      H   22    0.07882      0.00000     0.41959    0.00159     0.42118
      H   23    0.22341      0.00000     0.27399    0.00261     0.27659
 =======================================================================
   * Total *    0.00002     19.99337    40.80006    0.20655    60.99998

 Normal termination of Gaussian 16 at Thu Dec 10 23:29:08 2020.
