 Gaussian 16, Revision A.03,

 -----------------------------------------------------------
 # opt freq B3LYP/6-31G(d) empiricaldispersion=gd3bj scf=xqc
 -----------------------------------------------------------

 -------------------------------
 CID_149610044_JID_1694_neutraal
 -------------------------------
 Symbolic Z-matrix:
 Charge =  0 Multiplicity = 1

 SCF Done:  E(RB3LYP) =  -901.250532453     A.U. after   17 cycles
 SCF Done:  E(RB3LYP) =  -901.257851504     A.U. after   16 cycles
 SCF Done:  E(RB3LYP) =  -901.260181641     A.U. after   16 cycles
 SCF Done:  E(RB3LYP) =  -901.263034652     A.U. after   16 cycles
 SCF Done:  E(RB3LYP) =  -901.266618540     A.U. after   17 cycles
 SCF Done:  E(RB3LYP) =  -901.268701792     A.U. after   16 cycles
 SCF Done:  E(RB3LYP) =  -901.269670012     A.U. after   14 cycles
 SCF Done:  E(RB3LYP) =  -901.269760213     A.U. after   13 cycles
 SCF Done:  E(RB3LYP) =  -901.269820233     A.U. after   11 cycles
 SCF Done:  E(RB3LYP) =  -901.269823791     A.U. after   10 cycles
 SCF Done:  E(RB3LYP) =  -901.269824396     A.U. after    9 cycles
 SCF Done:  E(RB3LYP) =  -901.269824473     A.U. after    8 cycles
 Optimization completed.
    -- Stationary point found.
 Normal termination of Gaussian 16 at Tue Dec  8 20:49:52 2020.

 --------------------------------------------------------------------
 #N Geom=AllCheck Guess=TCheck SCRF=Check GenChk RB3LYP/6-31G(d) Freq
 --------------------------------------------------------------------

 Structure from the checkpoint file:  "JID_1694.chk"
 -------------------------------
 CID_149610044_JID_1694_neutraal
 -------------------------------
 Charge =  0 Multiplicity = 1

 SCF Done:  E(RB3LYP) =  -901.269824473     A.U. after    1 cycles

  Exact polarizability: 119.566  23.828  98.133   1.395  -0.008  65.079
 Approx polarizability: 188.315  74.125 213.821  -2.315  -0.238 108.256

                      1                      2                      3
                      A                      A                      A
 Frequencies --     42.6802                65.3535                80.2218
 Red. masses --      5.4112                10.2338                 6.2657
 Frc consts  --      0.0058                 0.0258                 0.0238
 IR Inten    --      0.7278                 0.2272                 0.9428

                      4                      5                      6
                      A                      A                      A
 Frequencies --    117.2342               138.3519               275.7320
 Red. masses --     12.8200                12.0521                 9.9620
 Frc consts  --      0.1038                 0.1359                 0.4462
 IR Inten    --      0.1763                 0.1087                 1.2785

                      7                      8                      9
                      A                      A                      A
 Frequencies --    373.5911               407.8697               452.1339
 Red. masses --     13.7669                 6.3669                11.3215
 Frc consts  --      1.1321                 0.6240                 1.3636
 IR Inten    --      0.2796                 4.3285                 0.2754

                     10                     11                     12
                      A                      A                      A
 Frequencies --    535.2287               579.3146               598.3217
 Red. masses --     13.9994                 4.4543                12.3981
 Frc consts  --      2.3629                 0.8808                 2.6150
 IR Inten    --      8.5265                 5.8127                 2.9697

                     13                     14                     15
                      A                      A                      A
 Frequencies --    615.5071               671.3831               695.0883
 Red. masses --     12.9210                 4.4245                 1.2291
 Frc consts  --      2.8841                 1.1751                 0.3499
 IR Inten    --      0.2604                 9.9945                18.2457

                     16                     17                     18
                      A                      A                      A
 Frequencies --    719.0173               779.7460               849.2319
 Red. masses --     12.5625                 1.2690                 1.3272
 Frc consts  --      3.8265                 0.4546                 0.5639
 IR Inten    --      8.4446                19.2801                 3.7640

                     19                     20                     21
                      A                      A                      A
 Frequencies --    859.4837               898.2488              1026.9208
 Red. masses --      9.3218                 6.3053                 4.6402
 Frc consts  --      4.0572                 2.9975                 2.8831
 IR Inten    --     17.5590                23.9197               225.6075

                     22                     23                     24
                      A                      A                      A
 Frequencies --   1064.6334              1087.9721              1141.5069
 Red. masses --      8.6574                 1.5525                 1.7488
 Frc consts  --      5.7815                 1.0827                 1.3426
 IR Inten    --    115.2507                 4.4166                13.4047

                     25                     26                     27
                      A                      A                      A
 Frequencies --   1216.7740              1247.9556              1300.4364
 Red. masses --     10.6706                 1.8757                 2.0092
 Frc consts  --      9.3080                 1.7211                 2.0020
 IR Inten    --     96.1916                 8.0221                 2.6831

                     28                     29                     30
                      A                      A                      A
 Frequencies --   1365.9941              1387.4872              1410.3866
 Red. masses --     12.7423                10.0371                 5.7903
 Frc consts  --     14.0086                11.3846                 6.7862
 IR Inten    --    754.6748                 7.8421                10.7389

                     31                     32                     33
                      A                      A                      A
 Frequencies --   1502.6103              1558.6499              2281.6472
 Red. masses --      3.4704                 4.3781                13.9981
 Frc consts  --      4.6166                 6.2665                42.9353
 IR Inten    --     17.7741                11.8388               576.9011

                     34                     35                     36
                      A                      A                      A
 Frequencies --   3270.8730              3289.4913              3314.7975
 Red. masses --      1.0940                 1.0983                 1.1032
 Frc consts  --      6.8962                 7.0018                 7.1422
 IR Inten    --      5.2012                 0.7083                 1.3294

 - Thermochemistry -
 -------------------
 Temperature   298.150 Kelvin.  Pressure   1.00000 Atm.
 Atom     1 has atomic number  6 and mass  12.00000

 Molecular mass:   169.00583 amu.
 Principal axes and moments of inertia in atomic units:
                           1         2         3
     Eigenvalues --   988.892392767.403773375.89173
           X            0.99995  -0.00645   0.00706
           Y            0.00647   0.99997  -0.00307
           Z           -0.00704   0.00311   0.99997
 This molecule is an asymmetric top.
 Rotational symmetry number  1.
 Warning -- assumption of classical behavior for rotation
           may cause significant error
 Rotational temperatures (Kelvin)      0.08759     0.03130     0.02566
 Rotational constants (GHZ):           1.82501     0.65214     0.53460
 Zero-point vibrational energy     222636.3 (Joules/Mol)
                                   53.21134 (Kcal/Mol)
 Warning -- explicit consideration of  13 degrees of freedom as
           vibrations may cause significant error
 Vibrational temperatures:     61.41    94.03   115.42   168.67   199.06
          (Kelvin)            396.72   537.51   586.83   650.52   770.07
                              833.50   860.85   885.58   965.97  1000.08
                             1034.51  1121.88  1221.86  1236.61  1292.38
                             1477.51  1531.77  1565.35  1642.37  1750.67
                             1795.53  1871.04  1965.36  1996.28  2029.23
                             2161.92  2242.55  3282.78  4706.06  4732.84
                             4769.25

 Zero-point correction=                           0.084798 (Hartree/Particle)
 Thermal correction to Energy=                    0.094251
 Thermal correction to Enthalpy=                  0.095195
 Thermal correction to Gibbs Free Energy=         0.047901
 Sum of electronic and zero-point Energies=           -901.185027
 Sum of electronic and thermal Energies=              -901.175573
 Sum of electronic and thermal Enthalpies=            -901.174629
 Sum of electronic and thermal Free Energies=         -901.221923

                     E (Thermal)             CV                S
                      KCal/Mol        Cal/Mol-Kelvin    Cal/Mol-Kelvin
 Total                   59.144             33.082             99.539
 Electronic               0.000              0.000              0.000
 Translational            0.889              2.981             41.282
 Rotational               0.889              2.981             30.603
 Vibrational             57.366             27.120             27.654
 Vibration     1          0.595              1.980              5.131
 Vibration     2          0.597              1.971              4.289
 Vibration     3          0.600              1.963              3.885
 Vibration     4          0.608              1.935              3.145
 Vibration     5          0.614              1.915              2.827
 Vibration     6          0.677              1.718              1.560
 Vibration     7          0.745              1.526              1.065
 Vibration     8          0.772              1.453              0.934
 Vibration     9          0.811              1.356              0.789
 Vibration    10          0.890              1.172              0.576
 Vibration    11          0.936              1.076              0.487
 Vibration    12          0.956              1.035              0.453
 Vibration    13          0.975              0.999              0.424

 Optimization completed.
    -- Stationary point found.
 Normal termination of Gaussian 16 at Tue Dec  8 20:52:11 2020.

 ----------------------------------------------------------------------
 # B3LYP/6-311++G(d,p) empiricaldispersion=gd3bj scf=xqc pop=npa geom=c
 heck
 ----------------------------------------------------------------------

 ---------------------------------------
 CID_149610044_JID_1694_Energie_neutraal
 ---------------------------------------
 Structure from the checkpoint file:  "JID_1694.chk"
 Charge =  0 Multiplicity = 1

 SCF Done:  E(RB3LYP) =  -901.434393324     A.U. after   18 cycles
 Normal termination of Gaussian 16 at Tue Dec  8 20:54:17 2020.

 ----------------------------------------------------------------------
 # B3LYP/6-311++G(d,p) empiricaldispersion=gd3bj scf=xqc pop=npa geom=c
 heck
 ----------------------------------------------------------------------

 -------------------------------------
 CID_149610044_JID_1694_Energie_kation
 -------------------------------------
 Structure from the checkpoint file:  "JID_1694.chk"
 Charge =  1 Multiplicity = 2

 SCF Done:  E(UB3LYP) =  -901.104011907     A.U. after   27 cycles
 Normal termination of Gaussian 16 at Tue Dec  8 20:57:49 2020.
 Gaussian 16:  ES64L-G16RevA.03 25-Dec-2016

 ----------------------------------------------------------------------
 # B3LYP/6-311++G(d,p) empiricaldispersion=gd3bj scf=xqc pop=npa geom=c
 heck
 ----------------------------------------------------------------------

 ------------------------------------
 CID_149610044_JID_1694_Energie_anion
 ------------------------------------
 Structure from the checkpoint file:  "JID_1694.chk"
 Charge = -1 Multiplicity = 2

                         Standard orientation:
 ---------------------------------------------------------------------
 Center     Atomic      Atomic             Coordinates (Angstroms)
 Number     Number       Type             X           Y           Z
 ---------------------------------------------------------------------
      1          6           0        3.064124   -0.466301    0.628932
      2          6           0        1.789634   -0.498570    1.132727
      3          7           0        0.998500   -0.531427    0.003341
      4          6           0        1.791883   -0.505952   -1.109790
      5          7           0        3.054530   -0.472801   -0.753264
      6          8           0       -0.376843   -0.602452    0.004036
      7          6           0       -1.041312    0.625421    0.002292
      8         16           0       -0.362758    2.100567   -0.002222
      9          7           0       -2.405569    0.400799    0.004605
     10          7           0       -2.806634   -0.790932    0.006384
     11          7           0       -3.347882   -1.785426    0.008077
     12          1           0        3.993402   -0.440596    1.180356
     13          1           0        1.365399   -0.500802    2.123559
     14          1           0        1.383492   -0.517131   -2.109618
 ---------------------------------------------------------------------

 SCF Done:  E(UB3LYP) =  -901.473802444     A.U. after   24 cycles

 The electronic state is 2-A.
 Alpha  occ. eigenvalues --  -88.63767 -19.07744 -14.31381 -14.30804 -14.22700
 Alpha  occ. eigenvalues --  -14.22627 -14.18969 -10.12156 -10.11767 -10.09539
 Alpha  occ. eigenvalues --  -10.08064  -7.72617  -5.68978  -5.68537  -5.68180
 Alpha  occ. eigenvalues --   -1.02385  -0.99066  -0.88773  -0.83724  -0.73616
 Alpha  occ. eigenvalues --   -0.64878  -0.62782  -0.53133  -0.50019  -0.48514
 Alpha  occ. eigenvalues --   -0.46151  -0.38973  -0.37587  -0.36678  -0.35054
 Alpha  occ. eigenvalues --   -0.33829  -0.31504  -0.31246  -0.29705  -0.28031
 Alpha  occ. eigenvalues --   -0.22945  -0.18589  -0.18049  -0.16262  -0.16042
 Alpha  occ. eigenvalues --   -0.13003  -0.09840  -0.07313   0.03073
 Alpha virt. eigenvalues --    0.08909   0.10323   0.10837   0.11212   0.11769
 Alpha virt. eigenvalues --    0.14217   0.14368   0.15267   0.15596   0.16023
 Alpha virt. eigenvalues --    0.16637   0.17997   0.18303   0.18623   0.19179

  Beta  occ. eigenvalues --  -88.63663 -19.07628 -14.30932 -14.30807 -14.22924
  Beta  occ. eigenvalues --  -14.22079 -14.18970 -10.11763 -10.11363 -10.09534
  Beta  occ. eigenvalues --  -10.08065  -7.72525  -5.68949  -5.68184  -5.68124
  Beta  occ. eigenvalues --   -1.02096  -0.98313  -0.88643  -0.83460  -0.73484
  Beta  occ. eigenvalues --   -0.64681  -0.61992  -0.52800  -0.49976  -0.48219
  Beta  occ. eigenvalues --   -0.46107  -0.38753  -0.36529  -0.35593  -0.34671
  Beta  occ. eigenvalues --   -0.33665  -0.31203  -0.30222  -0.29372  -0.26367
  Beta  occ. eigenvalues --   -0.22147  -0.18510  -0.17334  -0.16026  -0.15521
  Beta  occ. eigenvalues --   -0.12968  -0.07923  -0.07094
  Beta virt. eigenvalues --    0.08880   0.10656   0.10933   0.11197   0.11448
  Beta virt. eigenvalues --    0.11808   0.14256   0.14432   0.15304   0.15637
  Beta virt. eigenvalues --    0.16640   0.17575   0.18062   0.18384   0.18916

 Mulliken charges and spin densities:
               1          2
     1  C   -0.408550  -0.002649
     2  C    0.207156  -0.001451
     3  N   -0.530511  -0.015330
     4  C    0.074060  -0.006836
     5  N   -0.213313   0.001358
     6  O    0.427322   0.027285
     7  C   -0.429061   0.369013
     8  S   -0.454073   0.275983
     9  N    0.093580  -0.128952
    10  N    0.160666   0.108558
    11  N   -0.320971   0.356022
    12  H    0.119973  -0.000082
    13  H    0.132464   0.008628
    14  H    0.141258   0.008454
 Sum of Mulliken charges =  -1.00000   1.00000

 Dipole moment (field-independent basis, Debye):
    X=              2.6922    Y=             -2.8939    Z=              1.1776  Tot=              4.1242
 Quadrupole moment (field-independent basis, Debye-Ang):
   XX=           -107.6097   YY=            -96.3084   ZZ=            -71.2674
   XY=             -3.4472   XZ=              5.8636   YZ=             -0.4257

 Summary of Natural Population Analysis:

                                       Natural Population
                Natural  -----------------------------------------------
    Atom  No    Charge         Core      Valence    Rydberg      Total
 -----------------------------------------------------------------------
      C    1   -0.04293      0.99960     2.02948    0.01385     3.04293
      C    2   -0.03343      0.99955     2.02268    0.01120     3.03343
      N    3   -0.04085      0.99957     2.52739    0.01389     3.54085
      C    4    0.10466      0.99963     1.87872    0.01700     2.89534
      N    5   -0.26060      0.99973     2.74878    0.01210     3.76060
      O    6   -0.19439      0.99985     3.18214    0.01240     4.19439
      C    7    0.27113      0.99968     1.70779    0.02140     2.72887
      S    8   -0.06485      4.99947     3.04980    0.01558     8.06485
      N    9   -0.24691      0.99963     2.73237    0.01491     3.74691
      N   10    0.15755      0.99969     2.32546    0.01730     3.34245
      N   11    0.05169      0.99981     2.43489    0.01360     3.44831
      H   12    0.09214      0.00000     0.40675    0.00111     0.40786
      H   13    0.10858      0.00000     0.39049    0.00092     0.39142
      H   14    0.09822      0.00000     0.40070    0.00108     0.40178
 =======================================================================
   * Total *    0.00000     14.99620    27.83744    0.16636    43.00000

 Normal termination of Gaussian 16 at Tue Dec  8 21:01:51 2020.
