 Gaussian 16, Revision A.03,

 -----------------------------------------------------------
 # opt freq B3LYP/6-31G(d) empiricaldispersion=gd3bj scf=xqc
 -----------------------------------------------------------

 -------------------------------
 CID_103578667_JID_3745_neutraal
 -------------------------------
 Symbolic Z-matrix:
 Charge =  0 Multiplicity = 1

 SCF Done:  E(RB3LYP) =  -886.016408516     A.U. after   13 cycles
 SCF Done:  E(RB3LYP) =  -886.022057318     A.U. after   11 cycles
 SCF Done:  E(RB3LYP) =  -886.022695494     A.U. after   11 cycles
 SCF Done:  E(RB3LYP) =  -886.022910608     A.U. after   11 cycles
 SCF Done:  E(RB3LYP) =  -886.023242573     A.U. after   11 cycles
 SCF Done:  E(RB3LYP) =  -886.023480493     A.U. after   10 cycles
 SCF Done:  E(RB3LYP) =  -886.023531377     A.U. after   10 cycles
 SCF Done:  E(RB3LYP) =  -886.023544315     A.U. after    9 cycles
 SCF Done:  E(RB3LYP) =  -886.023550210     A.U. after    8 cycles
 SCF Done:  E(RB3LYP) =  -886.023555798     A.U. after    8 cycles
 SCF Done:  E(RB3LYP) =  -886.025845407     A.U. after    9 cycles
 SCF Done:  E(RB3LYP) =  -886.025854045     A.U. after    9 cycles
 SCF Done:  E(RB3LYP) =  -886.025858073     A.U. after    9 cycles
 SCF Done:  E(RB3LYP) =  -886.025858570     A.U. after    8 cycles
 SCF Done:  E(RB3LYP) =  -886.025858939     A.U. after    7 cycles
 SCF Done:  E(RB3LYP) =  -886.025858972     A.U. after    7 cycles
 Optimization completed.
    -- Stationary point found.
 Normal termination of Gaussian 16 at Sun Dec 13 16:09:09 2020.

 --------------------------------------------------------------------
 #N Geom=AllCheck Guess=TCheck SCRF=Check GenChk RB3LYP/6-31G(d) Freq
 --------------------------------------------------------------------

 Structure from the checkpoint file:  "JID_3745.chk"
 -------------------------------
 CID_103578667_JID_3745_neutraal
 -------------------------------
 Charge =  0 Multiplicity = 1

 SCF Done:  E(RB3LYP) =  -886.025858972     A.U. after    1 cycles

  Exact polarizability: 152.150   4.085 137.261  -0.658  -2.980 122.043
 Approx polarizability: 183.107   3.279 195.616  -0.937  -6.090 193.779

                      1                      2                      3
                      A                      A                      A
 Frequencies --     22.5185                40.5546                47.2431
 Red. masses --      3.6161                 2.8780                 2.6829
 Frc consts  --      0.0011                 0.0028                 0.0035
 IR Inten    --      0.2889                 0.3714                 0.1559

                      4                      5                      6
                      A                      A                      A
 Frequencies --     82.5482               104.2266               138.6128
 Red. masses --      2.9042                 3.4236                 2.9075
 Frc consts  --      0.0117                 0.0219                 0.0329
 IR Inten    --      0.0510                 0.2764                 3.2547

                      7                      8                      9
                      A                      A                      A
 Frequencies --    158.5247               190.7636               216.4286
 Red. masses --      2.8822                 1.0926                 2.2265
 Frc consts  --      0.0427                 0.0234                 0.0614
 IR Inten    --      0.0199                 0.7793                 0.3330

                     10                     11                     12
                      A                      A                      A
 Frequencies --    227.0488               242.2645               252.9173
 Red. masses --      1.3965                 1.2898                 3.3431
 Frc consts  --      0.0424                 0.0446                 0.1260
 IR Inten    --      1.0199                 0.4056                 0.5565

                     13                     14                     15
                      A                      A                      A
 Frequencies --    268.6023               286.9060               293.8087
 Red. masses --      1.9388                 2.2802                 1.7081
 Frc consts  --      0.0824                 0.1106                 0.0869
 IR Inten    --      1.1169                 0.2734                 0.9226

                     16                     17                     18
                      A                      A                      A
 Frequencies --    357.1551               379.9474               416.1913
 Red. masses --      3.5223                 2.1709                 2.2453
 Frc consts  --      0.2647                 0.1846                 0.2291
 IR Inten    --      2.6628                 0.4837                 0.6103

                     19                     20                     21
                      A                      A                      A
 Frequencies --    432.3004               473.8667               515.9667
 Red. masses --      2.3535                 3.6778                 2.5917
 Frc consts  --      0.2591                 0.4866                 0.4065
 IR Inten    --      0.9393                 5.2938                 1.0709

                     22                     23                     24
                      A                      A                      A
 Frequencies --    595.2645               629.1612               663.9645
 Red. masses --      2.3290                 2.1923                 3.4893
 Frc consts  --      0.4862                 0.5113                 0.9063
 IR Inten    --      2.0402                 2.6271                 5.6214

                     25                     26                     27
                      A                      A                      A
 Frequencies --    721.9387               766.5843               797.2053
 Red. masses --      5.3645                 1.6865                 1.7869
 Frc consts  --      1.6473                 0.5839                 0.6691
 IR Inten    --      0.9376                22.5169                24.0796

                     28                     29                     30
                      A                      A                      A
 Frequencies --    857.0565               860.3311               886.6278
 Red. masses --      1.6162                 1.9325                 2.6476
 Frc consts  --      0.6995                 0.8428                 1.2263
 IR Inten    --      3.6601                 1.5170                 1.1389

                     31                     32                     33
                      A                      A                      A
 Frequencies --    918.5210               928.2989               930.6521
 Red. masses --      1.5653                 2.4701                 2.1349
 Frc consts  --      0.7781                 1.2541                 1.0894
 IR Inten    --      0.8091                 1.4433                 1.9793

                     34                     35                     36
                      A                      A                      A
 Frequencies --    942.4490               967.5692               977.2816
 Red. masses --      1.1842                 2.1035                 1.4036
 Frc consts  --      0.6197                 1.1603                 0.7898
 IR Inten    --      1.2923                 9.9708                 0.1155

                     37                     38                     39
                      A                      A                      A
 Frequencies --    994.9484              1002.7874              1008.6641
 Red. masses --      1.2109                 1.3423                 1.6417
 Frc consts  --      0.7063                 0.7953                 0.9841
 IR Inten    --     10.6154                 9.4536                 3.9615

                     40                     41                     42
                      A                      A                      A
 Frequencies --   1032.6200              1039.3393              1054.5267
 Red. masses --      1.6415                 1.6492                 1.7960
 Frc consts  --      1.0313                 1.0496                 1.1767
 IR Inten    --      4.3527                 3.0700                 1.7065

                     43                     44                     45
                      A                      A                      A
 Frequencies --   1087.4416              1119.4657              1167.5147
 Red. masses --      2.5030                 2.5751                 1.6212
 Frc consts  --      1.7439                 1.9014                 1.3020
 IR Inten    --      6.2807                 1.3232                 1.5350

                     46                     47                     48
                      A                      A                      A
 Frequencies --   1172.4105              1181.9409              1196.8989
 Red. masses --      1.9063                 2.7215                 1.8843
 Frc consts  --      1.5439                 2.2400                 1.5905
 IR Inten    --     20.0910                23.5274                 7.1395

                     49                     50                     51
                      A                      A                      A
 Frequencies --   1209.0020              1216.9050              1254.8085
 Red. masses --      1.7290                 1.5210                 1.4292
 Frc consts  --      1.4890                 1.3271                 1.3259
 IR Inten    --      7.8718                 4.4727                 2.1621

                     52                     53                     54
                      A                      A                      A
 Frequencies --   1267.2813              1300.7029              1306.8052
 Red. masses --      1.2547                 1.2247                 1.2664
 Frc consts  --      1.1872                 1.2208                 1.2742
 IR Inten    --      6.3497                 2.6832                 9.7206

                     55                     56                     57
                      A                      A                      A
 Frequencies --   1313.3854              1333.9843              1353.2867
 Red. masses --      1.2592                 1.2856                 1.3622
 Frc consts  --      1.2798                 1.3479                 1.4698
 IR Inten    --      3.8204                 3.4697                 2.0378

                     58                     59                     60
                      A                      A                      A
 Frequencies --   1357.0955              1360.8714              1368.1834
 Red. masses --      1.2568                 1.2613                 1.1795
 Frc consts  --      1.3638                 1.3762                 1.3009
 IR Inten    --      0.3908                 1.0969                 0.0434

                     61                     62                     63
                      A                      A                      A
 Frequencies --   1377.5472              1386.5590              1396.7101
 Red. masses --      1.3017                 1.3985                 1.4120
 Frc consts  --      1.4554                 1.5841                 1.6229
 IR Inten    --      7.3378                14.3788                28.3831

                     64                     65                     66
                      A                      A                      A
 Frequencies --   1415.2134              1430.3687              1432.5388
 Red. masses --      1.4801                 1.3046                 1.3925
 Frc consts  --      1.7465                 1.5726                 1.6837
 IR Inten    --      0.0189                 6.1002                 0.7436

                     67                     68                     69
                      A                      A                      A
 Frequencies --   1449.8467              1491.1782              1503.7036
 Red. masses --      1.2364                 1.0558                 1.0962
 Frc consts  --      1.5313                 1.3833                 1.4603
 IR Inten    --      4.1598                 0.6709                 0.2097

                     70                     71                     72
                      A                      A                      A
 Frequencies --   1513.9320              1518.1812              1520.3591
 Red. masses --      1.1459                 1.0666                 1.1272
 Frc consts  --      1.5474                 1.4485                 1.5351
 IR Inten    --     13.6561                 3.6131                 9.2053

                     73                     74                     75
                      A                      A                      A
 Frequencies --   1522.6343              1525.5262              1532.2265
 Red. masses --      1.0867                 1.0631                 1.0586
 Frc consts  --      1.4844                 1.4577                 1.4643
 IR Inten    --      4.2980                 6.4112                 4.2141

                     76                     77                     78
                      A                      A                      A
 Frequencies --   1534.2648              1537.4400              1539.9969
 Red. masses --      1.0592                 1.0640                 1.1062
 Frc consts  --      1.4690                 1.4818                 1.5457
 IR Inten    --      9.1485                 6.1002                 3.5379

                     79                     80                     81
                      A                      A                      A
 Frequencies --   1545.5168              2906.6208              2941.7244
 Red. masses --      1.0650                 1.0821                 1.0738
 Frc consts  --      1.4989                 5.3865                 5.4747
 IR Inten    --      7.9119                52.6067                87.4118

                     82                     83                     84
                      A                      A                      A
 Frequencies --   3013.0812              3029.2240              3036.4338
 Red. masses --      1.0814                 1.0619                 1.0360
 Frc consts  --      5.7843                 5.7412                 5.6278
 IR Inten    --      8.6685                30.1150                38.6010

                     85                     86                     87
                      A                      A                      A
 Frequencies --   3042.1990              3047.0637              3049.2361
 Red. masses --      1.0381                 1.0668                 1.0604
 Frc consts  --      5.6607                 5.8360                 5.8091
 IR Inten    --     34.8939                18.3388                33.8275

                     88                     89                     90
                      A                      A                      A
 Frequencies --   3059.7489              3075.0870              3078.3547
 Red. masses --      1.0324                 1.0625                 1.0995
 Frc consts  --      5.6949                 5.9198                 6.1391
 IR Inten    --     29.8558                21.1450                25.9459

                     91                     92                     93
                      A                      A                      A
 Frequencies --   3080.7945              3094.6189              3099.5404
 Red. masses --      1.0876                 1.1013                 1.1015
 Frc consts  --      6.0821                 6.2142                 6.2351
 IR Inten    --     10.7270                40.3992                 8.0233

                     94                     95                     96
                      A                      A                      A
 Frequencies --   3104.7421              3105.9141              3107.5366
 Red. masses --      1.0984                 1.1005                 1.0914
 Frc consts  --      6.2383                 6.2551                 6.2098
 IR Inten    --     41.4542                64.6300                34.7895

                     97                     98                     99
                      A                      A                      A
 Frequencies --   3109.3669              3111.7121              3120.6632
 Red. masses --      1.0980                 1.1021                 1.1048
 Frc consts  --      6.2545                 6.2873                 6.3388
 IR Inten    --     20.6913                56.9551                46.6152

                    100                    101                    102
                      A                      A                      A
 Frequencies --   3138.6371              3174.3990              3488.9884
 Red. masses --      1.1025                 1.1061                 1.0734
 Frc consts  --      6.3990                 6.5668                 7.6989
 IR Inten    --     13.8061                 1.2829                 0.4555

 - Thermochemistry -
 -------------------
 Temperature   298.150 Kelvin.  Pressure   1.00000 Atm.
 Atom     1 has atomic number  6 and mass  12.00000

 Molecular mass:   201.15512 amu.
 Principal axes and moments of inertia in atomic units:
                           1         2         3
     Eigenvalues --  1605.453045105.693465918.04446
           X            0.99994   0.01042   0.00378
           Y           -0.01030   0.99949  -0.03028
           Z           -0.00409   0.03024   0.99953
 This molecule is an asymmetric top.
 Rotational symmetry number  1.
 Warning -- assumption of classical behavior for rotation
           may cause significant error
 Rotational temperatures (Kelvin)      0.05395     0.01696     0.01464
 Rotational constants (GHZ):           1.12413     0.35348     0.30496
 Zero-point vibrational energy     870173.2 (Joules/Mol)
                                  207.97639 (Kcal/Mol)
 Warning -- explicit consideration of  22 degrees of freedom as
           vibrations may cause significant error
 Vibrational temperatures:     32.40    58.35    67.97   118.77   149.96
          (Kelvin)            199.43   228.08   274.47   311.39   326.67
                              348.56   363.89   386.46   412.79   422.73
                              513.87   546.66   598.81   621.98   681.79
                              742.36   856.45   905.22   955.30  1038.71
                             1102.94  1147.00  1233.11  1237.82  1275.66
                             1321.55  1335.62  1339.00  1355.97  1392.12
                             1406.09  1431.51  1442.79  1451.24  1485.71
                             1495.38  1517.23  1564.59  1610.66  1679.79
                             1686.84  1700.55  1722.07  1739.48  1750.85
                             1805.39  1823.34  1871.42  1880.20  1889.67
                             1919.31  1947.08  1952.56  1957.99  1968.51
                             1981.98  1994.95  2009.55  2036.18  2057.98
                             2061.10  2086.01  2145.47  2163.49  2178.21
                             2184.32  2187.46  2190.73  2194.89  2204.53
                             2207.46  2212.03  2215.71  2223.65  4181.98
                             4232.49  4335.15  4358.38  4368.75  4377.05
                             4384.04  4387.17  4402.30  4424.36  4429.07
                             4432.58  4452.47  4459.55  4467.03  4468.72
                             4471.05  4473.69  4477.06  4489.94  4515.80
                             4567.25  5019.88

 Zero-point correction=                           0.331431 (Hartree/Particle)
 Thermal correction to Energy=                    0.347018
 Thermal correction to Enthalpy=                  0.347962
 Thermal correction to Gibbs Free Energy=         0.287547
 Sum of electronic and zero-point Energies=           -885.694427
 Sum of electronic and thermal Energies=              -885.678841
 Sum of electronic and thermal Enthalpies=            -885.677897
 Sum of electronic and thermal Free Energies=         -885.738312

                     E (Thermal)             CV                S
                      KCal/Mol        Cal/Mol-Kelvin    Cal/Mol-Kelvin
 Total                  217.757             58.405            127.156
 Electronic               0.000              0.000              0.000
 Translational            0.889              2.981             41.801
 Rotational               0.889              2.981             32.251
 Vibrational            215.980             52.443             53.104
 Vibration     1          0.593              1.985              6.399
 Vibration     2          0.594              1.981              5.232
 Vibration     3          0.595              1.979              4.930
 Vibration     4          0.600              1.961              3.829
 Vibration     5          0.605              1.946              3.374
 Vibration     6          0.614              1.915              2.823
 Vibration     7          0.621              1.893              2.567
 Vibration     8          0.634              1.853              2.220
 Vibration     9          0.645              1.816              1.989
 Vibration    10          0.651              1.800              1.902
 Vibration    11          0.658              1.776              1.786
 Vibration    12          0.664              1.758              1.710
 Vibration    13          0.673              1.731              1.605
 Vibration    14          0.684              1.698              1.492
 Vibration    15          0.689              1.685              1.452
 Vibration    16          0.732              1.561              1.134
 Vibration    17          0.750              1.513              1.039
 Vibration    18          0.779              1.435              0.905
 Vibration    19          0.793              1.400              0.851
 Vibration    20          0.831              1.308              0.727
 Vibration    21          0.871              1.215              0.619
 Vibration    22          0.953              1.042              0.458

 Optimization completed.
    -- Stationary point found.
 Normal termination of Gaussian 16 at Sun Dec 13 16:19:09 2020.

 ----------------------------------------------------------------------
 # B3LYP/6-311++G(d,p) empiricaldispersion=gd3bj scf=xqc pop=npa geom=c
 heck
 ----------------------------------------------------------------------

 ---------------------------------------
 CID_103578667_JID_3745_Energie_neutraal
 ---------------------------------------
 Structure from the checkpoint file:  "JID_3745.chk"
 Charge =  0 Multiplicity = 1

 SCF Done:  E(RB3LYP) =  -886.190919468     A.U. after   13 cycles
 Normal termination of Gaussian 16 at Sun Dec 13 16:23:40 2020.

 ----------------------------------------------------------------------
 # B3LYP/6-311++G(d,p) empiricaldispersion=gd3bj scf=xqc pop=npa geom=c
 heck
 ----------------------------------------------------------------------

 -------------------------------------
 CID_103578667_JID_3745_Energie_kation
 -------------------------------------
 Structure from the checkpoint file:  "JID_3745.chk"
 Charge =  1 Multiplicity = 2

 SCF Done:  E(UB3LYP) =  -885.906524569     A.U. after   19 cycles
 Normal termination of Gaussian 16 at Sun Dec 13 16:32:29 2020.
 Gaussian 16:  ES64L-G16RevA.03 25-Dec-2016

 ----------------------------------------------------------------------
 # B3LYP/6-311++G(d,p) empiricaldispersion=gd3bj scf=xqc pop=npa geom=c
 heck
 ----------------------------------------------------------------------

 ------------------------------------
 CID_103578667_JID_3745_Energie_anion
 ------------------------------------
 Structure from the checkpoint file:  "JID_3745.chk"
 Charge = -1 Multiplicity = 2

                         Standard orientation:
 ---------------------------------------------------------------------
 Center     Atomic      Atomic             Coordinates (Angstroms)
 Number     Number       Type             X           Y           Z
 ---------------------------------------------------------------------
      1          6           0       -3.735209    1.490522   -0.203387
      2          6           0       -3.295229    0.130133    0.353262
      3          6           0       -4.514285   -0.713557    0.745045
      4          6           0       -2.406099   -0.648557   -0.632889
      5          6           0       -1.133560    0.068500   -1.085102
      6          7           0       -0.290830    0.432846    0.054565
      7          6           0        1.002956    0.983271   -0.320756
      8          6           0        1.668382    1.747932    0.831245
      9          6           0        3.139923    1.820016    0.409573
     10          6           0        3.416316    0.405426   -0.129157
     11          6           0        2.082173   -0.069785   -0.769503
     12         16           0        1.709005   -1.842916   -0.463143
     13          6           0        1.471152   -1.893942    1.345207
     14          1           0       -4.296565    1.364154   -1.138096
     15          1           0       -2.883042    2.145747   -0.417166
     16          1           0       -4.385348    2.013709    0.507315
     17          1           0       -2.710066    0.305011    1.268373
     18          1           0       -5.144203   -0.915637   -0.130921
     19          1           0       -4.210107   -1.678676    1.166319
     20          1           0       -5.133364   -0.199086    1.489293
     21          1           0       -2.113424   -1.599123   -0.169894
     22          1           0       -2.999337   -0.896260   -1.525106
     23          1           0       -0.556723   -0.615664   -1.713572
     24          1           0       -1.382952    0.946018   -1.711442
     25          1           0       -0.778599    1.132238    0.611182
     26          1           0        0.899786    1.689992   -1.167963
     27          1           0        1.212218    2.730348    0.999540
     28          1           0        1.565153    1.165618    1.756222
     29          1           0        3.810903    2.099804    1.228112
     30          1           0        3.261585    2.567501   -0.384955
     31          1           0        3.685057   -0.253475    0.702691
     32          1           0        4.244916    0.364988   -0.842229
     33          1           0        2.164929   -0.049303   -1.860281
     34          1           0        2.356910   -1.538100    1.880779
     35          1           0        0.596375   -1.299651    1.612092
     36          1           0        1.308502   -2.943173    1.606801
 ---------------------------------------------------------------------

 SCF Done:  E(UB3LYP) =  -886.176133534     A.U. after   29 cycles

 The electronic state is 2-A.
 Alpha  occ. eigenvalues --  -88.73570 -14.19685 -10.10206 -10.10030 -10.08856
 Alpha  occ. eigenvalues --  -10.08686 -10.07646 -10.07100 -10.06712 -10.06491
 Alpha  occ. eigenvalues --  -10.06445 -10.06372 -10.05814  -7.82177  -5.78588
 Alpha  occ. eigenvalues --   -5.78204  -5.77536  -0.81483  -0.73893  -0.70851
 Alpha  occ. eigenvalues --   -0.67938  -0.63306  -0.61291  -0.58845  -0.58630
 Alpha  occ. eigenvalues --   -0.52977  -0.51833  -0.48103  -0.45805  -0.44023
 Alpha  occ. eigenvalues --   -0.40428  -0.39077  -0.37734  -0.35764  -0.35163
 Alpha  occ. eigenvalues --   -0.33844  -0.33273  -0.32483  -0.31573  -0.30102
 Alpha  occ. eigenvalues --   -0.29473  -0.29103  -0.28293  -0.27422  -0.26943
 Alpha  occ. eigenvalues --   -0.25481  -0.24748  -0.24262  -0.23548  -0.22931
 Alpha  occ. eigenvalues --   -0.22754  -0.22037  -0.21552  -0.20333  -0.13253
 Alpha  occ. eigenvalues --   -0.12028   0.04434
 Alpha virt. eigenvalues --    0.06207   0.06720   0.07428   0.08015   0.08379
 Alpha virt. eigenvalues --    0.08862   0.09618   0.10103   0.10408   0.10689
 Alpha virt. eigenvalues --    0.10693   0.11423   0.11870   0.12625   0.12858

  Beta  occ. eigenvalues --  -88.73568 -14.19671 -10.10203 -10.10016 -10.08841
  Beta  occ. eigenvalues --  -10.08676 -10.07638 -10.07084 -10.06686 -10.06485
  Beta  occ. eigenvalues --  -10.06420 -10.06351 -10.05777  -7.82176  -5.78586
  Beta  occ. eigenvalues --   -5.78200  -5.77535  -0.81461  -0.73865  -0.70827
  Beta  occ. eigenvalues --   -0.67917  -0.63275  -0.61255  -0.58787  -0.58584
  Beta  occ. eigenvalues --   -0.52941  -0.51790  -0.48024  -0.45763  -0.43985
  Beta  occ. eigenvalues --   -0.40392  -0.39022  -0.37698  -0.35730  -0.35134
  Beta  occ. eigenvalues --   -0.33818  -0.33247  -0.32448  -0.31542  -0.30074
  Beta  occ. eigenvalues --   -0.29447  -0.29072  -0.28255  -0.27394  -0.26917
  Beta  occ. eigenvalues --   -0.25450  -0.24706  -0.24214  -0.23511  -0.22898
  Beta  occ. eigenvalues --   -0.22722  -0.22014  -0.21521  -0.20315  -0.13212
  Beta  occ. eigenvalues --   -0.12016
  Beta virt. eigenvalues --    0.06471   0.06991   0.07168   0.07971   0.08450
  Beta virt. eigenvalues --    0.08767   0.09377   0.09890   0.10335   0.10737
  Beta virt. eigenvalues --    0.10972   0.11084   0.11625   0.12084   0.12811

 Mulliken charges and spin densities:
               1          2
     1  C    1.003331  -1.661245
     2  C   -0.802619   1.335998
     3  C    0.016793  -0.650446
     4  C    0.148582  -0.765296
     5  C    0.120676  -0.292281
     6  N    0.110901   0.004847
     7  C   -0.504397  -0.175353
     8  C    0.055555  -0.196074
     9  C    0.158041  -0.844384
    10  C   -0.160347  -0.423212
    11  C    0.500501   0.028111
    12  S   -0.270934   0.267985
    13  C   -0.061655  -0.549115
    14  H   -0.064163   0.200024
    15  H   -0.318689   0.472791
    16  H   -0.338438   0.480908
    17  H   -0.059068   0.202614
    18  H   -0.031643   0.157112
    19  H   -0.084341   0.212056
    20  H   -0.121530   0.263641
    21  H    0.218819  -0.084832
    22  H   -0.012089   0.149201
    23  H    0.111506  -0.019312
    24  H    0.056691   0.091751
    25  H    0.322515  -0.078853
    26  H   -0.230064   0.401558
    27  H   -0.451788   0.635773
    28  H    0.049169   0.082486
    29  H   -0.400332   0.582572
    30  H   -0.082469   0.224570
    31  H    0.130933  -0.019529
    32  H   -0.134634   0.284890
    33  H   -0.001363   0.287729
    34  H   -0.100828   0.241277
    35  H    0.101218   0.119173
    36  H    0.126160   0.032868
 Sum of Mulliken charges =  -1.00000   1.00000

 Dipole moment (field-independent basis, Debye):
    X=              0.9398    Y=             -5.2798    Z=             -0.7880  Tot=              5.4204
 Quadrupole moment (field-independent basis, Debye-Ang):
   XX=           -175.5310   YY=           -144.8942   ZZ=           -124.8135
   XY=              1.1219   XZ=              4.4852   YZ=             -1.4524

 Summary of Natural Population Analysis:

                                       Natural Population
                Natural  -----------------------------------------------
    Atom  No    Charge         Core      Valence    Rydberg      Total
 -----------------------------------------------------------------------
      C    1   -0.28758      0.99965     2.28125    0.00668     3.28758
      C    2   -0.11910      0.99961     2.10969    0.00980     3.11910
      C    3   -0.27975      0.99965     2.27531    0.00479     3.27975
      C    4   -0.18746      0.99961     2.17965    0.00821     3.18746
      C    5   -0.08763      0.99962     2.07699    0.01103     3.08763
      N    6   -0.34486      0.99971     2.83257    0.01257     3.84486
      C    7   -0.01062      0.99956     1.99626    0.01480     3.01062
      C    8   -0.19224      0.99961     2.18319    0.00944     3.19224
      C    9   -0.19002      0.99963     2.18215    0.00824     3.19002
      C   10   -0.19452      0.99961     2.18473    0.01017     3.19452
      C   11   -0.17022      0.99954     2.15676    0.01392     3.17022
      S   12    0.08970      4.99960     2.89291    0.01778     7.91030
      C   13   -0.35453      0.99961     2.34959    0.00532     3.35453
      H   14    0.09490      0.00000     0.40406    0.00104     0.40510
      H   15    0.10139      0.00000     0.39710    0.00152     0.39861
      H   16    0.10060      0.00000     0.39823    0.00118     0.39940
      H   17    0.09258      0.00000     0.40524    0.00218     0.40742
      H   18    0.09413      0.00000     0.40489    0.00098     0.40587
      H   19    0.09757      0.00000     0.40143    0.00100     0.40243
      H   20    0.09904      0.00000     0.39999    0.00097     0.40096
      H   21    0.09951      0.00000     0.39918    0.00132     0.40049
      H   22    0.09370      0.00000     0.40529    0.00101     0.40630
      H   23    0.09804      0.00000     0.40037    0.00159     0.40196
      H   24    0.07934      0.00000     0.41922    0.00144     0.42066
      H   25    0.17434      0.00000     0.32142    0.00424     0.32566
      H   26    0.08518      0.00000     0.41214    0.00268     0.41482
      H   27    0.10465      0.00000     0.39352    0.00183     0.39535
      H   28    0.09608      0.00000     0.40202    0.00190     0.40392
      H   29    0.10046      0.00000     0.39845    0.00109     0.39954
      H   30    0.09684      0.00000     0.40130    0.00186     0.40316
      H   31    0.09754      0.00000     0.40105    0.00141     0.40246
      H   32    0.10223      0.00000     0.39639    0.00139     0.39777
      H   33    0.10627      0.00000     0.39255    0.00118     0.39373
      H   34    0.09709      0.00000     0.40120    0.00171     0.40291
      H   35    0.11473      0.00000     0.38342    0.00185     0.38527
      H   36    0.10262      0.00000     0.39634    0.00103     0.39738
 =======================================================================
   * Total *   -0.00000     16.99502    38.83584    0.16913    56.00000

 Normal termination of Gaussian 16 at Sun Dec 13 16:45:27 2020.
