 Gaussian 16, Revision A.03,

 -----------------------------------------------------------
 # opt freq B3LYP/6-31G(d) empiricaldispersion=gd3bj scf=xqc
 -----------------------------------------------------------

 ------------------------------
 CID_143618394_JID_851_neutraal
 ------------------------------
 Symbolic Z-matrix:
 Charge =  0 Multiplicity = 1

 SCF Done:  E(RB3LYP) =  -458.679164212     A.U. after   14 cycles
 SCF Done:  E(RB3LYP) =  -458.682345335     A.U. after   12 cycles
 SCF Done:  E(RB3LYP) =  -458.682655624     A.U. after   12 cycles
 SCF Done:  E(RB3LYP) =  -458.682816000     A.U. after   11 cycles
 SCF Done:  E(RB3LYP) =  -458.682884357     A.U. after   10 cycles
 SCF Done:  E(RB3LYP) =  -458.682926536     A.U. after   11 cycles
 SCF Done:  E(RB3LYP) =  -458.682937801     A.U. after   10 cycles
 SCF Done:  E(RB3LYP) =  -458.682944767     A.U. after   11 cycles
 SCF Done:  E(RB3LYP) =  -458.682974553     A.U. after   10 cycles
 SCF Done:  E(RB3LYP) =  -458.683055262     A.U. after   12 cycles
 SCF Done:  E(RB3LYP) =  -458.683546239     A.U. after   10 cycles
 SCF Done:  E(RB3LYP) =  -458.683555019     A.U. after   10 cycles
 SCF Done:  E(RB3LYP) =  -458.683557486     A.U. after    8 cycles
 SCF Done:  E(RB3LYP) =  -458.683560199     A.U. after    9 cycles
 SCF Done:  E(RB3LYP) =  -458.683561222     A.U. after    8 cycles
 SCF Done:  E(RB3LYP) =  -458.683561330     A.U. after    7 cycles
 Optimization completed.
    -- Stationary point found.
 Normal termination of Gaussian 16 at Tue Dec  8 12:51:34 2020.

 --------------------------------------------------------------------
 #N Geom=AllCheck Guess=TCheck SCRF=Check GenChk RB3LYP/6-31G(d) Freq
 --------------------------------------------------------------------

 Structure from the checkpoint file:  "JID_851.chk"
 ------------------------------
 CID_143618394_JID_851_neutraal
 ------------------------------
 Charge =  0 Multiplicity = 1

 SCF Done:  E(RB3LYP) =  -458.683561330     A.U. after    1 cycles

  Exact polarizability: 122.640   6.195  80.003   5.119  -5.993  63.189
 Approx polarizability: 155.110  10.526 128.602  12.677 -17.599  96.632

                      1                      2                      3
                      A                      A                      A
 Frequencies --     39.2127                70.6687                91.3643
 Red. masses --      3.2331                 3.4732                 2.4079
 Frc consts  --      0.0029                 0.0102                 0.0118
 IR Inten    --      2.8329                 3.6464                 0.9424

                      4                      5                      6
                      A                      A                      A
 Frequencies --    128.4486               152.5603               193.3414
 Red. masses --      1.5456                 1.7191                 2.0890
 Frc consts  --      0.0150                 0.0236                 0.0460
 IR Inten    --      0.1289                 1.6827                 3.4344

                      7                      8                      9
                      A                      A                      A
 Frequencies --    250.8518               277.7573               300.6541
 Red. masses --      1.7317                 1.9752                 2.6593
 Frc consts  --      0.0642                 0.0898                 0.1416
 IR Inten    --      0.9249                 1.8404                 8.8687

                     10                     11                     12
                      A                      A                      A
 Frequencies --    365.5141               445.9918               453.8551
 Red. masses --      2.7785                 2.2765                 2.3845
 Frc consts  --      0.2187                 0.2668                 0.2894
 IR Inten    --      1.0127                38.5963                36.2819

                     13                     14                     15
                      A                      A                      A
 Frequencies --    529.1844               635.5882               680.7005
 Red. masses --      2.7946                 2.7639                 6.0720
 Frc consts  --      0.4611                 0.6579                 1.6577
 IR Inten    --     54.3496                15.4649                 3.7176

                     16                     17                     18
                      A                      A                      A
 Frequencies --    717.1476               736.7124               745.7773
 Red. masses --      1.4171                 3.0910                 2.4243
 Frc consts  --      0.4294                 0.9884                 0.7944
 IR Inten    --     11.6346                41.6027                 3.4893

                     19                     20                     21
                      A                      A                      A
 Frequencies --    819.4721               869.3903               897.3663
 Red. masses --      1.6138                 2.9159                 2.7444
 Frc consts  --      0.6385                 1.2985                 1.3021
 IR Inten    --     11.5660                 4.0746                 5.1486

                     22                     23                     24
                      A                      A                      A
 Frequencies --    911.0053               998.5456              1022.2920
 Red. masses --      1.9589                 4.3524                 4.4918
 Frc consts  --      0.9579                 2.5569                 2.7658
 IR Inten    --      4.7449                 0.4214                 1.9331

                     25                     26                     27
                      A                      A                      A
 Frequencies --   1066.8919              1080.0253              1094.7941
 Red. masses --      1.7512                 2.1594                 1.9345
 Frc consts  --      1.1744                 1.4841                 1.3661
 IR Inten    --      2.3496                13.6912                 2.9098

                     28                     29                     30
                      A                      A                      A
 Frequencies --   1128.1042              1153.9406              1167.5148
 Red. masses --      1.6360                 1.3814                 1.4548
 Frc consts  --      1.2267                 1.0837                 1.1684
 IR Inten    --      0.7483                26.4910                 5.3205

                     31                     32                     33
                      A                      A                      A
 Frequencies --   1207.6297              1258.1170              1309.5035
 Red. masses --      2.0917                 1.3717                 1.2408
 Frc consts  --      1.7973                 1.2793                 1.2536
 IR Inten    --     43.7733                 5.2254                 3.6249

                     34                     35                     36
                      A                      A                      A
 Frequencies --   1367.7786              1378.9685              1391.5389
 Red. masses --      2.6585                 1.7680                 1.4031
 Frc consts  --      2.9303                 1.9808                 1.6008
 IR Inten    --      0.9474                 6.2308                 7.1118

                     37                     38                     39
                      A                      A                      A
 Frequencies --   1442.5165              1448.9475              1478.0849
 Red. masses --      1.2806                 1.7096                 1.4262
 Frc consts  --      1.5701                 2.1147                 1.8359
 IR Inten    --      4.9877                 3.9176                66.7826

                     40                     41                     42
                      A                      A                      A
 Frequencies --   1508.7664              1516.2723              1517.1254
 Red. masses --      1.1293                 1.1503                 1.1190
 Frc consts  --      1.5146                 1.5581                 1.5174
 IR Inten    --      2.1935                 8.6631                28.5208

                     43                     44                     45
                      A                      A                      A
 Frequencies --   1525.9858              1530.8036              1540.9744
 Red. masses --      1.5420                 1.0758                 1.0776
 Frc consts  --      2.1156                 1.4854                 1.5076
 IR Inten    --     22.4930                 9.9463                 6.7460

                     46                     47                     48
                      A                      A                      A
 Frequencies --   1543.1395              1568.9622              1678.6112
 Red. masses --      1.1493                 4.1559                 5.6218
 Frc consts  --      1.6124                 6.0276                 9.3330
 IR Inten    --      4.0544                82.8830               432.2713

                     49                     50                     51
                      A                      A                      A
 Frequencies --   3028.9528              3043.4731              3044.8091
 Red. masses --      1.0511                 1.0397                 1.0612
 Frc consts  --      5.6818                 5.6740                 5.7963
 IR Inten    --     75.3754                22.1472                35.4990

                     52                     53                     54
                      A                      A                      A
 Frequencies --   3049.9318              3083.2208              3104.5724
 Red. masses --      1.0653                 1.0984                 1.0996
 Frc consts  --      5.8387                 6.1522                 6.2444
 IR Inten    --     19.3847                18.4846                18.4155

                     55                     56                     57
                      A                      A                      A
 Frequencies --   3110.3736              3122.3024              3126.7016
 Red. masses --      1.1009                 1.0845                 1.1020
 Frc consts  --      6.2754                 6.2292                 6.3474
 IR Inten    --     50.4652                27.4003                43.2335

                     58                     59                     60
                      A                      A                      A
 Frequencies --   3164.1614              3285.9028              3611.1675
 Red. masses --      1.1050                 1.0975                 1.0761
 Frc consts  --      6.5184                 6.9817                 8.2680
 IR Inten    --     12.4123                 1.8939                24.2454

 - Thermochemistry -
 -------------------
 Temperature   298.150 Kelvin.  Pressure   1.00000 Atm.
 Atom     1 has atomic number  6 and mass  12.00000

 Molecular mass:   140.09496 amu.
 Principal axes and moments of inertia in atomic units:
                           1         2         3
     Eigenvalues --   536.113432666.273632964.67370
           X            0.99999  -0.00488  -0.00194
           Y            0.00490   0.99994   0.00962
           Z            0.00189  -0.00963   0.99995
 This molecule is an asymmetric top.
 Rotational symmetry number  1.
 Warning -- assumption of classical behavior for rotation
           may cause significant error
 Rotational temperatures (Kelvin)      0.16156     0.03249     0.02922
 Rotational constants (GHZ):           3.36634     0.67688     0.60875
 Zero-point vibrational energy     496533.8 (Joules/Mol)
                                  118.67443 (Kcal/Mol)
 Warning -- explicit consideration of  13 degrees of freedom as
           vibrations may cause significant error
 Vibrational temperatures:     56.42   101.68   131.45   184.81   219.50
          (Kelvin)            278.18   360.92   399.63   432.57   525.89
                              641.68   653.00   761.38   914.47   979.38
                             1031.82  1059.96  1073.01  1179.04  1250.86
                             1291.11  1310.73  1436.68  1470.85  1535.02
                             1553.92  1575.16  1623.09  1660.26  1679.79
                             1737.51  1810.15  1884.08  1967.93  1984.03
                             2002.11  2075.46  2084.71  2126.63  2170.78
                             2181.58  2182.81  2195.55  2202.48  2217.12
                             2220.23  2257.39  2415.15  4357.99  4378.88
                             4380.80  4388.17  4436.07  4466.79  4475.13
                             4492.30  4498.63  4552.52  4727.68  5195.66

 Zero-point correction=                           0.189120 (Hartree/Particle)
 Thermal correction to Energy=                    0.199809
 Thermal correction to Enthalpy=                  0.200753
 Thermal correction to Gibbs Free Energy=         0.152117
 Sum of electronic and zero-point Energies=           -458.494442
 Sum of electronic and thermal Energies=              -458.483752
 Sum of electronic and thermal Enthalpies=            -458.482808
 Sum of electronic and thermal Free Energies=         -458.531444

                     E (Thermal)             CV                S
                      KCal/Mol        Cal/Mol-Kelvin    Cal/Mol-Kelvin
 Total                  125.382             38.455            102.363
 Electronic               0.000              0.000              0.000
 Translational            0.889              2.981             40.723
 Rotational               0.889              2.981             29.828
 Vibrational            123.605             32.493             31.812
 Vibration     1          0.594              1.981              5.298
 Vibration     2          0.598              1.968              4.135
 Vibration     3          0.602              1.955              3.631
 Vibration     4          0.611              1.925              2.969
 Vibration     5          0.619              1.900              2.640
 Vibration     6          0.635              1.849              2.196
 Vibration     7          0.663              1.761              1.725
 Vibration     8          0.679              1.715              1.547
 Vibration     9          0.693              1.672              1.413
 Vibration    10          0.739              1.543              1.099
 Vibration    11          0.805              1.370              0.808
 Vibration    12          0.812              1.352              0.784
 Vibration    13          0.884              1.185              0.589

 Optimization completed.
    -- Stationary point found.
 Normal termination of Gaussian 16 at Tue Dec  8 13:08:23 2020.

 ----------------------------------------------------------------------
 # B3LYP/6-311++G(d,p) empiricaldispersion=gd3bj scf=xqc pop=npa geom=c
 heck
 ----------------------------------------------------------------------

 --------------------------------------
 CID_143618394_JID_851_Energie_neutraal
 --------------------------------------
 Structure from the checkpoint file:  "JID_851.chk"
 Charge =  0 Multiplicity = 1

 SCF Done:  E(RB3LYP) =  -458.813667889     A.U. after   15 cycles
 Normal termination of Gaussian 16 at Tue Dec  8 13:12:48 2020.

 ----------------------------------------------------------------------
 # B3LYP/6-311++G(d,p) empiricaldispersion=gd3bj scf=xqc pop=npa geom=c
 heck
 ----------------------------------------------------------------------

 ------------------------------------
 CID_143618394_JID_851_Energie_kation
 ------------------------------------
 Structure from the checkpoint file:  "JID_851.chk"
 Charge =  1 Multiplicity = 2

 SCF Done:  E(UB3LYP) =  -458.522706465     A.U. after   22 cycles
 Normal termination of Gaussian 16 at Tue Dec  8 13:23:54 2020.
 Gaussian 16:  ES64L-G16RevA.03 25-Dec-2016

 ----------------------------------------------------------------------
 # B3LYP/6-311++G(d,p) empiricaldispersion=gd3bj scf=xqc pop=npa geom=c
 heck
 ----------------------------------------------------------------------

 -----------------------------------
 CID_143618394_JID_851_Energie_anion
 -----------------------------------
 Structure from the checkpoint file:  "JID_851.chk"
 Charge = -1 Multiplicity = 2

                         Standard orientation:
 ---------------------------------------------------------------------
 Center     Atomic      Atomic             Coordinates (Angstroms)
 Number     Number       Type             X           Y           Z
 ---------------------------------------------------------------------
      1          6           0       -2.992752    1.402677    0.475731
      2          6           0       -3.077016   -0.122902    0.392853
      3          6           0       -2.147764   -0.747712   -0.667735
      4          6           0       -0.689099   -0.544290   -0.374740
      5          7           0       -0.030171   -1.482726    0.272766
      6          8           0        1.291833   -0.964243    0.419276
      7          6           0        1.346587    0.253104   -0.147272
      8          6           0        0.123056    0.583083   -0.678949
      9          7           0        2.535772    0.924715   -0.057241
     10          6           0        3.766283    0.199244    0.238478
     11          1           0       -1.988969    1.730177    0.765173
     12          1           0       -3.700533    1.795239    1.214125
     13          1           0       -3.229834    1.863948   -0.491617
     14          1           0       -2.834929   -0.562331    1.368168
     15          1           0       -4.107227   -0.421052    0.159328
     16          1           0       -2.337501   -1.824634   -0.722452
     17          1           0       -2.378775   -0.323904   -1.653433
     18          1           0       -0.156899    1.485238   -1.200524
     19          1           0        2.623609    1.680477   -0.722736
     20          1           0        4.044983   -0.516886   -0.547822
     21          1           0        4.572710    0.925209    0.365020
     22          1           0        3.643722   -0.350676    1.173693
 ---------------------------------------------------------------------

 SCF Done:  E(UB3LYP) =  -458.801438109     A.U. after   31 cycles

 The electronic state is 2-A.
 Alpha  occ. eigenvalues --  -19.08795 -14.23485 -14.23107 -10.16367 -10.10152
 Alpha  occ. eigenvalues --  -10.09530 -10.07977 -10.07533 -10.06076 -10.05451
 Alpha  occ. eigenvalues --   -1.02434  -0.83798  -0.76296  -0.68899  -0.66863
 Alpha  occ. eigenvalues --   -0.60220  -0.58740  -0.51525  -0.50029  -0.44596
 Alpha  occ. eigenvalues --   -0.42682  -0.38294  -0.37171  -0.36048  -0.34934
 Alpha  occ. eigenvalues --   -0.33902  -0.32248  -0.30556  -0.29876  -0.29094
 Alpha  occ. eigenvalues --   -0.27216  -0.25555  -0.24596  -0.23903  -0.20809
 Alpha  occ. eigenvalues --   -0.19801  -0.17921  -0.10588   0.04546
 Alpha virt. eigenvalues --    0.06239   0.07943   0.08455   0.09133   0.10030
 Alpha virt. eigenvalues --    0.10491   0.11001   0.11301   0.11947   0.12266
 Alpha virt. eigenvalues --    0.12826   0.13581   0.15199   0.16263   0.16716

  Beta  occ. eigenvalues --  -19.08781 -14.23467 -14.23059 -10.16368 -10.10150
  Beta  occ. eigenvalues --  -10.09481 -10.07970 -10.07522 -10.06050 -10.05432
  Beta  occ. eigenvalues --   -1.02408  -0.83725  -0.76261  -0.68870  -0.66835
  Beta  occ. eigenvalues --   -0.60181  -0.58645  -0.51474  -0.49971  -0.44539
  Beta  occ. eigenvalues --   -0.42625  -0.38222  -0.37134  -0.35988  -0.34885
  Beta  occ. eigenvalues --   -0.33868  -0.32206  -0.30519  -0.29839  -0.29034
  Beta  occ. eigenvalues --   -0.27188  -0.25528  -0.24560  -0.23879  -0.20763
  Beta  occ. eigenvalues --   -0.19774  -0.17887  -0.10539
  Beta virt. eigenvalues --    0.06717   0.07783   0.08608   0.08871   0.10020
  Beta virt. eigenvalues --    0.10533   0.10823   0.11318   0.11652   0.12119
  Beta virt. eigenvalues --    0.12560   0.13167   0.14020   0.15398   0.16391

 Mulliken charges and spin densities:
               1          2
     1  C    0.360572  -0.979264
     2  C   -0.327621   0.201213
     3  C   -0.290696  -0.042353
     4  C    1.584255  -1.229705
     5  N   -0.481775   0.081626
     6  O    0.141952  -0.026014
     7  C    1.185227  -1.939577
     8  C   -1.314674   1.569265
     9  N   -0.338679   0.243587
    10  C    1.141767  -1.527117
    11  H    0.062446   0.102195
    12  H   -0.206508   0.331096
    13  H   -0.094979   0.232460
    14  H    0.121606   0.007890
    15  H   -0.246059   0.389372
    16  H    0.074839   0.090802
    17  H    0.008093   0.143004
    18  H   -0.789060   0.988328
    19  H   -0.581929   0.869196
    20  H   -0.330864   0.489555
    21  H   -0.665024   0.827809
    22  H   -0.012889   0.176632
 Sum of Mulliken charges =  -1.00000   1.00000

 Dipole moment (field-independent basis, Debye):
    X=             -4.7139    Y=             -4.3346    Z=              1.7423  Tot=              6.6367
 Quadrupole moment (field-independent basis, Debye-Ang):
   XX=           -136.6079   YY=           -103.2035   ZZ=            -86.9969
   XY=             -9.2452   XZ=              5.1261   YZ=              5.7814

 Summary of Natural Population Analysis:

                                       Natural Population
                Natural  -----------------------------------------------
    Atom  No    Charge         Core      Valence    Rydberg      Total
 -----------------------------------------------------------------------
      C    1   -0.28964      0.99967     2.28499    0.00499     3.28964
      C    2   -0.18490      0.99964     2.17675    0.00851     3.18490
      C    3   -0.20408      0.99958     2.19546    0.00903     3.20408
      C    4    0.08910      0.99960     1.89504    0.01626     2.91090
      N    5   -0.10842      0.99967     2.59745    0.01131     3.60842
      O    6   -0.18378      0.99985     3.17620    0.00773     4.18378
      C    7    0.27593      0.99951     1.70765    0.01691     2.72407
      C    8   -0.20854      0.99945     2.19981    0.00928     3.20854
      N    9   -0.31158      0.99968     2.80027    0.01163     3.81158
      C   10   -0.17794      0.99964     2.16898    0.00931     3.17794
      H   11    0.10287      0.00000     0.39594    0.00119     0.39713
      H   12    0.09743      0.00000     0.40168    0.00089     0.40257
      H   13    0.09615      0.00000     0.40246    0.00139     0.40385
      H   14    0.09622      0.00000     0.40263    0.00115     0.40378
      H   15    0.09374      0.00000     0.40510    0.00116     0.40626
      H   16    0.10732      0.00000     0.39150    0.00118     0.39268
      H   17    0.10222      0.00000     0.39663    0.00116     0.39778
      H   18    0.11658      0.00000     0.38180    0.00162     0.38342
      H   19    0.20139      0.00000     0.27565    0.02295     0.29861
      H   20    0.08925      0.00000     0.40908    0.00167     0.41075
      H   21    0.10251      0.00000     0.39458    0.00292     0.39749
      H   22    0.09817      0.00000     0.40023    0.00160     0.40183
 =======================================================================
   * Total *   -0.00000      9.99628    27.85987    0.14384    38.00000

 Normal termination of Gaussian 16 at Tue Dec  8 13:31:39 2020.
