 Gaussian 16, Revision A.03,

 -----------------------------------------------------------
 # opt freq B3LYP/6-31G(d) empiricaldispersion=gd3bj scf=xqc
 -----------------------------------------------------------

 --------------------------------
 CID_105952519_JID_10216_neutraal
 --------------------------------
 Symbolic Z-matrix:
 Charge =  0 Multiplicity = 1

 SCF Done:  E(RB3LYP) =  -1242.94520432     A.U. after   14 cycles
 SCF Done:  E(RB3LYP) =  -1242.95286106     A.U. after   12 cycles
 SCF Done:  E(RB3LYP) =  -1242.95354021     A.U. after   12 cycles
 SCF Done:  E(RB3LYP) =  -1242.95455914     A.U. after   12 cycles
 SCF Done:  E(RB3LYP) =  -1242.95494409     A.U. after   12 cycles
 SCF Done:  E(RB3LYP) =  -1242.95505933     A.U. after   12 cycles
 SCF Done:  E(RB3LYP) =  -1242.95512121     A.U. after   10 cycles
 SCF Done:  E(RB3LYP) =  -1242.95514209     A.U. after   11 cycles
 SCF Done:  E(RB3LYP) =  -1242.95514825     A.U. after    9 cycles
 SCF Done:  E(RB3LYP) =  -1242.95514939     A.U. after    9 cycles
 SCF Done:  E(RB3LYP) =  -1242.95514960     A.U. after    7 cycles
 SCF Done:  E(RB3LYP) =  -1242.95514964     A.U. after    7 cycles
 SCF Done:  E(RB3LYP) =  -1242.95514966     A.U. after    7 cycles
 SCF Done:  E(RB3LYP) =  -1242.95514967     A.U. after    7 cycles
 SCF Done:  E(RB3LYP) =  -1242.95514968     A.U. after    7 cycles
 Optimization completed.
    -- Stationary point found.
 Normal termination of Gaussian 16 at Sun Dec 13 12:44:54 2020.

 --------------------------------------------------------------------
 #N Geom=AllCheck Guess=TCheck SCRF=Check GenChk RB3LYP/6-31G(d) Freq
 --------------------------------------------------------------------

 Structure from the checkpoint file:  "JID_10216.chk"
 --------------------------------
 CID_105952519_JID_10216_neutraal
 --------------------------------
 Charge =  0 Multiplicity = 1

 SCF Done:  E(RB3LYP) =  -1242.95514968     A.U. after    1 cycles

  Exact polarizability: 196.999  -3.640 203.602 -20.947   1.238 150.259
 Approx polarizability: 279.911   0.358 306.980 -39.930  -5.357 245.204

                      1                      2                      3
                      A                      A                      A
 Frequencies --     12.9218                24.5047                37.9605
 Red. masses --      5.1150                 3.4695                 4.3617
 Frc consts  --      0.0005                 0.0012                 0.0037
 IR Inten    --      1.0357                 0.5046                 0.1628

                      4                      5                      6
                      A                      A                      A
 Frequencies --     54.4459                82.3021               107.2198
 Red. masses --      4.2332                 4.4988                 5.2831
 Frc consts  --      0.0074                 0.0180                 0.0358
 IR Inten    --      2.2886                 4.1027                 0.2633

                      7                      8                      9
                      A                      A                      A
 Frequencies --    123.5389               136.0587               160.6012
 Red. masses --      2.7104                 3.9207                 4.3195
 Frc consts  --      0.0244                 0.0428                 0.0656
 IR Inten    --      1.2617                 0.5375                 0.4121

                     10                     11                     12
                      A                      A                      A
 Frequencies --    200.0888               203.7469               226.5655
 Red. masses --      3.4823                 2.7086                 2.1172
 Frc consts  --      0.0821                 0.0662                 0.0640
 IR Inten    --      1.5269                 0.1004                 3.2362

                     13                     14                     15
                      A                      A                      A
 Frequencies --    235.0287               255.9132               279.2942
 Red. masses --      3.5214                 2.9576                 1.5202
 Frc consts  --      0.1146                 0.1141                 0.0699
 IR Inten    --      1.1529                 2.0696                 2.3463

                     16                     17                     18
                      A                      A                      A
 Frequencies --    292.0412               317.0909               325.4058
 Red. masses --      1.1737                 2.7587                 3.8652
 Frc consts  --      0.0590                 0.1634                 0.2411
 IR Inten    --      0.5373                 0.5547                 1.5061

                     19                     20                     21
                      A                      A                      A
 Frequencies --    346.8428               357.1453               361.2079
 Red. masses --      4.4028                 3.0582                 2.5535
 Frc consts  --      0.3121                 0.2298                 0.1963
 IR Inten    --      2.6203                 3.4711                 1.1942

                     22                     23                     24
                      A                      A                      A
 Frequencies --    385.9102               398.5189               477.3677
 Red. masses --      3.9595                 3.1931                 2.9284
 Frc consts  --      0.3474                 0.2988                 0.3932
 IR Inten    --      4.3954                 0.7017                 4.0772

                     25                     26                     27
                      A                      A                      A
 Frequencies --    486.1330               500.2222               522.8526
 Red. masses --      3.9730                 3.3300                 3.0900
 Frc consts  --      0.5532                 0.4909                 0.4977
 IR Inten    --      4.2769                21.2371                 3.5565

                     28                     29                     30
                      A                      A                      A
 Frequencies --    527.4930               549.0898               579.2953
 Red. masses --      6.9532                 3.8928                 4.7332
 Frc consts  --      1.1399                 0.6915                 0.9359
 IR Inten    --     48.4497                 9.5594                14.5990

                     31                     32                     33
                      A                      A                      A
 Frequencies --    634.1209               666.2571               706.7042
 Red. masses --      5.5557                 2.8631                 2.8491
 Frc consts  --      1.3162                 0.7488                 0.8384
 IR Inten    --     22.8785                 1.1764                 7.6195

                     34                     35                     36
                      A                      A                      A
 Frequencies --    713.1569               755.3344               772.2731
 Red. masses --      4.2056                 4.1665                 1.8018
 Frc consts  --      1.2602                 1.4006                 0.6331
 IR Inten    --      4.2506                 3.7587                41.4015

                     37                     38                     39
                      A                      A                      A
 Frequencies --    776.8190               792.9802               804.0588
 Red. masses --      2.3860                 1.3715                 1.3066
 Frc consts  --      0.8483                 0.5081                 0.4977
 IR Inten    --     40.8294                47.1480                47.1632

                     40                     41                     42
                      A                      A                      A
 Frequencies --    840.4190               849.3139               873.9612
 Red. masses --      2.3642                 1.4861                 2.1452
 Frc consts  --      0.9838                 0.6316                 0.9654
 IR Inten    --      3.7231                 7.3017                 1.7257

                     43                     44                     45
                      A                      A                      A
 Frequencies --    887.5653               896.4200               934.4674
 Red. masses --      1.3912                 2.2169                 2.2474
 Frc consts  --      0.6457                 1.0496                 1.1563
 IR Inten    --      0.2344                 3.1987                25.7615

                     46                     47                     48
                      A                      A                      A
 Frequencies --    949.0540               957.6598               965.1856
 Red. masses --      1.8761                 1.3703                 3.1505
 Frc consts  --      0.9956                 0.7405                 1.7292
 IR Inten    --     11.9055                 0.4794                 1.7638

                     49                     50                     51
                      A                      A                      A
 Frequencies --    988.0596               996.4215              1010.5223
 Red. masses --      2.4301                 1.2828                 2.0075
 Frc consts  --      1.3978                 0.7504                 1.2078
 IR Inten    --     22.8903                 0.2592                 8.9011

                     52                     53                     54
                      A                      A                      A
 Frequencies --   1030.9875              1054.2394              1065.9463
 Red. masses --      1.5487                 2.3603                 1.3900
 Frc consts  --      0.9699                 1.5456                 0.9306
 IR Inten    --     10.3486                 0.2757                15.2007

                     55                     56                     57
                      A                      A                      A
 Frequencies --   1069.2124              1075.4249              1085.0295
 Red. masses --      5.2792                 1.8129                 1.3875
 Frc consts  --      3.5559                 1.2353                 0.9624
 IR Inten    --     35.0307                12.2411                 0.8815

                     58                     59                     60
                      A                      A                      A
 Frequencies --   1104.9957              1109.8331              1130.3065
 Red. masses --      2.0477                 2.4153                 2.3029
 Frc consts  --      1.4731                 1.7528                 1.7335
 IR Inten    --     14.6644                48.8289                68.7215

                     61                     62                     63
                      A                      A                      A
 Frequencies --   1146.7841              1160.7164              1164.0512
 Red. masses --      1.5418                 1.2210                 1.7813
 Frc consts  --      1.1946                 0.9692                 1.4221
 IR Inten    --     10.9714                11.5511                34.1716

                     64                     65                     66
                      A                      A                      A
 Frequencies --   1173.9725              1180.0823              1192.1074
 Red. masses --      2.0174                 1.6757                 1.3524
 Frc consts  --      1.6382                 1.3749                 1.1323
 IR Inten    --     23.0236                26.5129                 9.7840

                     67                     68                     69
                      A                      A                      A
 Frequencies --   1195.9353              1212.7554              1214.4337
 Red. masses --      1.4486                 1.4309                 1.6873
 Frc consts  --      1.2207                 1.2400                 1.4662
 IR Inten    --     17.8458                 6.9820                11.4219

                     70                     71                     72
                      A                      A                      A
 Frequencies --   1222.8858              1237.2523              1245.4276
 Red. masses --      2.1889                 1.9907                 2.1908
 Frc consts  --      1.9286                 1.7954                 2.0021
 IR Inten    --     22.6640                31.2327                12.8494

                     73                     74                     75
                      A                      A                      A
 Frequencies --   1282.1662              1296.7656              1310.4055
 Red. masses --      1.3919                 1.8840                 5.2852
 Frc consts  --      1.3482                 1.8666                 5.3472
 IR Inten    --      1.1786                33.1035               152.2071

                     76                     77                     78
                      A                      A                      A
 Frequencies --   1317.9223              1331.2598              1350.3752
 Red. masses --      1.8712                 1.7943                 1.3203
 Frc consts  --      1.9150                 1.8735                 1.4185
 IR Inten    --     36.4853                 7.3036                13.4451

                     79                     80                     81
                      A                      A                      A
 Frequencies --   1371.6594              1379.4035              1400.6861
 Red. masses --      1.9078                 2.4931                 1.3044
 Frc consts  --      2.1149                 2.7949                 1.5078
 IR Inten    --     11.2755                 8.3742                24.5283

                     82                     83                     84
                      A                      A                      A
 Frequencies --   1414.0282              1430.7242              1444.7119
 Red. masses --      1.3826                 1.3827                 1.3040
 Frc consts  --      1.6288                 1.6676                 1.6036
 IR Inten    --      7.2190                22.5180                12.8341

                     85                     86                     87
                      A                      A                      A
 Frequencies --   1478.2438              1481.6986              1485.9595
 Red. masses --      1.0946                 1.1004                 1.1620
 Frc consts  --      1.4093                 1.4234                 1.5117
 IR Inten    --      8.1531                 0.7138                 6.3966

                     88                     89                     90
                      A                      A                      A
 Frequencies --   1500.7455              1514.5839              1515.8056
 Red. masses --      2.2895                 1.1803                 1.8621
 Frc consts  --      3.0381                 1.5953                 2.5208
 IR Inten    --      5.1783                 1.1547                 4.3164

                     91                     92                     93
                      A                      A                      A
 Frequencies --   1516.1919              1524.8937              1530.2535
 Red. masses --      1.1138                 1.1492                 1.3208
 Frc consts  --      1.5086                 1.5745                 1.8223
 IR Inten    --     13.4029                 5.1850                 6.0833

                     94                     95                     96
                      A                      A                      A
 Frequencies --   1538.8979              1553.5485              1556.7596
 Red. masses --      1.0883                 1.0810                 1.0932
 Frc consts  --      1.5185                 1.5372                 1.5610
 IR Inten    --     31.0546                30.9957                14.5788

                     97                     98                     99
                      A                      A                      A
 Frequencies --   1643.7359              1657.8158              2932.4911
 Red. masses --      6.3195                 6.3458                 1.0735
 Frc consts  --     10.0600                10.2756                 5.4389
 IR Inten    --      1.0450                 2.0649                74.7480

                    100                    101                    102
                      A                      A                      A
 Frequencies --   2955.3067              3016.4616              3065.0005
 Red. masses --      1.0609                 1.0846                 1.0501
 Frc consts  --      5.4593                 5.8147                 5.8119
 IR Inten    --     76.7580                43.5124                 8.3871

                    103                    104                    105
                      A                      A                      A
 Frequencies --   3065.3440              3068.7464              3072.8832
 Red. masses --      1.0715                 1.0841                 1.0735
 Frc consts  --      5.9318                 6.0153                 5.9725
 IR Inten    --      7.3457                57.2209                47.7825

                    106                    107                    108
                      A                      A                      A
 Frequencies --   3106.4938              3117.2544              3124.1985
 Red. masses --      1.0597                 1.0864                 1.1008
 Frc consts  --      6.0250                 6.2199                 6.3307
 IR Inten    --      4.9400                15.4782                26.3156

                    109                    110                    111
                      A                      A                      A
 Frequencies --   3132.0222              3143.8215              3149.1454
 Red. masses --      1.1010                 1.1020                 1.0519
 Frc consts  --      6.3636                 6.4174                 6.1464
 IR Inten    --     30.9314                31.7445                19.8835

                    112                    113                    114
                      A                      A                      A
 Frequencies --   3156.0610              3175.9892              3193.7304
 Red. masses --      1.0597                 1.1075                 1.0863
 Frc consts  --      6.2189                 6.5819                 6.5285
 IR Inten    --     10.5292                 1.6117                 0.6570

                    115                    116                    117
                      A                      A                      A
 Frequencies --   3204.3000              3213.7971              3223.1677
 Red. masses --      1.0899                 1.0940                 1.0962
 Frc consts  --      6.5933                 6.6572                 6.7099
 IR Inten    --      8.9982                12.4257                11.7130

                    118                    119                    120
                      A                      A                      A
 Frequencies --   3228.9560              3245.5652              3502.5405
 Red. masses --      1.1189                 1.1154                 1.0737
 Frc consts  --      6.8730                 6.9226                 7.7610
 IR Inten    --      3.2921                18.1552                 4.5994

 - Thermochemistry -
 -------------------
 Temperature   298.150 Kelvin.  Pressure   1.00000 Atm.
 Atom     1 has atomic number  6 and mass  12.00000

 Molecular mass:   294.14020 amu.
 Principal axes and moments of inertia in atomic units:
                           1         2         3
     Eigenvalues --  3643.047399100.47873**********
           X            0.99994  -0.01059   0.00179
           Y            0.01056   0.99979   0.01754
           Z           -0.00197  -0.01752   0.99984
 This molecule is an asymmetric top.
 Rotational symmetry number  1.
 Warning -- assumption of classical behavior for rotation
           may cause significant error
 Rotational temperatures (Kelvin)      0.02378     0.00952     0.00806
 Rotational constants (GHZ):           0.49539     0.19831     0.16791
 Zero-point vibrational energy     941057.1 (Joules/Mol)
                                  224.91804 (Kcal/Mol)
 Warning -- explicit consideration of  30 degrees of freedom as
           vibrations may cause significant error
 Vibrational temperatures:     18.59    35.26    54.62    78.34   118.41
          (Kelvin)            154.27   177.74   195.76   231.07   287.88
                              293.15   325.98   338.15   368.20   401.84
                              420.18   456.22   468.19   499.03   513.85
                              519.70   555.24   573.38   686.83   699.44
                              719.71   752.27   758.94   790.02   833.48
                              912.36   958.60  1016.79  1026.07  1086.76
                             1111.13  1117.67  1140.92  1156.86  1209.18
                             1221.97  1257.44  1277.01  1289.75  1344.49
                             1365.48  1377.86  1388.69  1421.60  1433.63
                             1453.92  1483.36  1516.82  1533.66  1538.36
                             1547.30  1561.12  1589.84  1596.80  1626.26
                             1649.97  1670.01  1674.81  1689.08  1697.88
                             1715.18  1720.68  1744.88  1747.30  1759.46
                             1780.13  1791.89  1844.75  1865.76  1885.38
                             1896.20  1915.39  1942.89  1973.51  1984.65
                             2015.27  2034.47  2058.49  2078.62  2126.86
                             2131.83  2137.96  2159.24  2179.15  2180.91
                             2181.46  2193.98  2201.69  2214.13  2235.21
                             2239.83  2364.97  2385.23  4219.20  4252.03
                             4340.02  4409.85  4410.35  4415.24  4421.19
                             4469.55  4485.03  4495.02  4506.28  4523.26
                             4530.92  4540.87  4569.54  4595.07  4610.27
                             4623.94  4637.42  4645.75  4669.64  5039.37

 Zero-point correction=                           0.358430 (Hartree/Particle)
 Thermal correction to Energy=                    0.377808
 Thermal correction to Enthalpy=                  0.378752
 Thermal correction to Gibbs Free Energy=         0.308905
 Sum of electronic and zero-point Energies=          -1242.596720
 Sum of electronic and thermal Energies=             -1242.577342
 Sum of electronic and thermal Enthalpies=           -1242.576398
 Sum of electronic and thermal Free Energies=        -1242.646245

                     E (Thermal)             CV                S
                      KCal/Mol        Cal/Mol-Kelvin    Cal/Mol-Kelvin
 Total                  237.078             75.402            147.006
 Electronic               0.000              0.000              0.000
 Translational            0.889              2.981             42.934
 Rotational               0.889              2.981             34.232
 Vibrational            235.301             69.440             69.840
 Vibration     1          0.593              1.987              7.502
 Vibration     2          0.593              1.985              6.231
 Vibration     3          0.594              1.982              5.363
 Vibration     4          0.596              1.976              4.649
 Vibration     5          0.600              1.961              3.835
 Vibration     6          0.606              1.943              3.319
 Vibration     7          0.610              1.929              3.044
 Vibration     8          0.614              1.917              2.859
 Vibration     9          0.622              1.891              2.543
 Vibration    10          0.638              1.840              2.132
 Vibration    11          0.639              1.835              2.099
 Vibration    12          0.650              1.801              1.906
 Vibration    13          0.655              1.787              1.840
 Vibration    14          0.666              1.753              1.689
 Vibration    15          0.680              1.712              1.538
 Vibration    16          0.687              1.689              1.462
 Vibration    17          0.704              1.641              1.325
 Vibration    18          0.710              1.625              1.283
 Vibration    19          0.725              1.582              1.180
 Vibration    20          0.732              1.561              1.135
 Vibration    21          0.735              1.552              1.117
 Vibration    22          0.755              1.500              1.016
 Vibration    23          0.765              1.473              0.968
 Vibration    24          0.834              1.300              0.717
 Vibration    25          0.842              1.281              0.694
 Vibration    26          0.856              1.250              0.658
 Vibration    27          0.878              1.199              0.603
 Vibration    28          0.882              1.189              0.593
 Vibration    29          0.904              1.142              0.546
 Vibration    30          0.936              1.076              0.487

 Optimization completed.
    -- Stationary point found.
 Normal termination of Gaussian 16 at Sun Dec 13 13:10:02 2020.

 ----------------------------------------------------------------------
 # B3LYP/6-311++G(d,p) empiricaldispersion=gd3bj scf=xqc pop=npa geom=c
 heck
 ----------------------------------------------------------------------

 ----------------------------------------
 CID_105952519_JID_10216_Energie_neutraal
 ----------------------------------------
 Structure from the checkpoint file:  "JID_10216.chk"
 Charge =  0 Multiplicity = 1

 SCF Done:  E(RB3LYP) =  -1243.21292197     A.U. after   16 cycles
 Normal termination of Gaussian 16 at Sun Dec 13 13:23:11 2020.

 ----------------------------------------------------------------------
 # B3LYP/6-311++G(d,p) empiricaldispersion=gd3bj scf=xqc pop=npa geom=c
 heck
 ----------------------------------------------------------------------

 --------------------------------------
 CID_105952519_JID_10216_Energie_kation
 --------------------------------------
 Structure from the checkpoint file:  "JID_10216.chk"
 Charge =  1 Multiplicity = 2

 SCF Done:  E(UB3LYP) =  -1242.93306495     A.U. after   23 cycles
 Normal termination of Gaussian 16 at Sun Dec 13 13:49:34 2020.
 Gaussian 16:  ES64L-G16RevA.03 25-Dec-2016

 ----------------------------------------------------------------------
 # B3LYP/6-311++G(d,p) empiricaldispersion=gd3bj scf=xqc pop=npa geom=c
 heck
 ----------------------------------------------------------------------

 -------------------------------------
 CID_105952519_JID_10216_Energie_anion
 -------------------------------------
 Structure from the checkpoint file:  "JID_10216.chk"
 Charge = -1 Multiplicity = 2

                         Standard orientation:
 ---------------------------------------------------------------------
 Center     Atomic      Atomic             Coordinates (Angstroms)
 Number     Number       Type             X           Y           Z
 ---------------------------------------------------------------------
      1          6           0        2.509533   -1.835997    1.322768
      2          6           0        2.770016   -1.461732   -0.138952
      3          6           0        1.458940   -1.457298   -0.958206
      4          7           0        0.509251   -0.453476   -0.492738
      5          6           0       -0.726900   -0.369007   -1.256259
      6          6           0       -1.674832   -1.597295   -1.139378
      7         16           0       -2.664100   -1.265093    0.352878
      8          8           0       -4.042451   -1.762371    0.247785
      9          8           0       -1.839111   -1.614847    1.526551
     10          6           0       -2.588470    0.503395    0.093718
     11          6           0       -3.409155    1.461121    0.678214
     12          6           0       -3.145234    2.799901    0.389193
     13          6           0       -2.080801    3.146339   -0.452991
     14          6           0       -1.269170    2.164905   -1.025143
     15          6           0       -1.532999    0.823627   -0.755699
     16          7           0        3.610277   -0.260529   -0.261745
     17          6           0        4.026383    0.000193   -1.632213
     18          6           0        3.142131    0.939270    0.387788
     19          6           0        3.472047    1.165350    1.841873
     20          6           0        4.185574    1.956474    0.776577
     21          1           0        1.921638   -1.079977    1.849896
     22          1           0        3.456555   -1.950275    1.857335
     23          1           0        1.964282   -2.784649    1.373508
     24          1           0        3.368715   -2.274737   -0.575104
     25          1           0        1.682049   -1.236766   -2.009129
     26          1           0        1.052510   -2.486935   -0.937170
     27          1           0        0.282905   -0.602797    0.489360
     28          1           0       -0.456766   -0.232160   -2.309790
     29          1           0       -2.369819   -1.665920   -1.980319
     30          1           0       -1.151875   -2.545085   -1.003791
     31          1           0       -4.230554    1.168084    1.324046
     32          1           0       -3.769439    3.577710    0.818446
     33          1           0       -1.887142    4.193400   -0.666635
     34          1           0       -0.439156    2.436158   -1.671113
     35          1           0        3.216789    0.373430   -2.286235
     36          1           0        4.820644    0.752346   -1.632546
     37          1           0        4.424532   -0.919048   -2.077552
     38          1           0        2.184960    1.334740    0.044070
     39          1           0        2.731627    1.663405    2.461990
     40          1           0        4.045155    0.395225    2.346200
     41          1           0        5.222476    1.696322    0.585081
     42          1           0        3.948919    3.009315    0.652373
 ---------------------------------------------------------------------

 SCF Done:  E(UB3LYP) =  -1243.21191883     A.U. after   33 cycles
 SCF Done:  E(UB3LYP) =  -1243.21191883     a.u. after    1 cycles

 The electronic state is 2-A.
 Alpha  occ. eigenvalues --  -88.93292 -19.00764 -19.00292 -14.21297 -14.20320
 Alpha  occ. eigenvalues --  -10.12183 -10.11046 -10.10456 -10.10389 -10.09699
 Alpha  occ. eigenvalues --  -10.09185 -10.08340 -10.08200 -10.08147 -10.08063
 Alpha  occ. eigenvalues --  -10.07280 -10.06953 -10.06578 -10.06123 -10.06006
 Alpha  occ. eigenvalues --   -7.99752  -5.96018  -5.95905  -5.95862  -0.99615
 Alpha  occ. eigenvalues --   -0.89326  -0.84388  -0.82188  -0.76350  -0.74989
 Alpha  occ. eigenvalues --   -0.70745  -0.67128  -0.65073  -0.63405  -0.59779
 Alpha  occ. eigenvalues --   -0.57748  -0.56620  -0.52855  -0.51559  -0.50856
 Alpha  occ. eigenvalues --   -0.49075  -0.47551  -0.45831  -0.42174  -0.41496
 Alpha  occ. eigenvalues --   -0.39893  -0.39231  -0.38494  -0.37610  -0.37076
 Alpha  occ. eigenvalues --   -0.36562  -0.35271  -0.34587  -0.34290  -0.33358
 Alpha  occ. eigenvalues --   -0.32894  -0.32074  -0.31545  -0.30733  -0.29951
 Alpha  occ. eigenvalues --   -0.29414  -0.28765  -0.28011  -0.26941  -0.26759
 Alpha  occ. eigenvalues --   -0.26618  -0.25833  -0.24954  -0.23923  -0.22136
 Alpha  occ. eigenvalues --   -0.21759  -0.21194  -0.20138  -0.20007  -0.17963
 Alpha  occ. eigenvalues --   -0.15719  -0.15337  -0.13899  -0.11869   0.04051
 Alpha virt. eigenvalues --    0.05841   0.06984   0.07177   0.07488   0.08137
 Alpha virt. eigenvalues --    0.08378   0.08958   0.09203   0.09692   0.09919
 Alpha virt. eigenvalues --    0.10517   0.10630   0.11368   0.11872   0.12355

  Beta  occ. eigenvalues --  -88.93290 -19.00745 -19.00239 -14.21295 -14.20321
  Beta  occ. eigenvalues --  -10.12159 -10.11040 -10.10457 -10.10388 -10.09686
  Beta  occ. eigenvalues --  -10.09163 -10.08386 -10.08197 -10.08146 -10.07920
  Beta  occ. eigenvalues --  -10.07351 -10.06950 -10.06338 -10.05915 -10.05840
  Beta  occ. eigenvalues --   -7.99749  -5.96005  -5.95900  -5.95864  -0.99531
  Beta  occ. eigenvalues --   -0.89233  -0.84378  -0.82161  -0.76138  -0.74953
  Beta  occ. eigenvalues --   -0.70592  -0.67062  -0.64720  -0.63242  -0.59685
  Beta  occ. eigenvalues --   -0.57708  -0.56495  -0.52659  -0.51530  -0.50794
  Beta  occ. eigenvalues --   -0.48978  -0.47316  -0.45807  -0.42102  -0.41470
  Beta  occ. eigenvalues --   -0.39830  -0.39175  -0.38424  -0.37538  -0.36968
  Beta  occ. eigenvalues --   -0.36491  -0.35228  -0.34515  -0.34222  -0.33245
  Beta  occ. eigenvalues --   -0.32785  -0.32011  -0.31516  -0.30700  -0.29911
  Beta  occ. eigenvalues --   -0.29349  -0.28720  -0.28003  -0.26759  -0.26574
  Beta  occ. eigenvalues --   -0.26306  -0.25640  -0.24930  -0.23835  -0.21987
  Beta  occ. eigenvalues --   -0.21619  -0.21185  -0.20011  -0.19981  -0.17881
  Beta  occ. eigenvalues --   -0.15128  -0.14305  -0.13617  -0.11853
  Beta virt. eigenvalues --    0.06207   0.07065   0.07420   0.07554   0.08259
  Beta virt. eigenvalues --    0.08367   0.08661   0.09026   0.09471   0.09787
  Beta virt. eigenvalues --    0.09972   0.10723   0.10752   0.11405   0.11973

 Mulliken charges and spin densities:
               1          2
     1  C   -0.441375  -0.236011
     2  C   -0.412837   0.137927
     3  C    0.254063  -0.651284
     4  N    0.288433  -0.030369
     5  C    1.074216  -0.952239
     6  C   -0.800225  -0.202200
     7  S    0.765100  -0.226862
     8  O   -0.087390   0.007722
     9  O   -0.180561  -0.019381
    10  C   -1.172153   0.425461
    11  C   -0.233181   0.224888
    12  C   -0.100621  -0.186659
    13  C   -0.294789   0.076405
    14  C    0.598063  -0.378652
    15  C   -0.619506   0.952444
    16  N    0.246411   0.042419
    17  C    0.449047  -0.692140
    18  C   -0.499178  -0.035866
    19  C   -0.343635   0.064400
    20  C   -0.213562  -0.067488
    21  H    0.172544   0.016554
    22  H    0.113946   0.036616
    23  H    0.124201   0.020898
    24  H   -0.163049   0.367892
    25  H    0.068771   0.081672
    26  H   -0.053840   0.160290
    27  H    0.069026   0.003205
    28  H   -0.632295   0.890978
    29  H    0.106510   0.153445
    30  H    0.141402   0.064582
    31  H    0.165453  -0.003482
    32  H    0.107945   0.028203
    33  H    0.026961   0.104130
    34  H   -0.111798   0.240498
    35  H   -0.102395   0.240025
    36  H   -0.014079   0.138640
    37  H   -0.189776   0.334478
    38  H    0.462159  -0.238640
    39  H    0.143133   0.014423
    40  H    0.117048  -0.000891
    41  H    0.094024   0.027873
    42  H    0.077794   0.066095
 Sum of Mulliken charges =  -1.00000   1.00000

 Dipole moment (field-independent basis, Debye):
    X=              2.6313    Y=              1.2214    Z=              2.6325  Tot=              3.9173
 Quadrupole moment (field-independent basis, Debye-Ang):
   XX=           -200.2448   YY=           -161.4730   ZZ=           -166.8487
   XY=             -4.0237   XZ=              9.0846   YZ=              4.4455

 Summary of Natural Population Analysis:

                                       Natural Population
                Natural  -----------------------------------------------
    Atom  No    Charge         Core      Valence    Rydberg      Total
 -----------------------------------------------------------------------
      C    1   -0.29162      0.99964     2.28586    0.00612     3.29162
      C    2   -0.00353      0.99958     1.98938    0.01456     3.00353
      C    3   -0.09309      0.99959     2.08240    0.01110     3.09309
      N    4   -0.34446      0.99973     2.83341    0.01132     3.84446
      C    5   -0.01972      0.99956     2.00505    0.01510     3.01972
      C    6   -0.29481      0.99959     2.28408    0.01114     3.29481
      S    7    1.02739      4.99914     1.87755    0.09593     6.97261
      O    8   -0.46527      0.99991     3.45994    0.00542     4.46527
      O    9   -0.47091      0.99991     3.46572    0.00527     4.47091
      C   10   -0.11514      0.99930     2.10018    0.01566     3.11514
      C   11   -0.05464      0.99951     2.04536    0.00977     3.05464
      C   12   -0.11641      0.99958     2.10695    0.00989     3.11641
      C   13   -0.05732      0.99958     2.04890    0.00885     3.05732
      C   14   -0.07003      0.99950     2.06009    0.01043     3.07003
      C   15   -0.01994      0.99944     2.00928    0.01122     3.01994
      N   16   -0.28557      0.99969     2.77061    0.01527     3.78557
      C   17   -0.17589      0.99964     2.16785    0.00840     3.17589
      C   18   -0.02109      0.99955     2.00806    0.01347     3.02109
      C   19   -0.20150      0.99962     2.19487    0.00702     3.20150
      C   20   -0.20290      0.99962     2.19648    0.00680     3.20290
      H   21    0.10163      0.00000     0.39749    0.00087     0.39837
      H   22    0.10054      0.00000     0.39848    0.00097     0.39946
      H   23    0.10213      0.00000     0.39723    0.00065     0.39787
      H   24    0.09468      0.00000     0.40412    0.00121     0.40532
      H   25    0.09641      0.00000     0.40192    0.00167     0.40359
      H   26    0.07919      0.00000     0.41931    0.00150     0.42081
      H   27    0.18326      0.00000     0.31395    0.00279     0.31674
      H   28    0.10687      0.00000     0.39037    0.00276     0.39313
      H   29    0.11656      0.00000     0.38218    0.00125     0.38344
      H   30    0.11393      0.00000     0.38480    0.00127     0.38607
      H   31    0.10250      0.00000     0.39657    0.00093     0.39750
      H   32    0.09654      0.00000     0.40269    0.00078     0.40346
      H   33    0.09391      0.00000     0.40534    0.00075     0.40609
      H   34    0.10073      0.00000     0.39770    0.00157     0.39927
      H   35    0.08484      0.00000     0.41369    0.00147     0.41516
      H   36    0.09453      0.00000     0.40442    0.00105     0.40547
      H   37    0.09389      0.00000     0.40501    0.00110     0.40611
      H   38    0.10703      0.00000     0.39128    0.00169     0.39297
      H   39    0.10124      0.00000     0.39787    0.00089     0.39876
      H   40    0.10327      0.00000     0.39543    0.00130     0.39673
      H   41    0.10238      0.00000     0.39654    0.00109     0.39762
      H   42    0.10038      0.00000     0.39880    0.00083     0.39962
 =======================================================================
   * Total *    0.00000     23.99168    54.68719    0.32113    79.00000

 Normal termination of Gaussian 16 at Sun Dec 13 14:28:34 2020.
