 Gaussian 16, Revision A.03,

 -----------------------------------------------------------
 # opt freq B3LYP/6-31G(d) empiricaldispersion=gd3bj scf=xqc
 -----------------------------------------------------------

 -------------------------------
 CID_71832451_JID_10779_neutraal
 -------------------------------
 Symbolic Z-matrix:
 Charge =  0 Multiplicity = 1

 SCF Done:  E(RB3LYP) =  -838.383125356     A.U. after   16 cycles
 SCF Done:  E(RB3LYP) =  -838.389701126     A.U. after   13 cycles
 SCF Done:  E(RB3LYP) =  -838.390191075     A.U. after   13 cycles
 SCF Done:  E(RB3LYP) =  -838.391035896     A.U. after   12 cycles
 SCF Done:  E(RB3LYP) =  -838.391356003     A.U. after   12 cycles
 SCF Done:  E(RB3LYP) =  -838.391720120     A.U. after   13 cycles
 SCF Done:  E(RB3LYP) =  -838.392048453     A.U. after   13 cycles
 SCF Done:  E(RB3LYP) =  -838.392192480     A.U. after   12 cycles
 SCF Done:  E(RB3LYP) =  -838.392341370     A.U. after   12 cycles
 SCF Done:  E(RB3LYP) =  -838.392365834     A.U. after   10 cycles
 SCF Done:  E(RB3LYP) =  -838.392454281     A.U. after   10 cycles
 SCF Done:  E(RB3LYP) =  -838.392455290     A.U. after    9 cycles
 SCF Done:  E(RB3LYP) =  -838.392455442     A.U. after    8 cycles
 SCF Done:  E(RB3LYP) =  -838.392455474     A.U. after    7 cycles
 SCF Done:  E(RB3LYP) =  -838.392455477     A.U. after    7 cycles
 Optimization completed.
    -- Stationary point found.
 Normal termination of Gaussian 16 at Sat Dec 12 16:37:54 2020.

 --------------------------------------------------------------------
 #N Geom=AllCheck Guess=TCheck SCRF=Check GenChk RB3LYP/6-31G(d) Freq
 --------------------------------------------------------------------

 Structure from the checkpoint file:  "JID_10779.chk"
 -------------------------------
 CID_71832451_JID_10779_neutraal
 -------------------------------
 Charge =  0 Multiplicity = 1

 SCF Done:  E(RB3LYP) =  -838.392455477     A.U. after    1 cycles

  Exact polarizability: 319.512   8.161 180.692   3.168  15.061 115.702
 Approx polarizability: 468.234  10.765 314.192   4.009  42.488 182.402

                      1                      2                      3
                      A                      A                      A
 Frequencies --     15.3653                39.5319                44.7960
 Red. masses --      3.8758                 4.5375                 3.9749
 Frc consts  --      0.0005                 0.0042                 0.0047
 IR Inten    --      0.0191                 0.8035                 2.1089

                      4                      5                      6
                      A                      A                      A
 Frequencies --     73.5878                99.1336               118.4534
 Red. masses --      4.7678                 3.9322                 2.2863
 Frc consts  --      0.0152                 0.0228                 0.0189
 IR Inten    --      2.5922                 3.1776                 2.3970

                      7                      8                      9
                      A                      A                      A
 Frequencies --    129.6008               145.0881               179.0731
 Red. masses --      1.0796                 1.5039                 2.8170
 Frc consts  --      0.0107                 0.0187                 0.0532
 IR Inten    --      0.0221                 1.0358                 1.0856

                     10                     11                     12
                      A                      A                      A
 Frequencies --    183.0775               213.4755               221.9588
 Red. masses --      3.0187                 1.3042                 3.6522
 Frc consts  --      0.0596                 0.0350                 0.1060
 IR Inten    --      0.4401                 1.1899                 1.0495

                     13                     14                     15
                      A                      A                      A
 Frequencies --    237.1033               298.6633               314.4043
 Red. masses --      2.8526                 3.6716                 4.0272
 Frc consts  --      0.0945                 0.1930                 0.2346
 IR Inten    --      0.4169                 4.3331                 0.4733

                     16                     17                     18
                      A                      A                      A
 Frequencies --    322.5115               343.1470               379.8081
 Red. masses --      3.7085                 3.8034                 4.1871
 Frc consts  --      0.2273                 0.2639                 0.3559
 IR Inten    --      2.1626                 4.9143                 0.4721

                     19                     20                     21
                      A                      A                      A
 Frequencies --    404.2591               456.9678               476.0595
 Red. masses --      3.3246                 4.4313                 3.3471
 Frc consts  --      0.3201                 0.5452                 0.4469
 IR Inten    --      0.2118                13.2244                 6.7135

                     22                     23                     24
                      A                      A                      A
 Frequencies --    490.2741               527.2731               530.8767
 Red. masses --      2.7589                 4.2139                 6.7728
 Frc consts  --      0.3907                 0.6902                 1.1246
 IR Inten    --      8.2185                 8.3308                 0.4192

                     25                     26                     27
                      A                      A                      A
 Frequencies --    564.6116               575.3631               623.6280
 Red. masses --      4.6571                 3.2830                 4.5952
 Frc consts  --      0.8747                 0.6403                 1.0529
 IR Inten    --      2.0785                 2.9861                 3.1104

                     28                     29                     30
                      A                      A                      A
 Frequencies --    642.2462               659.3851               672.5047
 Red. masses --      5.9072                 5.2357                 2.8746
 Frc consts  --      1.4356                 1.3412                 0.7660
 IR Inten    --      2.9317                 2.8644                 1.8846

                     31                     32                     33
                      A                      A                      A
 Frequencies --    681.1786               726.6397               765.6837
 Red. masses --      7.7766                 4.5721                 1.3499
 Frc consts  --      2.1260                 1.4224                 0.4663
 IR Inten    --      4.6072                 2.8795                22.3752

                     34                     35                     36
                      A                      A                      A
 Frequencies --    774.6873               784.1255               789.9969
 Red. masses --      4.6971                 3.2561                 4.7936
 Frc consts  --      1.6609                 1.1796                 1.7626
 IR Inten    --      8.6456                 0.1108                 0.4430

                     37                     38                     39
                      A                      A                      A
 Frequencies --    811.1115               833.5259               878.6686
 Red. masses --      5.9867                 1.3806                 5.4574
 Frc consts  --      2.3206                 0.5652                 2.4825
 IR Inten    --      2.3432                29.1052                 0.8825

                     40                     41                     42
                      A                      A                      A
 Frequencies --    883.3133               944.6988               962.6740
 Red. masses --      1.5368                 1.3841                 4.6062
 Frc consts  --      0.7065                 0.7278                 2.5151
 IR Inten    --      8.2468                 4.8870                 5.1073

                     43                     44                     45
                      A                      A                      A
 Frequencies --    966.2477               970.2232               996.6474
 Red. masses --      1.3590                 1.3544                 1.2889
 Frc consts  --      0.7476                 0.7512                 0.7543
 IR Inten    --      4.4775                 3.4013                 0.0225

                     46                     47                     48
                      A                      A                      A
 Frequencies --   1001.7444              1011.8708              1044.5673
 Red. masses --      1.6261                 1.9368                 2.0268
 Frc consts  --      0.9614                 1.1684                 1.3030
 IR Inten    --      9.1018                 3.8002                 1.9174

                     49                     50                     51
                      A                      A                      A
 Frequencies --   1052.0179              1061.2002              1076.9160
 Red. masses --      2.2997                 2.2883                 1.5917
 Frc consts  --      1.4996                 1.5183                 1.0876
 IR Inten    --      1.6658                 0.8496                 0.4103

                     52                     53                     54
                      A                      A                      A
 Frequencies --   1081.3930              1082.5720              1085.7714
 Red. masses --      2.1496                 1.5224                 5.9932
 Frc consts  --      1.4811                 1.0512                 4.1628
 IR Inten    --      0.9629                 3.8110                 1.5978

                     55                     56                     57
                      A                      A                      A
 Frequencies --   1108.9974              1167.9615              1190.9177
 Red. masses --      2.1831                 1.6093                 1.1728
 Frc consts  --      1.5819                 1.2935                 0.9801
 IR Inten    --      1.0661                 5.1305                 0.3572

                     58                     59                     60
                      A                      A                      A
 Frequencies --   1201.9342              1240.5732              1253.7903
 Red. masses --      1.2269                 2.2078                 5.5129
 Frc consts  --      1.0443                 2.0020                 5.1060
 IR Inten    --      4.5530                 8.0073                63.2690

                     61                     62                     63
                      A                      A                      A
 Frequencies --   1276.7293              1303.9588              1335.2230
 Red. masses --      1.7661                 1.7334                 3.4163
 Frc consts  --      1.6962                 1.7366                 3.5885
 IR Inten    --      9.8365                15.6409                50.1774

                     64                     65                     66
                      A                      A                      A
 Frequencies --   1359.2590              1399.3418              1416.4921
 Red. masses --      6.4511                 2.0402                 3.5055
 Frc consts  --      7.0225                 2.3538                 4.1441
 IR Inten    --      9.3512                11.4393                 3.9576

                     67                     68                     69
                      A                      A                      A
 Frequencies --   1428.4557              1430.1281              1431.7168
 Red. masses --      1.7528                 4.0720                 1.4257
 Frc consts  --      2.1072                 4.9069                 1.7218
 IR Inten    --     57.2646                13.5571                51.2257

                     70                     71                     72
                      A                      A                      A
 Frequencies --   1433.9582              1454.4735              1485.0236
 Red. masses --      1.2621                 2.2038                 2.5280
 Frc consts  --      1.5290                 2.7469                 3.2847
 IR Inten    --      3.6187               179.0213                 9.7039

                     73                     74                     75
                      A                      A                      A
 Frequencies --   1504.3249              1506.4857              1509.4642
 Red. masses --      1.0648                 1.0540                 1.1232
 Frc consts  --      1.4198                 1.4093                 1.5079
 IR Inten    --      1.7707                11.8954                 4.9742

                     76                     77                     78
                      A                      A                      A
 Frequencies --   1516.0206              1518.5744              1520.0325
 Red. masses --      1.1702                 1.3018                 1.3040
 Frc consts  --      1.5846                 1.7688                 1.7752
 IR Inten    --      0.9059                 8.9099                11.4710

                     79                     80                     81
                      A                      A                      A
 Frequencies --   1524.0228              1566.4380              1574.4229
 Red. masses --      1.6951                 3.2169                 4.0205
 Frc consts  --      2.3197                 4.6507                 5.8718
 IR Inten    --     25.3916                 5.0517                14.5209

                     82                     83                     84
                      A                      A                      A
 Frequencies --   1585.3271              1618.6188              1648.1069
 Red. masses --      6.6092                 6.3087                 6.2542
 Frc consts  --      9.7868                 9.7383                10.0090
 IR Inten    --     29.0430                17.0117                41.3165

                     85                     86                     87
                      A                      A                      A
 Frequencies --   1671.9134              1694.4021              3052.9973
 Red. masses --      5.9758                 6.7830                 1.0393
 Frc consts  --      9.8418                11.4737                 5.7076
 IR Inten    --     35.9186                 8.1795                26.8652

                     88                     89                     90
                      A                      A                      A
 Frequencies --   3053.9646              3065.7881              3105.0847
 Red. masses --      1.0395                 1.0410                 1.1003
 Frc consts  --      5.7122                 5.7650                 6.2507
 IR Inten    --     10.4879                 6.5428                 8.7773

                     91                     92                     93
                      A                      A                      A
 Frequencies --   3106.3240              3122.0608              3162.8536
 Red. masses --      1.1000                 1.0989                 1.0992
 Frc consts  --      6.2539                 6.3107                 6.4787
 IR Inten    --     16.9717                 6.2515                 5.8323

                     94                     95                     96
                      A                      A                      A
 Frequencies --   3164.3903              3182.1450              3183.8729
 Red. masses --      1.0996                 1.0987                 1.0863
 Frc consts  --      6.4875                 6.5552                 6.4879
 IR Inten    --      7.6568                 7.0587                 1.7684

                     97                     98                     99
                      A                      A                      A
 Frequencies --   3188.6026              3190.4752              3201.7965
 Red. masses --      1.0886                 1.0885                 1.0936
 Frc consts  --      6.5208                 6.5279                 6.6055
 IR Inten    --      4.5107                 5.4555                27.2918

                    100                    101                    102
                      A                      A                      A
 Frequencies --   3214.1446              3222.2108              3224.9898
 Red. masses --      1.0973                 1.0901                 1.0919
 Frc consts  --      6.6789                 6.6685                 6.6913
 IR Inten    --     30.9736                 1.5481                11.2747

 - Thermochemistry -
 -------------------
 Temperature   298.150 Kelvin.  Pressure   1.00000 Atm.
 Atom     1 has atomic number  6 and mass  12.00000

 Molecular mass:   264.13750 amu.
 Principal axes and moments of inertia in atomic units:
                           1         2         3
     Eigenvalues --  2077.32671********************
           X            0.99999   0.00426   0.00187
           Y           -0.00423   0.99989  -0.01434
           Z           -0.00193   0.01433   0.99990
 This molecule is an asymmetric top.
 Rotational symmetry number  1.
 Warning -- assumption of classical behavior for rotation
           may cause significant error
 Rotational temperatures (Kelvin)      0.04169     0.00749     0.00703
 Rotational constants (GHZ):           0.86878     0.15613     0.14639
 Zero-point vibrational energy     769010.4 (Joules/Mol)
                                  183.79789 (Kcal/Mol)
 Warning -- explicit consideration of  26 degrees of freedom as
           vibrations may cause significant error
 Vibrational temperatures:     22.11    56.88    64.45   105.88   142.63
          (Kelvin)            170.43   186.47   208.75   257.65   263.41
                              307.14   319.35   341.14   429.71   452.36
                              464.02   493.71   546.46   581.64   657.47
                              684.94   705.40   758.63   763.81   812.35
                              827.82   897.26   924.05   948.71   967.58
                              980.06  1045.47  1101.65  1114.60  1128.18
                             1136.63  1167.01  1199.26  1264.21  1270.89
                             1359.21  1385.07  1390.21  1395.93  1433.95
                             1441.29  1455.86  1502.90  1513.62  1526.83
                             1549.44  1555.88  1557.58  1562.18  1595.60
                             1680.44  1713.46  1729.32  1784.91  1803.92
                             1836.93  1876.11  1921.09  1955.67  2013.34
                             2038.02  2055.23  2057.64  2059.92  2063.15
                             2092.66  2136.62  2164.39  2167.50  2171.78
                             2181.22  2184.89  2186.99  2192.73  2253.75
                             2265.24  2280.93  2328.83  2371.26  2405.51
                             2437.87  4392.58  4393.97  4410.99  4467.52
                             4469.31  4491.95  4550.64  4552.85  4578.40
                             4580.88  4587.69  4590.38  4606.67  4624.44
                             4636.04  4640.04

 Zero-point correction=                           0.292901 (Hartree/Particle)
 Thermal correction to Energy=                    0.310460
 Thermal correction to Enthalpy=                  0.311404
 Thermal correction to Gibbs Free Energy=         0.245832
 Sum of electronic and zero-point Energies=           -838.099555
 Sum of electronic and thermal Energies=              -838.081996
 Sum of electronic and thermal Enthalpies=            -838.081052
 Sum of electronic and thermal Free Energies=         -838.146623

                     E (Thermal)             CV                S
                      KCal/Mol        Cal/Mol-Kelvin    Cal/Mol-Kelvin
 Total                  194.816             67.510            138.007
 Electronic               0.000              0.000              0.000
 Translational            0.889              2.981             42.613
 Rotational               0.889              2.981             34.048
 Vibrational            193.039             61.549             61.346
 Vibration     1          0.593              1.986              7.158
 Vibration     2          0.594              1.981              5.282
 Vibration     3          0.595              1.979              5.035
 Vibration     4          0.599              1.966              4.055
 Vibration     5          0.604              1.950              3.471
 Vibration     6          0.609              1.934              3.125
 Vibration     7          0.612              1.924              2.952
 Vibration     8          0.616              1.908              2.736
 Vibration     9          0.629              1.868              2.338
 Vibration    10          0.631              1.863              2.297
 Vibration    11          0.644              1.820              2.014
 Vibration    12          0.648              1.808              1.943
 Vibration    13          0.656              1.784              1.825
 Vibration    14          0.692              1.676              1.424
 Vibration    15          0.702              1.646              1.339
 Vibration    16          0.708              1.630              1.297
 Vibration    17          0.722              1.589              1.197
 Vibration    18          0.750              1.513              1.040
 Vibration    19          0.769              1.461              0.947
 Vibration    20          0.815              1.345              0.775
 Vibration    21          0.833              1.303              0.721
 Vibration    22          0.846              1.272              0.683
 Vibration    23          0.882              1.190              0.593
 Vibration    24          0.886              1.182              0.585
 Vibration    25          0.920              1.108              0.515
 Vibration    26          0.932              1.085              0.494

                           ! Non-Optimized Parameters !
 Normal termination of Gaussian 16 at Sat Dec 12 16:53:40 2020.

 ----------------------------------------------------------------------
 # B3LYP/6-311++G(d,p) empiricaldispersion=gd3bj scf=xqc pop=npa geom=c
 heck
 ----------------------------------------------------------------------

 ---------------------------------------
 CID_71832451_JID_10779_Energie_neutraal
 ---------------------------------------
 Structure from the checkpoint file:  "JID_10779.chk"
 Charge =  0 Multiplicity = 1

 SCF Done:  E(RB3LYP) =  -838.602220672     A.U. after   16 cycles
 Normal termination of Gaussian 16 at Sat Dec 12 17:00:11 2020.

 ----------------------------------------------------------------------
 # B3LYP/6-311++G(d,p) empiricaldispersion=gd3bj scf=xqc pop=npa geom=c
 heck
 ----------------------------------------------------------------------

 -------------------------------------
 CID_71832451_JID_10779_Energie_kation
 -------------------------------------
 Structure from the checkpoint file:  "JID_10779.chk"
 Charge =  1 Multiplicity = 2

 SCF Done:  E(UB3LYP) =  -838.312533785     A.U. after   33 cycles
 SCF Done:  E(UB3LYP) =  -838.312533785     a.u. after    1 cycles
 Normal termination of Gaussian 16 at Sat Dec 12 17:18:09 2020.
 Gaussian 16:  ES64L-G16RevA.03 25-Dec-2016

 ----------------------------------------------------------------------
 # B3LYP/6-311++G(d,p) empiricaldispersion=gd3bj scf=xqc pop=npa geom=c
 heck
 ----------------------------------------------------------------------

 ------------------------------------
 CID_71832451_JID_10779_Energie_anion
 ------------------------------------
 Structure from the checkpoint file:  "JID_10779.chk"
 Charge = -1 Multiplicity = 2

                         Standard orientation:
 ---------------------------------------------------------------------
 Center     Atomic      Atomic             Coordinates (Angstroms)
 Number     Number       Type             X           Y           Z
 ---------------------------------------------------------------------
      1          6           0       -3.092976    2.116839   -1.612903
      2          6           0       -3.601122    1.162840   -0.591308
      3          7           0       -4.850094    0.977827   -0.224233
      4          7           0       -4.863211    0.013144    0.767119
      5          6           0       -3.625916   -0.381268    0.970136
      6          7           0       -2.790446    0.302729    0.110832
      7          7           0       -1.393463    0.349107    0.116391
      8          6           0       -0.781399   -0.685897   -0.360163
      9          6           0       -1.457601   -1.886152   -0.971160
     10          6           0        0.700953   -0.651416   -0.310758
     11          6           0        1.358630    0.473024    0.165174
     12          6           0        2.768218    0.536992    0.219541
     13          6           0        3.448623    1.688974    0.700906
     14          6           0        4.822267    1.724796    0.744108
     15          6           0        5.580724    0.609450    0.308037
     16          6           0        4.952461   -0.520747   -0.162941
     17          6           0        3.536664   -0.589568   -0.220754
     18          6           0        2.846762   -1.733401   -0.697198
     19          6           0        1.473850   -1.766333   -0.743355
     20          6           0       -3.160844   -1.367986    1.982448
     21          1           0       -3.929526    2.717364   -1.975215
     22          1           0       -2.638517    1.596279   -2.464454
     23          1           0       -2.330213    2.779378   -1.188240
     24          1           0       -2.530108   -1.727977   -1.079818
     25          1           0       -1.029238   -2.092063   -1.957141
     26          1           0       -1.296831   -2.778228   -0.355192
     27          1           0        0.772253    1.321059    0.501903
     28          1           0        2.860810    2.540152    1.033941
     29          1           0        5.333447    2.608961    1.113305
     30          1           0        6.665327    0.651594    0.347911
     31          1           0        5.532725   -1.376771   -0.497412
     32          1           0        3.423451   -2.592941   -1.028346
     33          1           0        0.980877   -2.659408   -1.109931
     34          1           0       -2.334297   -0.965233    2.578544
     35          1           0       -3.997785   -1.598520    2.644485
     36          1           0       -2.817653   -2.304175    1.526028
 ---------------------------------------------------------------------

 SCF Done:  E(UB3LYP) =  -838.638464431     A.U. after   23 cycles

 The electronic state is 2-A.
 Alpha  occ. eigenvalues --  -14.27462 -14.20027 -14.19957 -14.19143 -10.11709
 Alpha  occ. eigenvalues --  -10.11559 -10.08300 -10.07875 -10.07629 -10.06307
 Alpha  occ. eigenvalues --  -10.05625 -10.05571 -10.05433 -10.05394 -10.05196
 Alpha  occ. eigenvalues --  -10.04969 -10.04765 -10.04718 -10.04142 -10.02414
 Alpha  occ. eigenvalues --   -0.95037  -0.85339  -0.75217  -0.73235  -0.71984
 Alpha  occ. eigenvalues --   -0.69448  -0.64920  -0.64222  -0.62846  -0.60864
 Alpha  occ. eigenvalues --   -0.59934  -0.59742  -0.52391  -0.50277  -0.49153
 Alpha  occ. eigenvalues --   -0.47669  -0.47148  -0.43501  -0.39754  -0.39413
 Alpha  occ. eigenvalues --   -0.38329  -0.37025  -0.34716  -0.34151  -0.33512
 Alpha  occ. eigenvalues --   -0.32518  -0.32448  -0.32216  -0.31713  -0.30718
 Alpha  occ. eigenvalues --   -0.30123  -0.29344  -0.29158  -0.29140  -0.28223
 Alpha  occ. eigenvalues --   -0.27133  -0.26917  -0.24711  -0.22996  -0.22258
 Alpha  occ. eigenvalues --   -0.21162  -0.20736  -0.19692  -0.18922  -0.16637
 Alpha  occ. eigenvalues --   -0.14374  -0.13558  -0.12727  -0.12089  -0.09832
 Alpha  occ. eigenvalues --    0.01683
 Alpha virt. eigenvalues --    0.07462   0.07849   0.08052   0.08593   0.08852
 Alpha virt. eigenvalues --    0.09552   0.10072   0.11275   0.11394   0.11707
 Alpha virt. eigenvalues --    0.11849   0.12098   0.12713   0.12969   0.13273

  Beta  occ. eigenvalues --  -14.27483 -14.20026 -14.19948 -14.18719 -10.11683
  Beta  occ. eigenvalues --  -10.11539 -10.07996 -10.07876 -10.07628 -10.06331
  Beta  occ. eigenvalues --  -10.05703 -10.05502 -10.05460 -10.05459 -10.05183
  Beta  occ. eigenvalues --  -10.04773 -10.04657 -10.04558 -10.04045 -10.02047
  Beta  occ. eigenvalues --   -0.94938  -0.84951  -0.74954  -0.72891  -0.71946
  Beta  occ. eigenvalues --   -0.69215  -0.64584  -0.64071  -0.62638  -0.60735
  Beta  occ. eigenvalues --   -0.59915  -0.59390  -0.51900  -0.50109  -0.49033
  Beta  occ. eigenvalues --   -0.47469  -0.46948  -0.43358  -0.39461  -0.39274
  Beta  occ. eigenvalues --   -0.38213  -0.36884  -0.34518  -0.34060  -0.33279
  Beta  occ. eigenvalues --   -0.32428  -0.32387  -0.32099  -0.31502  -0.30588
  Beta  occ. eigenvalues --   -0.30067  -0.29242  -0.29092  -0.29047  -0.28184
  Beta  occ. eigenvalues --   -0.26801  -0.26473  -0.24583  -0.22459  -0.21416
  Beta  occ. eigenvalues --   -0.20973  -0.20609  -0.19249  -0.18181  -0.15640
  Beta  occ. eigenvalues --   -0.14028  -0.13504  -0.12271  -0.11579  -0.08355
  Beta virt. eigenvalues --    0.07335   0.07452   0.07842   0.08522   0.08675
  Beta virt. eigenvalues --    0.08990   0.09532   0.10060   0.11268   0.11405
  Beta virt. eigenvalues --    0.11806   0.12082   0.12172   0.13134   0.13242

 Mulliken charges and spin densities:
               1          2
     1  C   -0.574921  -0.002751
     2  C    0.195125   0.016693
     3  N   -0.121692   0.003510
     4  N   -0.079463  -0.000022
     5  C    0.121562  -0.000898
     6  N    0.212568  -0.024413
     7  N   -0.045146   0.237652
     8  C   -0.069442   0.142641
     9  C   -0.552651  -0.025142
    10  C    1.293083   0.035794
    11  C   -0.374619   0.326968
    12  C    0.309496  -0.081969
    13  C   -0.332432   0.152736
    14  C   -0.289165  -0.057005
    15  C   -0.299776   0.166504
    16  C   -0.370531  -0.015819
    17  C    0.088015   0.048826
    18  C   -0.870038   0.079952
    19  C   -0.851303   0.001539
    20  C   -0.565636   0.008443
    21  H    0.163233   0.000231
    22  H    0.150855   0.000785
    23  H    0.157987   0.000176
    24  H    0.178783  -0.001027
    25  H    0.133235   0.008858
    26  H    0.153335   0.019260
    27  H    0.139499  -0.022566
    28  H    0.096270  -0.011055
    29  H    0.121948   0.004003
    30  H    0.114513  -0.011974
    31  H    0.075228  -0.002370
    32  H    0.105812  -0.003298
    33  H    0.099290   0.003986
    34  H    0.168443   0.003873
    35  H    0.178072   0.001148
    36  H    0.140462  -0.003270
 Sum of Mulliken charges =  -1.00000   1.00000

 Dipole moment (field-independent basis, Debye):
    X=              2.4091    Y=             -1.9516    Z=             -1.0342  Tot=              3.2683
 Quadrupole moment (field-independent basis, Debye-Ang):
   XX=           -220.1190   YY=           -124.0083   ZZ=           -126.7512
   XY=              4.2508   XZ=              2.6324   YZ=             -0.0906

 Summary of Natural Population Analysis:

                                       Natural Population
                Natural  -----------------------------------------------
    Atom  No    Charge         Core      Valence    Rydberg      Total
 -----------------------------------------------------------------------
      C    1   -0.30535      0.99963     2.30149    0.00422     3.30535
      C    2    0.17971      0.99962     1.80207    0.01860     2.82029
      N    3   -0.17694      0.99968     2.66353    0.01373     3.67694
      N    4   -0.17822      0.99968     2.66462    0.01391     3.67822
      C    5    0.17457      0.99961     1.80665    0.01917     2.82543
      N    6   -0.13566      0.99953     2.62190    0.01423     3.63566
      N    7   -0.11188      0.99962     2.59938    0.01288     3.61188
      C    8    0.19136      0.99958     1.79588    0.01318     2.80864
      C    9   -0.31832      0.99961     2.31464    0.00408     3.31832
      C   10   -0.04312      0.99950     2.03399    0.00963     3.04312
      C   11    0.01262      0.99944     1.97998    0.00797     2.98738
      C   12   -0.03944      0.99939     2.03174    0.00831     3.03944
      C   13   -0.04877      0.99956     2.03999    0.00922     3.04877
      C   14   -0.13304      0.99957     2.12406    0.00941     3.13304
      C   15   -0.07164      0.99957     2.06238    0.00969     3.07164
      C   16   -0.10124      0.99954     2.09288    0.00882     3.10124
      C   17   -0.01497      0.99950     2.00683    0.00864     3.01497
      C   18   -0.10215      0.99956     2.09236    0.01023     3.10215
      C   19   -0.09296      0.99945     2.08441    0.00910     3.09296
      C   20   -0.30756      0.99963     2.30353    0.00441     3.30756
      H   21    0.10741      0.00000     0.39170    0.00089     0.39259
      H   22    0.10557      0.00000     0.39340    0.00104     0.39443
      H   23    0.11102      0.00000     0.38799    0.00099     0.38898
      H   24    0.10485      0.00000     0.39382    0.00132     0.39515
      H   25    0.10838      0.00000     0.39090    0.00073     0.39162
      H   26    0.10627      0.00000     0.39294    0.00079     0.39373
      H   27    0.10256      0.00000     0.39608    0.00136     0.39744
      H   28    0.09213      0.00000     0.40634    0.00153     0.40787
      H   29    0.09232      0.00000     0.40664    0.00105     0.40768
      H   30    0.08904      0.00000     0.40991    0.00105     0.41096
      H   31    0.09078      0.00000     0.40756    0.00166     0.40922
      H   32    0.09323      0.00000     0.40582    0.00095     0.40677
      H   33    0.09494      0.00000     0.40419    0.00087     0.40506
      H   34    0.11133      0.00000     0.38763    0.00103     0.38867
      H   35    0.10929      0.00000     0.38980    0.00091     0.39071
      H   36    0.10403      0.00000     0.39480    0.00117     0.39597
 =======================================================================
   * Total *    0.00015     19.99128    49.78181    0.22676    69.99985

 Normal termination of Gaussian 16 at Sat Dec 12 17:30:41 2020.
