 Gaussian 16, Revision A.03,

 -----------------------------------------------------------
 # opt freq B3LYP/6-31G(d) empiricaldispersion=gd3bj scf=xqc
 -----------------------------------------------------------

 -------------------------------
 CID_19797967_JID_10365_neutraal
 -------------------------------
 Symbolic Z-matrix:
 Charge =  0 Multiplicity = 1

 SCF Done:  E(RB3LYP) =  -844.742078080     A.U. after   16 cycles
 SCF Done:  E(RB3LYP) =  -844.763348443     A.U. after   13 cycles
 SCF Done:  E(RB3LYP) =  -844.765223348     A.U. after   13 cycles
 SCF Done:  E(RB3LYP) =  -844.765642942     A.U. after   13 cycles
 SCF Done:  E(RB3LYP) =  -844.766037962     A.U. after   12 cycles
 SCF Done:  E(RB3LYP) =  -844.766546149     A.U. after   12 cycles
 SCF Done:  E(RB3LYP) =  -844.766772820     A.U. after   13 cycles
 SCF Done:  E(RB3LYP) =  -844.766844425     A.U. after   12 cycles
 SCF Done:  E(RB3LYP) =  -844.766950649     A.U. after   11 cycles
 SCF Done:  E(RB3LYP) =  -844.766991705     A.U. after   11 cycles
 SCF Done:  E(RB3LYP) =  -844.767026840     A.U. after    9 cycles
 SCF Done:  E(RB3LYP) =  -844.767038333     A.U. after   10 cycles
 SCF Done:  E(RB3LYP) =  -844.767040740     A.U. after    9 cycles
 SCF Done:  E(RB3LYP) =  -844.767041255     A.U. after    8 cycles
 SCF Done:  E(RB3LYP) =  -844.767041345     A.U. after    7 cycles
 SCF Done:  E(RB3LYP) =  -844.767041422     A.U. after    7 cycles
 Optimization completed.
    -- Stationary point found.
 Normal termination of Gaussian 16 at Sun Dec 13 16:49:37 2020.

 --------------------------------------------------------------------
 #N Geom=AllCheck Guess=TCheck SCRF=Check GenChk RB3LYP/6-31G(d) Freq
 --------------------------------------------------------------------

 Structure from the checkpoint file:  "JID_10365.chk"
 -------------------------------
 CID_19797967_JID_10365_neutraal
 -------------------------------
 Charge =  0 Multiplicity = 1

 SCF Done:  E(RB3LYP) =  -844.767041422     A.U. after    1 cycles

  Exact polarizability: 264.232 -23.429 135.060  -8.597 -22.245 163.578
 Approx polarizability: 380.916 -42.110 218.878  -9.626 -53.340 322.448

                      1                      2                      3
                      A                      A                      A
 Frequencies --     29.5927                46.1349                64.9516
 Red. masses --      5.3320                 4.6588                 4.8648
 Frc consts  --      0.0028                 0.0058                 0.0121
 IR Inten    --      0.2960                 0.4709                 0.1705

                      4                      5                      6
                      A                      A                      A
 Frequencies --     76.3089                98.9392               108.2665
 Red. masses --      5.2106                 1.8500                 2.6030
 Frc consts  --      0.0179                 0.0107                 0.0180
 IR Inten    --      0.6822                 1.3806                 2.0012

                      7                      8                      9
                      A                      A                      A
 Frequencies --    118.7615               132.3211               178.2023
 Red. masses --      2.2875                 3.4231                 5.3758
 Frc consts  --      0.0190                 0.0353                 0.1006
 IR Inten    --      0.9989                 4.7281                 0.1834

                     10                     11                     12
                      A                      A                      A
 Frequencies --    199.6898               240.3955               256.1934
 Red. masses --      5.3174                 5.0481                 4.0899
 Frc consts  --      0.1249                 0.1719                 0.1582
 IR Inten    --      0.9547                 1.0798                 8.4622

                     13                     14                     15
                      A                      A                      A
 Frequencies --    275.0703               314.0491               335.0013
 Red. masses --      4.5001                 3.3973                 3.9211
 Frc consts  --      0.2006                 0.1974                 0.2593
 IR Inten    --      0.0844                 0.6816                 0.4871

                     16                     17                     18
                      A                      A                      A
 Frequencies --    363.7557               382.7449               409.0177
 Red. masses --      3.5880                 3.6977                 4.1017
 Frc consts  --      0.2797                 0.3192                 0.4043
 IR Inten    --      1.0800                 2.2022                 2.6842

                     19                     20                     21
                      A                      A                      A
 Frequencies --    444.5413               469.8038               516.0726
 Red. masses --      3.9504                 3.7458                 4.2059
 Frc consts  --      0.4600                 0.4871                 0.6600
 IR Inten    --      3.9330                 3.8300                 3.1519

                     22                     23                     24
                      A                      A                      A
 Frequencies --    541.6245               561.9277               577.9529
 Red. masses --      4.7060                 3.9194                 5.2853
 Frc consts  --      0.8134                 0.7292                 1.0402
 IR Inten    --      5.1852                 2.0124                 7.2459

                     25                     26                     27
                      A                      A                      A
 Frequencies --    594.7123               622.9507               636.8246
 Red. masses --      3.2067                 4.2866                 5.0801
 Frc consts  --      0.6682                 0.9801                 1.2138
 IR Inten    --     11.0575                 1.1168                 3.5191

                     28                     29                     30
                      A                      A                      A
 Frequencies --    673.0488               680.0765               724.9203
 Red. masses --      4.5808                 2.8057                 1.2966
 Frc consts  --      1.2226                 0.7646                 0.4015
 IR Inten    --      2.9155                 6.5767                12.6186

                     31                     32                     33
                      A                      A                      A
 Frequencies --    730.8928               736.3494               766.0475
 Red. masses --      4.0736                 1.5490                 2.7456
 Frc consts  --      1.2821                 0.4948                 0.9493
 IR Inten    --      0.5313                27.9104                 7.2545

                     34                     35                     36
                      A                      A                      A
 Frequencies --    778.9583               783.0481               816.5476
 Red. masses --      1.9726                 2.5015                 3.7744
 Frc consts  --      0.7052                 0.9037                 1.4827
 IR Inten    --     17.6231                13.4351                 3.8294

                     37                     38                     39
                      A                      A                      A
 Frequencies --    837.5034               853.4551               862.1118
 Red. masses --      3.5208                 1.4278                 2.9758
 Frc consts  --      1.4550                 0.6127                 1.3031
 IR Inten    --      6.9163                20.4422                 4.0192

                     40                     41                     42
                      A                      A                      A
 Frequencies --    886.6194               887.5295               905.8469
 Red. masses --      1.4713                 1.6284                 2.7511
 Frc consts  --      0.6815                 0.7557                 1.3301
 IR Inten    --     10.5343                 5.4325                 2.5329

                     43                     44                     45
                      A                      A                      A
 Frequencies --    908.7973               918.3620               935.5423
 Red. masses --      1.4385                 1.4679                 4.3955
 Frc consts  --      0.7000                 0.7294                 2.2666
 IR Inten    --     13.0541                10.8873                20.8797

                     46                     47                     48
                      A                      A                      A
 Frequencies --    937.7927               955.4070               981.5990
 Red. masses --      1.3600                 1.4687                 1.2509
 Frc consts  --      0.7047                 0.7899                 0.7101
 IR Inten    --      0.1313                 6.1352                 0.0809

                     49                     50                     51
                      A                      A                      A
 Frequencies --   1032.5589              1033.3651              1071.2297
 Red. masses --      2.9873                 2.1348                 2.3145
 Frc consts  --      1.8765                 1.3431                 1.5648
 IR Inten    --     20.3835                31.4027                 4.4966

                     52                     53                     54
                      A                      A                      A
 Frequencies --   1076.3200              1077.5017              1089.0485
 Red. masses --      1.2213                 1.7242                 2.6387
 Frc consts  --      0.8336                 1.1795                 1.8439
 IR Inten    --      0.3376                17.1323                 1.4289

                     55                     56                     57
                      A                      A                      A
 Frequencies --   1112.0641              1122.5880              1134.9225
 Red. masses --      1.9553                 2.1912                 1.7169
 Frc consts  --      1.4247                 1.6269                 1.3030
 IR Inten    --      5.8859                13.8190                12.1987

                     58                     59                     60
                      A                      A                      A
 Frequencies --   1178.3656              1193.0586              1241.4077
 Red. masses --      1.8650                 1.1278                 4.1611
 Frc consts  --      1.5257                 0.9458                 3.7783
 IR Inten    --      3.3510                 0.8352               467.1891

                     61                     62                     63
                      A                      A                      A
 Frequencies --   1246.5376              1263.6819              1292.8260
 Red. masses --      2.8621                 1.5655                 1.7186
 Frc consts  --      2.6203                 1.4729                 1.6924
 IR Inten    --      4.8975                12.7860                 6.2560

                     64                     65                     66
                      A                      A                      A
 Frequencies --   1312.1602              1346.5177              1350.8658
 Red. masses --      1.3627                 8.3853                 2.4682
 Frc consts  --      1.3824                 8.9576                 2.6538
 IR Inten    --      8.8949                 8.9676                29.2527

                     67                     68                     69
                      A                      A                      A
 Frequencies --   1405.4462              1424.6010              1459.0485
 Red. masses --      2.9963                 1.3225                 1.3170
 Frc consts  --      3.4871                 1.5813                 1.6519
 IR Inten    --      7.0691                47.3720                 4.6940

                     70                     71                     72
                      A                      A                      A
 Frequencies --   1467.2212              1495.1179              1499.3279
 Red. masses --      3.1369                 2.3508                 1.0625
 Frc consts  --      3.9788                 3.0961                 1.4073
 IR Inten    --      7.3048                24.4895                 5.6305

                     73                     74                     75
                      A                      A                      A
 Frequencies --   1504.1513              1521.4029              1531.9790
 Red. masses --      1.0519                 4.3380                 2.7219
 Frc consts  --      1.4021                 5.9161                 3.7638
 IR Inten    --      5.2287                 2.8236                28.7378

                     76                     77                     78
                      A                      A                      A
 Frequencies --   1579.3619              1628.5302              1664.2613
 Red. masses --      5.4563                 5.6420                 6.6632
 Frc consts  --      8.0188                 8.8161                10.8737
 IR Inten    --      1.9214                 2.5022                 4.4759

                     79                     80                     81
                      A                      A                      A
 Frequencies --   1665.7457              1680.3038              1711.0228
 Red. masses --      6.3651                 5.0294                 7.6973
 Frc consts  --     10.4058                 8.3664                13.2771
 IR Inten    --      4.8137                12.9712                 5.4540

                     82                     83                     84
                      A                      A                      A
 Frequencies --   1857.5387              3075.5254              3141.7614
 Red. masses --     11.6179                 1.0361                 1.1008
 Frc consts  --     23.6186                 5.7739                 6.4018
 IR Inten    --    152.2665                 3.8677                 2.3892

                     85                     86                     87
                      A                      A                      A
 Frequencies --   3179.6992              3184.7356              3191.5036
 Red. masses --      1.0591                 1.1040                 1.0855
 Frc consts  --      6.3092                 6.5971                 6.5144
 IR Inten    --      3.1375                 5.9375                 1.0143

                     88                     89                     90
                      A                      A                      A
 Frequencies --   3198.0517              3203.7759              3212.3495
 Red. masses --      1.0886                 1.0897                 1.0933
 Frc consts  --      6.5597                 6.5898                 6.6469
 IR Inten    --     13.0910                14.2304                14.9701

                     91                     92                     93
                      A                      A                      A
 Frequencies --   3213.6849              3219.1624              3221.0914
 Red. masses --      1.0934                 1.0913                 1.0967
 Frc consts  --      6.6531                 6.6629                 6.7041
 IR Inten    --     19.2778                 2.9341                13.7081

                     94                     95                     96
                      A                      A                      A
 Frequencies --   3232.4702              3261.4379              3261.6589
 Red. masses --      1.0854                 1.1129                 1.1160
 Frc consts  --      6.6823                 6.9744                 6.9952
 IR Inten    --      2.5825                25.9531                 4.6306

 - Thermochemistry -
 -------------------
 Temperature   298.150 Kelvin.  Pressure   1.00000 Atm.
 Atom     1 has atomic number  6 and mass  12.00000

 Molecular mass:   262.09938 amu.
 Principal axes and moments of inertia in atomic units:
                           1         2         3
     Eigenvalues --  2548.765757349.053047864.51183
           X            0.99991  -0.01306  -0.00325
           Y            0.01282   0.99774  -0.06591
           Z            0.00410   0.06586   0.99782
 This molecule is an asymmetric top.
 Rotational symmetry number  1.
 Warning -- assumption of classical behavior for rotation
           may cause significant error
 Rotational temperatures (Kelvin)      0.03398     0.01179     0.01101
 Rotational constants (GHZ):           0.70808     0.24557     0.22948
 Zero-point vibrational energy     701150.7 (Joules/Mol)
                                  167.57905 (Kcal/Mol)
 Warning -- explicit consideration of  25 degrees of freedom as
           vibrations may cause significant error
 Vibrational temperatures:     42.58    66.38    93.45   109.79   142.35
          (Kelvin)            155.77   170.87   190.38   256.39   287.31
                              345.88   368.61   395.76   451.85   481.99
                              523.36   550.68   588.49   639.60   675.94
                              742.51   779.28   808.49   831.55   855.66
                              896.29   916.25   968.37   978.48  1043.00
                             1051.59  1059.44  1102.17  1120.75  1126.63
                             1174.83  1204.98  1227.93  1240.39  1275.65
                             1276.96  1303.31  1307.56  1321.32  1346.04
                             1349.27  1374.62  1412.30  1485.62  1486.78
                             1541.26  1548.58  1550.28  1566.90  1600.01
                             1615.15  1632.90  1695.41  1716.55  1786.11
                             1793.49  1818.16  1860.09  1887.91  1937.34
                             1943.59  2022.12  2049.68  2099.25  2111.00
                             2151.14  2157.20  2164.14  2188.96  2204.18
                             2272.35  2343.09  2394.50  2396.64  2417.58
                             2461.78  2672.58  4425.00  4520.29  4574.88
                             4582.12  4591.86  4601.28  4609.52  4621.85
                             4623.78  4631.66  4634.43  4650.80  4692.48
                             4692.80

 Zero-point correction=                           0.267054 (Hartree/Particle)
 Thermal correction to Energy=                    0.284038
 Thermal correction to Enthalpy=                  0.284982
 Thermal correction to Gibbs Free Energy=         0.221733
 Sum of electronic and zero-point Energies=           -844.499987
 Sum of electronic and thermal Energies=              -844.483004
 Sum of electronic and thermal Enthalpies=            -844.482060
 Sum of electronic and thermal Free Energies=         -844.545309

                     E (Thermal)             CV                S
                      KCal/Mol        Cal/Mol-Kelvin    Cal/Mol-Kelvin
 Total                  178.236             66.432            133.119
 Electronic               0.000              0.000              0.000
 Translational            0.889              2.981             42.590
 Rotational               0.889              2.981             33.354
 Vibrational            176.459             60.471             57.175
 Vibration     1          0.593              1.984              5.857
 Vibration     2          0.595              1.979              4.977
 Vibration     3          0.597              1.971              4.301
 Vibration     4          0.599              1.965              3.984
 Vibration     5          0.604              1.950              3.475
 Vibration     6          0.606              1.943              3.300
 Vibration     7          0.609              1.934              3.120
 Vibration     8          0.612              1.921              2.912
 Vibration     9          0.629              1.869              2.347
 Vibration    10          0.638              1.840              2.136
 Vibration    11          0.657              1.779              1.800
 Vibration    12          0.666              1.752              1.688
 Vibration    13          0.677              1.719              1.564
 Vibration    14          0.702              1.647              1.341
 Vibration    15          0.716              1.606              1.236
 Vibration    16          0.737              1.547              1.106
 Vibration    17          0.752              1.507              1.028
 Vibration    18          0.773              1.451              0.930
 Vibration    19          0.804              1.373              0.812
 Vibration    20          0.827              1.317              0.738
 Vibration    21          0.871              1.214              0.619
 Vibration    22          0.897              1.158              0.562
 Vibration    23          0.918              1.114              0.520
 Vibration    24          0.934              1.079              0.489
 Vibration    25          0.952              1.043              0.459

 Optimization completed.
    -- Stationary point found.
 Normal termination of Gaussian 16 at Sun Dec 13 17:08:02 2020.

 ----------------------------------------------------------------------
 # B3LYP/6-311++G(d,p) empiricaldispersion=gd3bj scf=xqc pop=npa geom=c
 heck
 ----------------------------------------------------------------------

 ---------------------------------------
 CID_19797967_JID_10365_Energie_neutraal
 ---------------------------------------
 Structure from the checkpoint file:  "JID_10365.chk"
 Charge =  0 Multiplicity = 1

 SCF Done:  E(RB3LYP) =  -844.985902305     A.U. after   16 cycles
 Normal termination of Gaussian 16 at Sun Dec 13 17:14:30 2020.

 ----------------------------------------------------------------------
 # B3LYP/6-311++G(d,p) empiricaldispersion=gd3bj scf=xqc pop=npa geom=c
 heck
 ----------------------------------------------------------------------

 -------------------------------------
 CID_19797967_JID_10365_Energie_kation
 -------------------------------------
 Structure from the checkpoint file:  "JID_10365.chk"
 Charge =  1 Multiplicity = 2

 SCF Done:  E(UB3LYP) =  -844.722603484     A.U. after   26 cycles
 Normal termination of Gaussian 16 at Sun Dec 13 17:28:39 2020.
 Gaussian 16:  ES64L-G16RevA.03 25-Dec-2016

 ----------------------------------------------------------------------
 # B3LYP/6-311++G(d,p) empiricaldispersion=gd3bj scf=xqc pop=npa geom=c
 heck
 ----------------------------------------------------------------------

 ------------------------------------
 CID_19797967_JID_10365_Energie_anion
 ------------------------------------
 Structure from the checkpoint file:  "JID_10365.chk"
 Charge = -1 Multiplicity = 2

                         Standard orientation:
 ---------------------------------------------------------------------
 Center     Atomic      Atomic             Coordinates (Angstroms)
 Number     Number       Type             X           Y           Z
 ---------------------------------------------------------------------
      1          6           0       -0.933939    2.728616    0.349644
      2          6           0        0.292326    1.933510    0.710286
      3          8           0        0.692982    1.686357    1.818927
      4          8           0        0.909814    1.506222   -0.438578
      5          6           0        1.970772    0.607464   -0.368297
      6          6           0        3.163626    1.034122   -0.943557
      7          6           0        4.259040    0.175627   -1.002080
      8          6           0        4.149855   -1.113500   -0.481619
      9          6           0        2.949482   -1.529621    0.088344
     10          6           0        1.829346   -0.685755    0.168151
     11          6           0        0.584840   -1.175664    0.821112
     12          6           0        0.671156   -1.849246    1.982050
     13          6           0       -0.724957   -0.922478    0.174242
     14          6           0       -1.891817   -0.705872    1.001796
     15          6           0       -3.064131   -0.491190    0.352008
     16          6           0       -3.163961   -0.459720   -1.072071
     17          6           0       -2.080132   -0.644443   -1.875533
     18          6           0       -0.836719   -0.882697   -1.206357
     19          6           0       -4.650435   -0.154981   -0.926316
     20          6           0       -4.557343   -0.180882    0.424598
     21          1           0       -1.368855    3.156373    1.253205
     22          1           0       -1.658011    2.065106   -0.133727
     23          1           0       -0.679460    3.520409   -0.361338
     24          1           0        3.212850    2.043432   -1.338761
     25          1           0        5.186906    0.512700   -1.454457
     26          1           0        4.991290   -1.798288   -0.529542
     27          1           0        2.852520   -2.541008    0.469919
     28          1           0       -0.206037   -2.270727    2.462042
     29          1           0        1.621329   -1.985307    2.487123
     30          1           0       -1.787890   -0.681279    2.081107
     31          1           0       -2.120867   -0.615999   -2.960328
     32          1           0        0.055708   -1.031223   -1.805873
     33          1           0       -5.460720    0.019878   -1.624025
     34          1           0       -5.263194   -0.034448    1.233445
 ---------------------------------------------------------------------

 SCF Done:  E(UB3LYP) =  -845.006542193     A.U. after   27 cycles

 The electronic state is 2-A.
 Alpha  occ. eigenvalues --  -19.06224 -19.00415 -10.19769 -10.13324 -10.08054
 Alpha  occ. eigenvalues --  -10.07980 -10.07816 -10.07782 -10.07251 -10.06969
 Alpha  occ. eigenvalues --  -10.05199 -10.02782 -10.02589 -10.02468 -10.02464
 Alpha  occ. eigenvalues --  -10.02416 -10.02306 -10.02273 -10.02049 -10.01600
 Alpha  occ. eigenvalues --   -1.00257  -0.92069  -0.76197  -0.73684  -0.69579
 Alpha  occ. eigenvalues --   -0.67016  -0.65730  -0.63092  -0.61712  -0.59015
 Alpha  occ. eigenvalues --   -0.54916  -0.53616  -0.51673  -0.47095  -0.46967
 Alpha  occ. eigenvalues --   -0.44973  -0.43142  -0.40587  -0.39157  -0.38598
 Alpha  occ. eigenvalues --   -0.38102  -0.37024  -0.36524  -0.34488  -0.33709
 Alpha  occ. eigenvalues --   -0.32747  -0.31985  -0.30671  -0.30395  -0.30052
 Alpha  occ. eigenvalues --   -0.28413  -0.27786  -0.27190  -0.26157  -0.25660
 Alpha  occ. eigenvalues --   -0.24918  -0.24461  -0.24098  -0.22782  -0.21388
 Alpha  occ. eigenvalues --   -0.18991  -0.18136  -0.17435  -0.17372  -0.15903
 Alpha  occ. eigenvalues --   -0.14697  -0.12716  -0.10833  -0.05069   0.03398
 Alpha virt. eigenvalues --    0.06915   0.07225   0.08237   0.08461   0.08916
 Alpha virt. eigenvalues --    0.09630   0.10213   0.10275   0.11047   0.11392
 Alpha virt. eigenvalues --    0.11419   0.11948   0.12482   0.12789   0.13013

  Beta  occ. eigenvalues --  -19.06222 -19.00391 -10.19767 -10.13325 -10.08032
  Beta  occ. eigenvalues --  -10.07958 -10.07809 -10.07788 -10.07237 -10.06969
  Beta  occ. eigenvalues --  -10.05206 -10.02608 -10.02531 -10.02465 -10.02350
  Beta  occ. eigenvalues --  -10.02248 -10.02216 -10.02085 -10.01789 -10.01409
  Beta  occ. eigenvalues --   -1.00243  -0.92038  -0.76160  -0.73207  -0.69341
  Beta  occ. eigenvalues --   -0.66995  -0.65499  -0.63043  -0.61537  -0.58866
  Beta  occ. eigenvalues --   -0.54598  -0.53571  -0.51576  -0.47020  -0.46257
  Beta  occ. eigenvalues --   -0.44786  -0.42818  -0.40328  -0.39069  -0.38561
  Beta  occ. eigenvalues --   -0.37958  -0.36956  -0.36454  -0.34440  -0.33676
  Beta  occ. eigenvalues --   -0.32580  -0.31889  -0.30653  -0.30310  -0.30009
  Beta  occ. eigenvalues --   -0.28344  -0.27708  -0.27096  -0.26044  -0.25519
  Beta  occ. eigenvalues --   -0.24835  -0.23925  -0.23234  -0.22613  -0.21298
  Beta  occ. eigenvalues --   -0.18514  -0.17810  -0.17225  -0.17003  -0.15430
  Beta  occ. eigenvalues --   -0.14424  -0.11946  -0.10161  -0.03725
  Beta virt. eigenvalues --    0.06880   0.07485   0.08222   0.08434   0.08878
  Beta virt. eigenvalues --    0.09235   0.09613   0.10185   0.10225   0.11099
  Beta virt. eigenvalues --    0.11370   0.11583   0.12231   0.12474   0.12911

 Mulliken charges and spin densities:
               1          2
     1  C   -0.555665  -0.003739
     2  C   -0.000092   0.007534
     3  O   -0.146749   0.003701
     4  O    0.076027  -0.004843
     5  C   -0.818807  -0.030785
     6  C    0.032686   0.000148
     7  C   -0.277983   0.017037
     8  C   -0.642888  -0.013101
     9  C    0.087686  -0.017605
    10  C    0.274284   0.088729
    11  C    0.882126  -0.049970
    12  C   -0.612787   0.194042
    13  C    0.895794   0.024806
    14  C   -0.537154   0.004635
    15  C    0.119871   0.062193
    16  C    0.338407   0.160388
    17  C   -0.566557  -0.016332
    18  C   -0.768746   0.197245
    19  C   -0.390102   0.107736
    20  C   -0.345817   0.286118
    21  H    0.149346   0.002884
    22  H    0.251052  -0.002870
    23  H    0.138849   0.000033
    24  H    0.155463  -0.000616
    25  H    0.137485  -0.000426
    26  H    0.130702   0.002990
    27  H    0.180842   0.022497
    28  H    0.104039  -0.005256
    29  H    0.103634  -0.005118
    30  H    0.144938   0.005846
    31  H    0.123754   0.003880
    32  H    0.135405  -0.011073
    33  H    0.099437  -0.011747
    34  H    0.101520  -0.018962
 Sum of Mulliken charges =  -1.00000   1.00000

 Dipole moment (field-independent basis, Debye):
    X=              5.9248    Y=              2.6812    Z=             -1.4145  Tot=              6.6553
 Quadrupole moment (field-independent basis, Debye-Ang):
   XX=           -163.3736   YY=           -129.2771   ZZ=           -133.9005
   XY=             -6.3902   XZ=             -7.2089   YZ=             -3.9210

 Summary of Natural Population Analysis:

                                       Natural Population
                Natural  -----------------------------------------------
    Atom  No    Charge         Core      Valence    Rydberg      Total
 -----------------------------------------------------------------------
      C    1   -0.33439      0.99961     2.33051    0.00428     3.33439
      C    2    0.41179      0.99971     1.56482    0.02368     2.58821
      O    3   -0.28788      0.99986     3.28216    0.00586     4.28788
      O    4   -0.28174      0.99984     3.27147    0.01042     4.28174
      C    5    0.15769      0.99930     1.82907    0.01394     2.84231
      C    6   -0.11505      0.99951     2.10728    0.00825     3.11505
      C    7   -0.10497      0.99958     2.09658    0.00881     3.10497
      C    8   -0.11192      0.99957     2.10365    0.00870     3.11192
      C    9   -0.08771      0.99954     2.08007    0.00810     3.08771
      C   10   -0.02509      0.99943     2.01369    0.01197     3.02509
      C   11   -0.02833      0.99947     2.01533    0.01353     3.02833
      C   12   -0.14660      0.99954     2.14144    0.00562     3.14660
      C   13   -0.03777      0.99948     2.02624    0.01206     3.03777
      C   14   -0.12826      0.99945     2.11952    0.00929     3.12826
      C   15    0.00104      0.99946     1.98738    0.01212     2.99896
      C   16    0.04317      0.99946     1.94808    0.00930     2.95683
      C   17   -0.14534      0.99949     2.13734    0.00851     3.14534
      C   18   -0.05510      0.99953     2.04804    0.00753     3.05510
      C   19   -0.07383      0.99953     2.06493    0.00938     3.07383
      C   20   -0.02001      0.99952     2.01076    0.00973     3.02001
      H   21    0.10609      0.00000     0.39314    0.00078     0.39391
      H   22    0.13206      0.00000     0.36705    0.00089     0.36794
      H   23    0.10490      0.00000     0.39422    0.00088     0.39510
      H   24    0.10257      0.00000     0.39640    0.00103     0.39743
      H   25    0.09535      0.00000     0.40369    0.00095     0.40465
      H   26    0.09599      0.00000     0.40308    0.00093     0.40401
      H   27    0.10402      0.00000     0.39458    0.00139     0.39598
      H   28    0.09135      0.00000     0.40780    0.00086     0.40865
      H   29    0.08578      0.00000     0.41326    0.00096     0.41422
      H   30    0.09937      0.00000     0.39945    0.00118     0.40063
      H   31    0.09183      0.00000     0.40660    0.00157     0.40817
      H   32    0.09112      0.00000     0.40770    0.00118     0.40888
      H   33    0.08541      0.00000     0.41357    0.00102     0.41459
      H   34    0.08447      0.00000     0.41462    0.00092     0.41553
 =======================================================================
   * Total *    0.00000     19.99085    48.79350    0.21564    69.00000

 Normal termination of Gaussian 16 at Sun Dec 13 17:43:22 2020.
