 Gaussian 16, Revision A.03,

 -----------------------------------------------------------
 # opt freq B3LYP/6-31G(d) empiricaldispersion=gd3bj scf=xqc
 -----------------------------------------------------------

 -----------------------------
 CID_88194045_JID_510_neutraal
 -----------------------------
 Symbolic Z-matrix:
 Charge =  0 Multiplicity = 1

 SCF Done:  E(RB3LYP) =  -441.453619816     A.U. after   15 cycles
 SCF Done:  E(RB3LYP) =  -441.456968113     A.U. after   12 cycles
 SCF Done:  E(RB3LYP) =  -441.457163849     A.U. after   11 cycles
 SCF Done:  E(RB3LYP) =  -441.457184772     A.U. after   11 cycles
 SCF Done:  E(RB3LYP) =  -441.457196557     A.U. after   10 cycles
 SCF Done:  E(RB3LYP) =  -441.457205814     A.U. after   10 cycles
 SCF Done:  E(RB3LYP) =  -441.457220317     A.U. after   11 cycles
 SCF Done:  E(RB3LYP) =  -441.457230053     A.U. after   10 cycles
 SCF Done:  E(RB3LYP) =  -441.457239849     A.U. after   10 cycles
 SCF Done:  E(RB3LYP) =  -441.457241746     A.U. after   10 cycles
 SCF Done:  E(RB3LYP) =  -441.457241076     A.U. after   10 cycles
 SCF Done:  E(RB3LYP) =  -441.457242696     A.U. after   10 cycles
 SCF Done:  E(RB3LYP) =  -441.457242725     A.U. after    7 cycles
 Optimization completed.
    -- Stationary point found.
 Normal termination of Gaussian 16 at Tue Dec  8 12:15:51 2020.

 --------------------------------------------------------------------
 #N Geom=AllCheck Guess=TCheck SCRF=Check GenChk RB3LYP/6-31G(d) Freq
 --------------------------------------------------------------------

 Structure from the checkpoint file:  "JID_510.chk"
 -----------------------------
 CID_88194045_JID_510_neutraal
 -----------------------------
 Charge =  0 Multiplicity = 1

 SCF Done:  E(RB3LYP) =  -441.457242725     A.U. after    1 cycles

  Exact polarizability: 141.584  -4.051  76.593  -6.351   1.533  63.593
 Approx polarizability: 189.833  -8.915 118.189 -12.444   1.764  91.897

                      1                      2                      3
                      A                      A                      A
 Frequencies --     30.5474                65.5153                81.1138
 Red. masses --      3.3834                 4.0260                 2.6122
 Frc consts  --      0.0019                 0.0102                 0.0101
 IR Inten    --      0.0098                 3.8819                 0.8533

                      4                      5                      6
                      A                      A                      A
 Frequencies --    155.7276               165.5526               212.1567
 Red. masses --      2.1573                 3.1648                 3.7494
 Frc consts  --      0.0308                 0.0511                 0.0994
 IR Inten    --      0.2507                 7.7994                 4.0738

                      7                      8                      9
                      A                      A                      A
 Frequencies --    329.2378               348.0847               395.2479
 Red. masses --      2.8687                 3.4699                 2.1775
 Frc consts  --      0.1832                 0.2477                 0.2004
 IR Inten    --      7.4908                 3.4104                 0.6167

                     10                     11                     12
                      A                      A                      A
 Frequencies --    443.3093               499.4395               540.0278
 Red. masses --      2.5105                 2.6919                 1.3070
 Frc consts  --      0.2907                 0.3956                 0.2246
 IR Inten    --      3.4307                24.5672               103.7464

                     13                     14                     15
                      A                      A                      A
 Frequencies --    650.6762               663.6745               710.9282
 Red. masses --      3.2068                 1.8208                 3.6026
 Frc consts  --      0.7999                 0.4725                 1.0728
 IR Inten    --     15.9691                15.2089                 8.5425

                     16                     17                     18
                      A                      A                      A
 Frequencies --    759.9842               770.0541               872.2867
 Red. masses --      3.7569                 5.5599                 1.6527
 Frc consts  --      1.2785                 1.9425                 0.7409
 IR Inten    --     17.6065                12.5768                 1.9932

                     19                     20                     21
                      A                      A                      A
 Frequencies --    899.7699               934.4366               936.2341
 Red. masses --      1.5786                 1.4326                 1.4050
 Frc consts  --      0.7530                 0.7370                 0.7256
 IR Inten    --      6.0534                27.9278                19.3463

                     22                     23                     24
                      A                      A                      A
 Frequencies --    955.7695               960.6594              1038.3756
 Red. masses --      2.1019                 2.2676                 1.0970
 Frc consts  --      1.1313                 1.2330                 0.6969
 IR Inten    --      7.1318                 4.8805                10.4696

                     25                     26                     27
                      A                      A                      A
 Frequencies --   1062.8613              1076.5588              1091.8664
 Red. masses --      2.3526                 2.0263                 1.7099
 Frc consts  --      1.5658                 1.3836                 1.2011
 IR Inten    --      0.8885                19.0958                 4.8064

                     28                     29                     30
                      A                      A                      A
 Frequencies --   1117.0735              1178.2191              1218.5577
 Red. masses --      2.4019                 2.7486                 1.1979
 Frc consts  --      1.7659                 2.2481                 1.0480
 IR Inten    --      6.5513                14.7824                 3.3388

                     31                     32                     33
                      A                      A                      A
 Frequencies --   1232.4988              1270.9662              1286.5021
 Red. masses --      1.2683                 1.7573                 1.6081
 Frc consts  --      1.1351                 1.6725                 1.5681
 IR Inten    --      8.0362                68.7849               106.4340

                     34                     35                     36
                      A                      A                      A
 Frequencies --   1317.6676              1326.6066              1339.5327
 Red. masses --      1.3592                 1.2725                 1.3363
 Frc consts  --      1.3904                 1.3194                 1.4128
 IR Inten    --      1.5827                 8.4416                17.2317

                     37                     38                     39
                      A                      A                      A
 Frequencies --   1367.0844              1412.5868              1459.5991
 Red. masses --      1.5333                 1.5841                 1.8924
 Frc consts  --      1.6884                 1.8623                 2.3753
 IR Inten    --      6.7165                20.0286                52.6288

                     40                     41                     42
                      A                      A                      A
 Frequencies --   1470.9832              1508.8548              1511.3381
 Red. masses --      1.1853                 1.0998                 1.1006
 Frc consts  --      1.5111                 1.4752                 1.4812
 IR Inten    --      0.8167                12.7735                 6.0307

                     43                     44                     45
                      A                      A                      A
 Frequencies --   1561.7910              1725.3309              1749.6688
 Red. masses --      1.0947                 4.8449                 7.1950
 Frc consts  --      1.5733                 8.4973                12.9775
 IR Inten    --      3.9900                29.6722                33.5375

                     46                     47                     48
                      A                      A                      A
 Frequencies --   1805.8406              3021.2476              3039.3531
 Red. masses --      9.3862                 1.0709                 1.0676
 Frc consts  --     18.0343                 5.7595                 5.8103
 IR Inten    --    288.5043                71.5216                25.6116

                     49                     50                     51
                      A                      A                      A
 Frequencies --   3051.1599              3094.0895              3116.2304
 Red. masses --      1.0680                 1.0938                 1.0984
 Frc consts  --      5.8582                 6.1697                 6.2845
 IR Inten    --     16.2812                48.3789                18.2170

                     52                     53                     54
                      A                      A                      A
 Frequencies --   3123.0694              3142.9270              3150.5892
 Red. masses --      1.0912                 1.0910                 1.0653
 Frc consts  --      6.2708                 6.3493                 6.2300
 IR Inten    --     15.3912                13.1948                17.7542

                     55                     56                     57
                      A                      A                      A
 Frequencies --   3159.6286              3234.5778              3628.6729
 Red. masses --      1.0857                 1.1155                 1.0776
 Frc consts  --      6.3860                 6.8760                 8.3599
 IR Inten    --      9.4180                22.6484                37.9915

 - Thermochemistry -
 -------------------
 Temperature   298.150 Kelvin.  Pressure   1.00000 Atm.
 Atom     1 has atomic number  6 and mass  12.00000

 Molecular mass:   137.08406 amu.
 Principal axes and moments of inertia in atomic units:
                           1         2         3
     Eigenvalues --   620.878322529.414442914.94446
           X            0.99994   0.00983  -0.00381
           Y           -0.00980   0.99991   0.00861
           Z            0.00390  -0.00857   0.99996
 This molecule is an asymmetric top.
 Rotational symmetry number  1.
 Warning -- assumption of classical behavior for rotation
           may cause significant error
 Rotational temperatures (Kelvin)      0.13950     0.03424     0.02971
 Rotational constants (GHZ):           2.90676     0.71350     0.61913
 Zero-point vibrational energy     468172.6 (Joules/Mol)
                                  111.89593 (Kcal/Mol)
 Warning -- explicit consideration of  12 degrees of freedom as
           vibrations may cause significant error
 Vibrational temperatures:     43.95    94.26   116.70   224.06   238.19
          (Kelvin)            305.25   473.70   500.82   568.67   637.82
                              718.58   776.98   936.18   954.88  1022.87
                             1093.45  1107.94  1255.03  1294.57  1344.45
                             1347.03  1375.14  1382.17  1493.99  1529.22
                             1548.93  1570.95  1607.22  1695.19  1753.23
                             1773.29  1828.64  1850.99  1895.83  1908.69
                             1927.29  1966.93  2032.40  2100.04  2116.42
                             2170.91  2174.48  2247.07  2482.37  2517.38
                             2598.20  4346.90  4372.95  4389.94  4451.70
                             4483.56  4493.40  4521.97  4533.00  4546.00
                             4653.84  5220.85

 Zero-point correction=                           0.178318 (Hartree/Particle)
 Thermal correction to Energy=                    0.188274
 Thermal correction to Enthalpy=                  0.189218
 Thermal correction to Gibbs Free Energy=         0.141690
 Sum of electronic and zero-point Energies=           -441.278925
 Sum of electronic and thermal Energies=              -441.268969
 Sum of electronic and thermal Enthalpies=            -441.268024
 Sum of electronic and thermal Free Energies=         -441.315552

                     E (Thermal)             CV                S
                      KCal/Mol        Cal/Mol-Kelvin    Cal/Mol-Kelvin
 Total                  118.144             36.306            100.031
 Electronic               0.000              0.000              0.000
 Translational            0.889              2.981             40.658
 Rotational               0.889              2.981             29.905
 Vibrational            116.366             30.345             29.468
 Vibration     1          0.594              1.984              5.794
 Vibration     2          0.597              1.971              4.284
 Vibration     3          0.600              1.962              3.864
 Vibration     4          0.620              1.896              2.601
 Vibration     5          0.624              1.885              2.485
 Vibration     6          0.643              1.822              2.025
 Vibration     7          0.712              1.617              1.264
 Vibration     8          0.726              1.579              1.175
 Vibration     9          0.762              1.480              0.980
 Vibration    10          0.803              1.376              0.816
 Vibration    11          0.855              1.251              0.660
 Vibration    12          0.895              1.162              0.565

 Optimization completed.
    -- Stationary point found.
 Normal termination of Gaussian 16 at Tue Dec  8 12:22:01 2020.

 ----------------------------------------------------------------------
 # B3LYP/6-311++G(d,p) empiricaldispersion=gd3bj scf=xqc pop=npa geom=c
 heck
 ----------------------------------------------------------------------

 -------------------------------------
 CID_88194045_JID_510_Energie_neutraal
 -------------------------------------
 Structure from the checkpoint file:  "JID_510.chk"
 Charge =  0 Multiplicity = 1

 SCF Done:  E(RB3LYP) =  -441.586662022     A.U. after   14 cycles
 Normal termination of Gaussian 16 at Tue Dec  8 12:24:54 2020.

 ----------------------------------------------------------------------
 # B3LYP/6-311++G(d,p) empiricaldispersion=gd3bj scf=xqc pop=npa geom=c
 heck
 ----------------------------------------------------------------------

 -----------------------------------
 CID_88194045_JID_510_Energie_kation
 -----------------------------------
 Structure from the checkpoint file:  "JID_510.chk"
 Charge =  1 Multiplicity = 2

 SCF Done:  E(UB3LYP) =  -441.269123659     A.U. after   33 cycles
 SCF Done:  E(UB3LYP) =  -441.269304260     a.u. after    5 cycles
 Normal termination of Gaussian 16 at Tue Dec  8 12:50:17 2020.
 Gaussian 16:  ES64L-G16RevA.03 25-Dec-2016

 ----------------------------------------------------------------------
 # B3LYP/6-311++G(d,p) empiricaldispersion=gd3bj scf=xqc pop=npa geom=c
 heck
 ----------------------------------------------------------------------

 ----------------------------------
 CID_88194045_JID_510_Energie_anion
 ----------------------------------
 Structure from the checkpoint file:  "JID_510.chk"
 Charge = -1 Multiplicity = 2

                         Standard orientation:
 ---------------------------------------------------------------------
 Center     Atomic      Atomic             Coordinates (Angstroms)
 Number     Number       Type             X           Y           Z
 ---------------------------------------------------------------------
      1          6           0        4.054503   -0.312450    0.464088
      2          6           0        2.790862    0.103365    0.545944
      3          6           0        1.850074    0.255592   -0.624256
      4          6           0        0.724822   -0.743192   -0.530151
      5          6           0       -0.567681   -0.475148   -0.309001
      6          6           0       -1.691962   -1.484375   -0.201141
      7          6           0       -2.817330   -0.715618    0.530219
      8          7           0       -2.477846    0.672807    0.252841
      9          6           0       -1.162457    0.885037   -0.092943
     10          8           0       -0.634995    1.986104   -0.186917
     11          1           0        4.510101   -0.565856   -0.491271
     12          1           0        4.685552   -0.405773    1.343778
     13          1           0        2.364066    0.345732    1.519381
     14          1           0        1.434157    1.265899   -0.651116
     15          1           0        2.404091    0.081821   -1.556855
     16          1           0        1.021463   -1.789773   -0.618494
     17          1           0       -2.037053   -1.774993   -1.201488
     18          1           0       -1.403492   -2.397352    0.327052
     19          1           0       -3.812293   -0.965081    0.148504
     20          1           0       -2.804850   -0.923481    1.609973
     21          1           0       -3.021858    1.451103    0.599420
 ---------------------------------------------------------------------

 SCF Done:  E(UB3LYP) =  -441.577734708     A.U. after   32 cycles

 The electronic state is 2-A.
 Alpha  occ. eigenvalues --  -18.94337 -14.19636 -10.12085 -10.08058 -10.06023
 Alpha  occ. eigenvalues --  -10.04977 -10.04869 -10.04315 -10.03257 -10.03025
 Alpha  occ. eigenvalues --   -0.89435  -0.79998  -0.68868  -0.65615  -0.60965
 Alpha  occ. eigenvalues --   -0.56971  -0.50598  -0.47781  -0.44178  -0.39513
 Alpha  occ. eigenvalues --   -0.36847  -0.35805  -0.34969  -0.31382  -0.30785
 Alpha  occ. eigenvalues --   -0.29136  -0.28034  -0.26279  -0.25465  -0.25276
 Alpha  occ. eigenvalues --   -0.23972  -0.23524  -0.21715  -0.15364  -0.13026
 Alpha  occ. eigenvalues --   -0.11618  -0.11180   0.05312
 Alpha virt. eigenvalues --    0.07718   0.08417   0.09549   0.10047   0.10345
 Alpha virt. eigenvalues --    0.10904   0.11124   0.12121   0.13150   0.13435
 Alpha virt. eigenvalues --    0.13859   0.15125   0.15873   0.17185   0.18252

  Beta  occ. eigenvalues --  -18.94208 -14.19585 -10.11964 -10.08008 -10.05964
  Beta  occ. eigenvalues --  -10.04976 -10.04823 -10.04339 -10.03170 -10.02740
  Beta  occ. eigenvalues --   -0.89190  -0.79838  -0.68612  -0.65419  -0.60754
  Beta  occ. eigenvalues --   -0.56745  -0.50316  -0.47608  -0.44040  -0.39215
  Beta  occ. eigenvalues --   -0.36698  -0.35693  -0.34782  -0.31225  -0.30609
  Beta  occ. eigenvalues --   -0.28985  -0.27873  -0.25971  -0.25228  -0.24906
  Beta  occ. eigenvalues --   -0.23852  -0.23389  -0.21576  -0.15006  -0.12428
  Beta  occ. eigenvalues --   -0.10953  -0.10581
  Beta virt. eigenvalues --    0.08191   0.08596   0.09501   0.09875   0.10275
  Beta virt. eigenvalues --    0.10929   0.11291   0.11729   0.12409   0.13460
  Beta virt. eigenvalues --    0.13807   0.13892   0.15052   0.15943   0.17264

 Mulliken charges and spin densities:
               1          2
     1  C   -0.660436   0.103358
     2  C    0.147712   0.001551
     3  C   -0.150328  -0.044242
     4  C   -0.813660   0.569165
     5  C    0.757928  -0.229201
     6  C   -0.331647  -0.072301
     7  C    1.715407  -2.108849
     8  N   -0.432769   0.272776
     9  C   -0.257265   0.246916
    10  O   -0.443918   0.054191
    11  H    0.072233   0.014186
    12  H    0.088675  -0.003526
    13  H    0.154451  -0.002011
    14  H    0.210443   0.002518
    15  H    0.110725   0.010225
    16  H    0.066456   0.059690
    17  H   -0.228539   0.413684
    18  H    0.123957  -0.014694
    19  H   -0.972627   1.150116
    20  H   -0.193355   0.333601
    21  H    0.036558   0.242846
 Sum of Mulliken charges =  -1.00000   1.00000

 Dipole moment (field-independent basis, Debye):
    X=              5.7561    Y=             -0.2368    Z=              1.3298  Tot=              5.9125
 Quadrupole moment (field-independent basis, Debye-Ang):
   XX=           -120.6982   YY=            -87.2582   ZZ=            -76.4713
   XY=             -9.4764   XZ=             -3.1199   YZ=             -0.2730

 Summary of Natural Population Analysis:

                                       Natural Population
                Natural  -----------------------------------------------
    Atom  No    Charge         Core      Valence    Rydberg      Total
 -----------------------------------------------------------------------
      C    1   -0.20948      0.99957     2.20270    0.00721     3.20948
      C    2   -0.05492      0.99957     2.04657    0.00879     3.05492
      C    3   -0.23399      0.99959     2.22465    0.00976     3.23399
      C    4   -0.00892      0.99947     1.99910    0.01034     3.00892
      C    5   -0.05668      0.99944     2.04708    0.01016     3.05668
      C    6   -0.19934      0.99962     2.19026    0.00946     3.19934
      C    7   -0.07843      0.99964     2.06833    0.01046     3.07843
      N    8   -0.31596      0.99969     2.80564    0.01063     3.81596
      C    9    0.34654      0.99960     1.62993    0.02393     2.65346
      O   10   -0.32620      0.99987     3.32097    0.00535     4.32620
      H   11    0.08514      0.00000     0.41373    0.00113     0.41486
      H   12    0.08642      0.00000     0.41245    0.00113     0.41358
      H   13    0.08969      0.00000     0.40928    0.00103     0.41031
      H   14    0.12733      0.00000     0.37145    0.00122     0.37267
      H   15    0.09495      0.00000     0.40370    0.00135     0.40505
      H   16    0.08184      0.00000     0.41659    0.00157     0.41816
      H   17    0.10496      0.00000     0.39246    0.00258     0.39504
      H   18    0.09876      0.00000     0.40023    0.00101     0.40124
      H   19    0.09583      0.00000     0.39798    0.00619     0.40417
      H   20    0.08267      0.00000     0.41552    0.00181     0.41733
      H   21    0.18980      0.00000     0.30780    0.00241     0.31020
 =======================================================================
   * Total *   -0.00000      9.99605    26.87643    0.12752    37.00000

 Normal termination of Gaussian 16 at Tue Dec  8 13:03:58 2020.
