 Gaussian 16, Revision A.03,

 -----------------------------------------------------------
 # opt freq B3LYP/6-31G(d) empiricaldispersion=gd3bj scf=xqc
 -----------------------------------------------------------

 -------------------------------
 CID_117960284_JID_5362_neutraal
 -------------------------------
 Symbolic Z-matrix:
 Charge =  0 Multiplicity = 1

 SCF Done:  E(RB3LYP) =  -708.677783784     A.U. after   15 cycles
 SCF Done:  E(RB3LYP) =  -708.682344058     A.U. after   12 cycles
 SCF Done:  E(RB3LYP) =  -708.682568805     A.U. after   12 cycles
 SCF Done:  E(RB3LYP) =  -708.683326383     A.U. after   12 cycles
 SCF Done:  E(RB3LYP) =  -708.684167243     A.U. after   12 cycles
 SCF Done:  E(RB3LYP) =  -708.684547148     A.U. after   12 cycles
 SCF Done:  E(RB3LYP) =  -708.684656505     A.U. after   12 cycles
 SCF Done:  E(RB3LYP) =  -708.684717110     A.U. after   11 cycles
 SCF Done:  E(RB3LYP) =  -708.684757201     A.U. after   11 cycles
 SCF Done:  E(RB3LYP) =  -708.684761144     A.U. after   10 cycles
 SCF Done:  E(RB3LYP) =  -708.684762248     A.U. after    9 cycles
 SCF Done:  E(RB3LYP) =  -708.684762410     A.U. after    7 cycles
 SCF Done:  E(RB3LYP) =  -708.684762450     A.U. after    7 cycles
 Optimization completed.
    -- Stationary point found.
 Normal termination of Gaussian 16 at Thu Dec 10 15:54:09 2020.

 --------------------------------------------------------------------
 #N Geom=AllCheck Guess=TCheck SCRF=Check GenChk RB3LYP/6-31G(d) Freq
 --------------------------------------------------------------------

 Structure from the checkpoint file:  "JID_5362.chk"
 -------------------------------
 CID_117960284_JID_5362_neutraal
 -------------------------------
 Charge =  0 Multiplicity = 1

 SCF Done:  E(RB3LYP) =  -708.684762450     A.U. after    1 cycles

  Exact polarizability: 160.029 -16.746 114.947  17.221  13.875 109.908
 Approx polarizability: 223.785 -25.496 171.360  39.776  36.230 183.207

                      1                      2                      3
                      A                      A                      A
 Frequencies --     19.3827                32.4694                54.8890
 Red. masses --      3.9168                 3.7875                 3.5929
 Frc consts  --      0.0009                 0.0024                 0.0064
 IR Inten    --      0.1089                 0.4362                 0.2481

                      4                      5                      6
                      A                      A                      A
 Frequencies --     82.9811               105.8022               141.8391
 Red. masses --      5.2088                 3.4358                 4.4758
 Frc consts  --      0.0211                 0.0227                 0.0531
 IR Inten    --      2.4078                 1.2223                 0.2855

                      7                      8                      9
                      A                      A                      A
 Frequencies --    184.6886               190.3638               218.4135
 Red. masses --      1.3746                 1.6205                 2.3223
 Frc consts  --      0.0276                 0.0346                 0.0653
 IR Inten    --      3.0330                 0.6666                 2.7879

                     10                     11                     12
                      A                      A                      A
 Frequencies --    230.7963               257.9946               295.5998
 Red. masses --      2.0434                 3.2904                 2.0781
 Frc consts  --      0.0641                 0.1290                 0.1070
 IR Inten    --      3.9236                 1.3364                 8.2322

                     13                     14                     15
                      A                      A                      A
 Frequencies --    318.0031               327.0401               355.3702
 Red. masses --      2.5306                 1.7610                 3.0157
 Frc consts  --      0.1508                 0.1110                 0.2244
 IR Inten    --      3.1129                14.6130                 6.5661

                     16                     17                     18
                      A                      A                      A
 Frequencies --    360.9093               419.0812               435.4385
 Red. masses --      2.1578                 3.3724                 4.1818
 Frc consts  --      0.1656                 0.3490                 0.4672
 IR Inten    --     20.7263                 6.9922                 1.9108

                     19                     20                     21
                      A                      A                      A
 Frequencies --    464.3922               493.2770               567.2626
 Red. masses --      3.0054                 4.6088                 4.8553
 Frc consts  --      0.3819                 0.6607                 0.9205
 IR Inten    --      4.4234                 3.3536                23.2592

                     22                     23                     24
                      A                      A                      A
 Frequencies --    591.7219               606.9709               614.9167
 Red. masses --      3.3149                 4.2951                 1.9814
 Frc consts  --      0.6838                 0.9323                 0.4414
 IR Inten    --     62.5288                21.7588               105.2330

                     25                     26                     27
                      A                      A                      A
 Frequencies --    663.7775               707.8404               718.5347
 Red. masses --      2.4386                 3.9803                 3.2914
 Frc consts  --      0.6330                 1.1750                 1.0012
 IR Inten    --    155.4239                 5.7866                20.2680

                     28                     29                     30
                      A                      A                      A
 Frequencies --    737.1534               776.3136               794.4078
 Red. masses --      4.5322                 4.4556                 1.3606
 Frc consts  --      1.4510                 1.5821                 0.5059
 IR Inten    --     28.2256                 2.2300                23.4625

                     31                     32                     33
                      A                      A                      A
 Frequencies --    798.4205               845.8587               869.0494
 Red. masses --      1.3486                 1.5838                 2.6359
 Frc consts  --      0.5065                 0.6677                 1.1729
 IR Inten    --      5.3578                46.9326                11.9799

                     34                     35                     36
                      A                      A                      A
 Frequencies --    925.7668               932.9890               970.5396
 Red. masses --      1.2839                 2.5855                 2.9658
 Frc consts  --      0.6483                 1.3260                 1.6460
 IR Inten    --      0.0998                 9.3091                 2.8736

                     37                     38                     39
                      A                      A                      A
 Frequencies --   1024.9623              1042.6379              1069.3227
 Red. masses --      1.7000                 2.5236                 3.1435
 Frc consts  --      1.0522                 1.6164                 2.1177
 IR Inten    --     13.2560                16.9474                46.0089

                     40                     41                     42
                      A                      A                      A
 Frequencies --   1074.7565              1092.2973              1130.1405
 Red. masses --      1.4570                 2.6740                 1.6180
 Frc consts  --      0.9916                 1.8797                 1.2176
 IR Inten    --      2.1931                11.1422                32.3074

                     43                     44                     45
                      A                      A                      A
 Frequencies --   1133.7802              1187.6387              1209.3818
 Red. masses --      1.9385                 1.5015                 1.7483
 Frc consts  --      1.4682                 1.2478                 1.5066
 IR Inten    --     26.8962                79.1436                13.4492

                     46                     47                     48
                      A                      A                      A
 Frequencies --   1220.3908              1242.5060              1287.1167
 Red. masses --      2.4222                 2.5341                 1.6308
 Frc consts  --      2.1255                 2.3050                 1.5918
 IR Inten    --    114.1069                47.6817               143.4083

                     49                     50                     51
                      A                      A                      A
 Frequencies --   1312.2510              1333.2873              1339.1108
 Red. masses --      1.8498                 1.4559                 2.3097
 Frc consts  --      1.8767                 1.5249                 2.4402
 IR Inten    --    155.3683                 3.5773                53.7701

                     52                     53                     54
                      A                      A                      A
 Frequencies --   1341.8729              1379.1165              1405.2716
 Red. masses --      1.3847                 4.7090                 1.5153
 Frc consts  --      1.4690                 5.2769                 1.7630
 IR Inten    --     58.1391                47.0317                 6.9793

                     55                     56                     57
                      A                      A                      A
 Frequencies --   1420.2686              1443.1891              1445.3450
 Red. masses --      1.3284                 1.2840                 1.3207
 Frc consts  --      1.5787                 1.5757                 1.6256
 IR Inten    --      7.8951                 0.3461                 6.5423

                     58                     59                     60
                      A                      A                      A
 Frequencies --   1494.1383              1509.4018              1514.4766
 Red. masses --      2.9411                 1.0829                 1.0448
 Frc consts  --      3.8685                 1.4537                 1.4119
 IR Inten    --      9.2166                 3.2441                 8.3124

                     61                     62                     63
                      A                      A                      A
 Frequencies --   1514.6643              1520.7442              1533.7038
 Red. masses --      1.0456                 1.0781                 1.0885
 Frc consts  --      1.4134                 1.4689                 1.5085
 IR Inten    --      4.0372                 2.4499                 9.0247

                     64                     65                     66
                      A                      A                      A
 Frequencies --   1534.7092              1565.6035              1638.6627
 Red. masses --      1.1288                 2.9593                 6.1575
 Frc consts  --      1.5665                 4.2736                 9.7417
 IR Inten    --     16.5109               138.1274                43.7308

                     67                     68                     69
                      A                      A                      A
 Frequencies --   1679.9275              1701.2326              1821.1062
 Red. masses --      2.6528                 1.5283                11.1997
 Frc consts  --      4.4111                 2.6060                21.8840
 IR Inten    --     66.3389               168.0950               190.5628

                     70                     71                     72
                      A                      A                      A
 Frequencies --   3011.8890              3064.1619              3065.8580
 Red. masses --      1.0486                 1.0366                 1.0906
 Frc consts  --      5.6047                 5.7346                 6.0400
 IR Inten    --     51.9488                12.3796                26.7592

                     73                     74                     75
                      A                      A                      A
 Frequencies --   3067.2225              3097.7887              3118.7243
 Red. masses --      1.0605                 1.0588                 1.1043
 Frc consts  --      5.8782                 5.9863                 6.3286
 IR Inten    --     32.6085                28.1759                10.3707

                     76                     77                     78
                      A                      A                      A
 Frequencies --   3126.9089              3134.7854              3141.0375
 Red. masses --      1.0976                 1.1001                 1.1053
 Frc consts  --      6.3230                 6.3696                 6.4250
 IR Inten    --     14.4108                33.3973                 3.5996

                     79                     80                     81
                      A                      A                      A
 Frequencies --   3162.4765              3179.8821              3198.1325
 Red. masses --      1.1080                 1.0893                 1.0905
 Frc consts  --      6.5291                 6.4894                 6.5716
 IR Inten    --     23.6503                19.8204                 7.1261

                     82                     83                     84
                      A                      A                      A
 Frequencies --   3234.0686              3552.3577              3650.8974
 Red. masses --      1.0914                 1.0478                 1.0979
 Frc consts  --      6.7259                 7.7902                 8.6224
 IR Inten    --      5.7398                 8.8109                 8.3608

 - Thermochemistry -
 -------------------
 Temperature   298.150 Kelvin.  Pressure   1.00000 Atm.
 Atom     1 has atomic number  6 and mass  12.00000

 Molecular mass:   209.10519 amu.
 Principal axes and moments of inertia in atomic units:
                           1         2         3
     Eigenvalues --  1753.624795085.648145621.96554
           X            0.99999  -0.00266  -0.00385
           Y            0.00265   0.99999  -0.00432
           Z            0.00386   0.00431   0.99998
 This molecule is an asymmetric top.
 Rotational symmetry number  1.
 Warning -- assumption of classical behavior for rotation
           may cause significant error
 Rotational temperatures (Kelvin)      0.04939     0.01703     0.01541
 Rotational constants (GHZ):           1.02915     0.35487     0.32102
 Zero-point vibrational energy     658421.4 (Joules/Mol)
                                  157.36649 (Kcal/Mol)
 Warning -- explicit consideration of  24 degrees of freedom as
           vibrations may cause significant error
 Vibrational temperatures:     27.89    46.72    78.97   119.39   152.23
          (Kelvin)            204.07   265.73   273.89   314.25   332.06
                              371.20   425.30   457.54   470.54   511.30
                              519.27   602.96   626.50   668.16   709.72
                              816.16   851.36   873.30   884.73   955.03
                             1018.42  1033.81  1060.60  1116.94  1142.98
                             1148.75  1217.00  1250.37  1331.97  1342.36
                             1396.39  1474.69  1500.12  1538.52  1546.33
                             1571.57  1626.02  1631.26  1708.75  1740.03
                             1755.87  1787.69  1851.87  1888.04  1918.30
                             1926.68  1930.66  1984.24  2021.87  2043.45
                             2076.43  2079.53  2149.73  2171.69  2178.99
                             2179.26  2188.01  2206.66  2208.10  2252.55
                             2357.67  2417.04  2447.69  2620.17  4333.44
                             4408.65  4411.09  4413.05  4457.03  4487.15
                             4498.92  4510.26  4519.25  4550.10  4575.14
                             4601.40  4653.10  5111.05  5252.83

 Zero-point correction=                           0.250779 (Hartree/Particle)
 Thermal correction to Energy=                    0.265992
 Thermal correction to Enthalpy=                  0.266936
 Thermal correction to Gibbs Free Energy=         0.207095
 Sum of electronic and zero-point Energies=           -708.433983
 Sum of electronic and thermal Energies=              -708.418771
 Sum of electronic and thermal Enthalpies=            -708.417827
 Sum of electronic and thermal Free Energies=         -708.477667

                     E (Thermal)             CV                S
                      KCal/Mol        Cal/Mol-Kelvin    Cal/Mol-Kelvin
 Total                  166.912             56.920            125.946
 Electronic               0.000              0.000              0.000
 Translational            0.889              2.981             41.917
 Rotational               0.889              2.981             32.283
 Vibrational            165.135             50.958             51.746
 Vibration     1          0.593              1.986              6.696
 Vibration     2          0.594              1.983              5.673
 Vibration     3          0.596              1.976              4.633
 Vibration     4          0.600              1.961              3.819
 Vibration     5          0.605              1.945              3.345
 Vibration     6          0.615              1.911              2.779
 Vibration     7          0.631              1.861              2.280
 Vibration     8          0.634              1.853              2.224
 Vibration     9          0.646              1.813              1.972
 Vibration    10          0.653              1.794              1.873
 Vibration    11          0.667              1.749              1.675
 Vibration    12          0.690              1.682              1.442
 Vibration    13          0.704              1.639              1.320
 Vibration    14          0.711              1.621              1.275
 Vibration    15          0.731              1.564              1.142
 Vibration    16          0.735              1.553              1.118
 Vibration    17          0.782              1.429              0.895
 Vibration    18          0.796              1.393              0.841
 Vibration    19          0.822              1.329              0.753
 Vibration    20          0.849              1.265              0.675
 Vibration    21          0.923              1.102              0.510
 Vibration    22          0.949              1.049              0.464
 Vibration    23          0.966              1.017              0.438
 Vibration    24          0.974              1.000              0.425

 Optimization completed.
    -- Stationary point found.
 Normal termination of Gaussian 16 at Thu Dec 10 16:04:15 2020.

 ----------------------------------------------------------------------
 # B3LYP/6-311++G(d,p) empiricaldispersion=gd3bj scf=xqc pop=npa geom=c
 heck
 ----------------------------------------------------------------------

 ---------------------------------------
 CID_117960284_JID_5362_Energie_neutraal
 ---------------------------------------
 Structure from the checkpoint file:  "JID_5362.chk"
 Charge =  0 Multiplicity = 1

 SCF Done:  E(RB3LYP) =  -708.892166604     A.U. after   15 cycles
 Normal termination of Gaussian 16 at Thu Dec 10 16:08:16 2020.

 ----------------------------------------------------------------------
 # B3LYP/6-311++G(d,p) empiricaldispersion=gd3bj scf=xqc pop=npa geom=c
 heck
 ----------------------------------------------------------------------

 -------------------------------------
 CID_117960284_JID_5362_Energie_kation
 -------------------------------------
 Structure from the checkpoint file:  "JID_5362.chk"
 Charge =  1 Multiplicity = 2

 SCF Done:  E(UB3LYP) =  -708.615453784     A.U. after   23 cycles
 Normal termination of Gaussian 16 at Thu Dec 10 16:21:43 2020.
 Gaussian 16:  ES64L-G16RevA.03 25-Dec-2016

 ----------------------------------------------------------------------
 # B3LYP/6-311++G(d,p) empiricaldispersion=gd3bj scf=xqc pop=npa geom=c
 heck
 ----------------------------------------------------------------------

 ------------------------------------
 CID_117960284_JID_5362_Energie_anion
 ------------------------------------
 Structure from the checkpoint file:  "JID_5362.chk"
 Charge = -1 Multiplicity = 2

                         Standard orientation:
 ---------------------------------------------------------------------
 Center     Atomic      Atomic             Coordinates (Angstroms)
 Number     Number       Type             X           Y           Z
 ---------------------------------------------------------------------
      1          6           0        1.961723    2.426154   -0.635488
      2          6           0        2.876109    1.350809   -1.199651
      3          8           0        2.349958    0.033343   -0.907696
      4          6           0        2.610804   -0.454420    0.312390
      5          8           0        3.343286    0.056187    1.132964
      6          6           0        1.893475   -1.781947    0.555767
      7          8           0        0.693384   -1.941887   -0.165909
      8          6           0       -0.338503   -1.081336    0.121460
      9          6           0       -1.462011   -1.211773   -0.695639
     10          6           0       -2.579648   -0.395828   -0.504754
     11          6           0       -2.575137    0.579849    0.520786
     12          6           0       -1.437031    0.686927    1.313908
     13          6           0       -0.313386   -0.126687    1.140928
     14          6           0       -3.779476    1.457676    0.740899
     15          7           0       -3.724704   -0.577811   -1.287034
     16          1           0        0.937712    2.288182   -0.994971
     17          1           0        2.315152    3.416031   -0.945465
     18          1           0        1.954404    2.388193    0.456953
     19          1           0        2.918475    1.385990   -2.290239
     20          1           0        3.886741    1.426582   -0.791639
     21          1           0        2.548161   -2.593252    0.222365
     22          1           0        1.746603   -1.884533    1.637122
     23          1           0       -1.447077   -1.960333   -1.482413
     24          1           0       -1.422700    1.433362    2.104559
     25          1           0        0.544326    0.001175    1.789318
     26          1           0       -3.987745    2.105364   -0.124595
     27          1           0       -4.684900    0.862983    0.920123
     28          1           0       -3.632189    2.113734    1.603623
     29          1           0       -3.562672   -1.073805   -2.154749
     30          1           0       -4.275900    0.257309   -1.439260
 ---------------------------------------------------------------------

 SCF Done:  E(UB3LYP) =  -708.879948755     A.U. after   33 cycles
 SCF Done:  E(UB3LYP) =  -708.879948755     a.u. after    1 cycles

 The electronic state is 2-A.
 Alpha  occ. eigenvalues --  -19.08076 -19.06410 -19.02762 -14.21116 -10.21522
 Alpha  occ. eigenvalues --  -10.15539 -10.13868 -10.13357 -10.11042 -10.07188
 Alpha  occ. eigenvalues --  -10.07023 -10.06966 -10.06468 -10.06408 -10.06140
 Alpha  occ. eigenvalues --   -1.02491  -0.98009  -0.93773  -0.81680  -0.74041
 Alpha  occ. eigenvalues --   -0.69633  -0.67404  -0.64406  -0.62862  -0.58110
 Alpha  occ. eigenvalues --   -0.56096  -0.51508  -0.49710  -0.46970  -0.45498
 Alpha  occ. eigenvalues --   -0.42477  -0.42082  -0.40044  -0.38821  -0.37155
 Alpha  occ. eigenvalues --   -0.36711  -0.36417  -0.35525  -0.33255  -0.32154
 Alpha  occ. eigenvalues --   -0.31992  -0.31416  -0.30065  -0.29956  -0.28785
 Alpha  occ. eigenvalues --   -0.28004  -0.26931  -0.26180  -0.25363  -0.24921
 Alpha  occ. eigenvalues --   -0.23598  -0.22070  -0.20560  -0.19162  -0.12816
 Alpha  occ. eigenvalues --   -0.10595   0.04378
 Alpha virt. eigenvalues --    0.06208   0.06838   0.07457   0.07610   0.08847
 Alpha virt. eigenvalues --    0.09003   0.09335   0.09889   0.10269   0.10720
 Alpha virt. eigenvalues --    0.11213   0.11582   0.11854   0.12694   0.12936

  Beta  occ. eigenvalues --  -19.08073 -19.06404 -19.02731 -14.21052 -10.21465
  Beta  occ. eigenvalues --  -10.15542 -10.13855 -10.13357 -10.11029 -10.07169
  Beta  occ. eigenvalues --  -10.07022 -10.06934 -10.06466 -10.06364 -10.06129
  Beta  occ. eigenvalues --   -1.02445  -0.97994  -0.93729  -0.81607  -0.74003
  Beta  occ. eigenvalues --   -0.69589  -0.67375  -0.64369  -0.62811  -0.58042
  Beta  occ. eigenvalues --   -0.56043  -0.51449  -0.49665  -0.46918  -0.45452
  Beta  occ. eigenvalues --   -0.42424  -0.42056  -0.39944  -0.38763  -0.37093
  Beta  occ. eigenvalues --   -0.36671  -0.36367  -0.35485  -0.33209  -0.32115
  Beta  occ. eigenvalues --   -0.31945  -0.31365  -0.30021  -0.29903  -0.28729
  Beta  occ. eigenvalues --   -0.27959  -0.26900  -0.26144  -0.25333  -0.24879
  Beta  occ. eigenvalues --   -0.23567  -0.21996  -0.20516  -0.19124  -0.12768
  Beta  occ. eigenvalues --   -0.10544
  Beta virt. eigenvalues --    0.06623   0.06948   0.07425   0.07849   0.08247
  Beta virt. eigenvalues --    0.09231   0.09328   0.09833   0.10120   0.10445
  Beta virt. eigenvalues --    0.11098   0.11321   0.11987   0.12218   0.12956

 Mulliken charges and spin densities:
               1          2
     1  C    0.165782  -0.661228
     2  C    0.087016  -0.157374
     3  O    0.034202   0.018503
     4  C   -0.089209   0.000272
     5  O   -0.231878   0.017299
     6  C   -0.238743  -0.171515
     7  O   -0.062442   0.007874
     8  C   -0.311973  -0.607046
     9  C   -0.465096   0.216680
    10  C   -1.389082   0.490377
    11  C   -0.301685   1.478602
    12  C    0.084963  -0.107546
    13  C    0.703519  -0.320394
    14  C    2.764906  -3.406356
    15  N   -0.244146  -0.026885
    16  H    0.217701  -0.049048
    17  H   -0.420291   0.569049
    18  H   -0.047659   0.223126
    19  H   -0.254225   0.428329
    20  H    0.119566   0.035439
    21  H    0.187013   0.000113
    22  H    0.168759   0.046213
    23  H   -0.060838   0.223869
    24  H   -0.146356   0.293112
    25  H    0.146847   0.050994
    26  H   -0.478954   0.655413
    27  H   -0.149879   0.311649
    28  H   -0.119591   0.258094
    29  H   -0.398478   0.649880
    30  H   -0.269746   0.532507
 Sum of Mulliken charges =  -1.00000   1.00000

 Dipole moment (field-independent basis, Debye):
    X=              7.0727    Y=             -4.6512    Z=              3.6960  Tot=              9.2368
 Quadrupole moment (field-independent basis, Debye-Ang):
   XX=           -174.3546   YY=           -129.1530   ZZ=           -127.4397
   XY=             -3.6721   XZ=            -14.3678   YZ=              2.1750

 Summary of Natural Population Analysis:

                                       Natural Population
                Natural  -----------------------------------------------
    Atom  No    Charge         Core      Valence    Rydberg      Total
 -----------------------------------------------------------------------
      C    1   -0.30062      0.99966     2.29589    0.00508     3.30062
      C    2   -0.01718      0.99958     2.00563    0.01198     3.01718
      O    3   -0.27405      0.99986     3.26490    0.00929     4.27405
      C    4    0.40052      0.99971     1.57481    0.02496     2.59948
      O    5   -0.30824      0.99987     3.30276    0.00562     4.30824
      C    6   -0.05481      0.99953     2.04336    0.01193     3.05481
      O    7   -0.27072      0.99986     3.26255    0.00832     4.27072
      C    8    0.16248      0.99938     1.82398    0.01416     2.83752
      C    9   -0.14265      0.99948     2.13231    0.01086     3.14265
      C   10    0.09815      0.99945     1.89018    0.01221     2.90185
      C   11   -0.04851      0.99948     2.03869    0.01034     3.04851
      C   12   -0.08059      0.99953     2.07149    0.00958     3.08059
      C   13   -0.16875      0.99951     2.16043    0.00881     3.16875
      C   14   -0.29551      0.99964     2.28958    0.00629     3.29551
      N   15   -0.39497      0.99971     2.88470    0.01056     3.89497
      H   16    0.10850      0.00000     0.39024    0.00125     0.39150
      H   17    0.10305      0.00000     0.39547    0.00148     0.39695
      H   18    0.10423      0.00000     0.39463    0.00114     0.39577
      H   19    0.09197      0.00000     0.40679    0.00124     0.40803
      H   20    0.09273      0.00000     0.40611    0.00116     0.40727
      H   21    0.10347      0.00000     0.39563    0.00090     0.39653
      H   22    0.09557      0.00000     0.40311    0.00132     0.40443
      H   23    0.10347      0.00000     0.39475    0.00178     0.39653
      H   24    0.09758      0.00000     0.40150    0.00092     0.40242
      H   25    0.10393      0.00000     0.39404    0.00203     0.39607
      H   26    0.10490      0.00000     0.39295    0.00215     0.39510
      H   27    0.10382      0.00000     0.39497    0.00121     0.39618
      H   28    0.10236      0.00000     0.39657    0.00107     0.39764
      H   29    0.18753      0.00000     0.30810    0.00437     0.31247
      H   30    0.19235      0.00000     0.30128    0.00638     0.30765
 =======================================================================
   * Total *   -0.00000     14.99425    40.81738    0.18837    56.00000

 Normal termination of Gaussian 16 at Thu Dec 10 16:40:32 2020.
