 Gaussian 16, Revision A.03,

 -----------------------------------------------------------
 # opt freq B3LYP/6-31G(d) empiricaldispersion=gd3bj scf=xqc
 -----------------------------------------------------------

 ------------------------------
 CID_22005972_JID_1512_neutraal
 ------------------------------
 Symbolic Z-matrix:
 Charge =  0 Multiplicity = 1

 SCF Done:  E(RB3LYP) =  -501.650124106     A.U. after   13 cycles
 SCF Done:  E(RB3LYP) =  -501.653458738     A.U. after   10 cycles
 SCF Done:  E(RB3LYP) =  -501.653390785     A.U. after   10 cycles
 SCF Done:  E(RB3LYP) =  -501.653435006     A.U. after   11 cycles
 SCF Done:  E(RB3LYP) =  -501.654102679     A.U. after    8 cycles
 SCF Done:  E(RB3LYP) =  -501.654373628     A.U. after   10 cycles
 SCF Done:  E(RB3LYP) =  -501.654427886     A.U. after    9 cycles
 SCF Done:  E(RB3LYP) =  -501.654431536     A.U. after    9 cycles
 SCF Done:  E(RB3LYP) =  -501.654443782     A.U. after    9 cycles
 SCF Done:  E(RB3LYP) =  -501.654445214     A.U. after    7 cycles
 SCF Done:  E(RB3LYP) =  -501.654445511     A.U. after    8 cycles
 SCF Done:  E(RB3LYP) =  -501.654446122     A.U. after    7 cycles
 SCF Done:  E(RB3LYP) =  -501.654446264     A.U. after    7 cycles
 SCF Done:  E(RB3LYP) =  -501.654446309     A.U. after    6 cycles
 Optimization completed.
    -- Stationary point found.
 Normal termination of Gaussian 16 at Tue Dec  8 20:18:09 2020.

 --------------------------------------------------------------------
 #N Geom=AllCheck Guess=TCheck SCRF=Check GenChk RB3LYP/6-31G(d) Freq
 --------------------------------------------------------------------

 Structure from the checkpoint file:  "JID_1512.chk"
 ------------------------------
 CID_22005972_JID_1512_neutraal
 ------------------------------
 Charge =  0 Multiplicity = 1

 SCF Done:  E(RB3LYP) =  -501.654446309     A.U. after    1 cycles

  Exact polarizability: 113.832   0.994  95.513  -1.217  -1.061  94.602
 Approx polarizability: 143.306  -0.762 137.114  -0.604  -4.244 140.486

                      1                      2                      3
                      A                      A                      A
 Frequencies --     57.1691                65.7653               123.0612
 Red. masses --      2.5989                 3.1727                 2.2522
 Frc consts  --      0.0050                 0.0081                 0.0201
 IR Inten    --      0.0656                 0.2242                 0.4393

                      4                      5                      6
                      A                      A                      A
 Frequencies --    157.6254               188.4437               225.7460
 Red. masses --      2.7705                 2.1545                 1.1800
 Frc consts  --      0.0406                 0.0451                 0.0354
 IR Inten    --      2.3038                 0.3718                 5.4190

                      7                      8                      9
                      A                      A                      A
 Frequencies --    238.6786               260.3267               269.1152
 Red. masses --      1.3647                 1.4460                 2.9223
 Frc consts  --      0.0458                 0.0577                 0.1247
 IR Inten    --      8.3756                 5.1908                 0.6974

                     10                     11                     12
                      A                      A                      A
 Frequencies --    283.8624               290.2749               308.9210
 Red. masses --      1.3520                 1.3717                 1.7957
 Frc consts  --      0.0642                 0.0681                 0.1010
 IR Inten    --     48.5622                17.7891                 5.1264

                     13                     14                     15
                      A                      A                      A
 Frequencies --    322.9526               347.6744               363.2866
 Red. masses --      1.6079                 2.0639                 2.1001
 Frc consts  --      0.0988                 0.1470                 0.1633
 IR Inten    --     26.8258                 5.8633                10.9890

                     16                     17                     18
                      A                      A                      A
 Frequencies --    386.7895               395.6922               409.4296
 Red. masses --      1.8271                 1.6811                 2.0335
 Frc consts  --      0.1610                 0.1551                 0.2008
 IR Inten    --     29.5817                46.2318                 6.3838

                     19                     20                     21
                      A                      A                      A
 Frequencies --    427.4009               444.0983               490.2465
 Red. masses --      2.3886                 2.8180                 2.8092
 Frc consts  --      0.2571                 0.3274                 0.3978
 IR Inten    --      8.5502                 8.3654                 7.7690

                     22                     23                     24
                      A                      A                      A
 Frequencies --    545.7510               572.9228               668.2471
 Red. masses --      2.3246                 3.2333                 2.4079
 Frc consts  --      0.4079                 0.6253                 0.6335
 IR Inten    --      2.7432                 3.6742                 1.4933

                     25                     26                     27
                      A                      A                      A
 Frequencies --    789.5734               813.7698               848.9044
 Red. masses --      1.7321                 1.7728                 2.3058
 Frc consts  --      0.6362                 0.6917                 0.9790
 IR Inten    --      1.1340                 8.5761                 3.7961

                     28                     29                     30
                      A                      A                      A
 Frequencies --    896.5444               904.6131               942.9566
 Red. masses --      1.6492                 1.9476                 1.4620
 Frc consts  --      0.7810                 0.9390                 0.7659
 IR Inten    --     41.5275                 3.9016                19.9025

                     31                     32                     33
                      A                      A                      A
 Frequencies --    952.7149               966.3601               977.5671
 Red. masses --      1.5130                 1.6922                 1.6692
 Frc consts  --      0.8091                 0.9311                 0.9398
 IR Inten    --     38.2050               118.2322                84.0859

                     34                     35                     36
                      A                      A                      A
 Frequencies --   1016.2902              1029.0174              1038.0569
 Red. masses --      1.8748                 1.5350                 1.9196
 Frc consts  --      1.1409                 0.9576                 1.2187
 IR Inten    --     35.3927                52.6657                19.3853

                     37                     38                     39
                      A                      A                      A
 Frequencies --   1060.9767              1099.9767              1103.5319
 Red. masses --      1.6072                 1.8120                 1.7701
 Frc consts  --      1.0659                 1.2918                 1.2700
 IR Inten    --     16.7536                 2.1614                10.5710

                     40                     41                     42
                      A                      A                      A
 Frequencies --   1142.1060              1146.7778              1182.5890
 Red. masses --      2.5067                 1.7146                 2.3121
 Frc consts  --      1.9265                 1.3285                 1.9051
 IR Inten    --     15.8662                32.2640                25.8541

                     43                     44                     45
                      A                      A                      A
 Frequencies --   1232.6745              1237.6633              1267.1453
 Red. masses --      2.4271                 1.6179                 2.1045
 Frc consts  --      2.1729                 1.4602                 1.9910
 IR Inten    --     11.5572                17.3801                11.3411

                     46                     47                     48
                      A                      A                      A
 Frequencies --   1295.1989              1331.5580              1348.6456
 Red. masses --      1.2687                 1.2670                 1.6857
 Frc consts  --      1.2539                 1.3236                 1.8064
 IR Inten    --      2.1012                 1.2978                18.4687

                     49                     50                     51
                      A                      A                      A
 Frequencies --   1372.9706              1394.2211              1407.3874
 Red. masses --      1.6296                 1.3041                 1.3569
 Frc consts  --      1.8099                 1.4936                 1.5835
 IR Inten    --     19.9123                 8.2419                 2.9253

                     52                     53                     54
                      A                      A                      A
 Frequencies --   1423.3747              1425.2078              1436.0712
 Red. masses --      1.2845                 1.3343                 1.2892
 Frc consts  --      1.5332                 1.5968                 1.5665
 IR Inten    --      8.2222                 8.7883                17.5207

                     55                     56                     57
                      A                      A                      A
 Frequencies --   1444.1435              1448.2463              1501.2792
 Red. masses --      1.2666                 1.2974                 1.0817
 Frc consts  --      1.5564                 1.6033                 1.4364
 IR Inten    --     16.4050                 0.6344                 0.6683

                     58                     59                     60
                      A                      A                      A
 Frequencies --   1513.5772              1520.2435              1523.0074
 Red. masses --      1.0656                 1.0515                 1.0505
 Frc consts  --      1.4383                 1.4318                 1.4357
 IR Inten    --      1.5025                 1.0058                 0.8730

                     61                     62                     63
                      A                      A                      A
 Frequencies --   1525.8139              1532.4021              1540.3050
 Red. masses --      1.0478                 1.0530                 1.0691
 Frc consts  --      1.4372                 1.4568                 1.4944
 IR Inten    --      3.3454                 5.4816                 2.1622

                     64                     65                     66
                      A                      A                      A
 Frequencies --   1543.6197              1555.3787              1694.3563
 Red. masses --      1.0610                 1.0659                 1.0878
 Frc consts  --      1.4895                 1.5193                 1.8400
 IR Inten    --     12.6337                 2.7613                47.8235

                     67                     68                     69
                      A                      A                      A
 Frequencies --   1728.7083              3032.9466              3035.0490
 Red. masses --      1.0786                 1.0634                 1.0675
 Frc consts  --      1.8992                 5.7634                 5.7936
 IR Inten    --     12.7175                49.3913                19.4797

                     70                     71                     72
                      A                      A                      A
 Frequencies --   3049.0837              3051.4270              3054.9029
 Red. masses --      1.0401                 1.0416                 1.0612
 Frc consts  --      5.6971                 5.7140                 5.8350
 IR Inten    --     17.4812                36.7920                18.1303

                     73                     74                     75
                      A                      A                      A
 Frequencies --   3059.1475              3065.9150              3092.2640
 Red. masses --      1.0464                 1.0890                 1.0941
 Frc consts  --      5.7699                 6.0310                 6.1640
 IR Inten    --     37.1958                39.0795                35.9086

                     76                     77                     78
                      A                      A                      A
 Frequencies --   3098.8880              3109.5990              3112.7475
 Red. masses --      1.1017                 1.1017                 1.0979
 Frc consts  --      6.2334                 6.2767                 6.2677
 IR Inten    --     22.5662                59.5509                36.2868

                     79                     80                     81
                      A                      A                      A
 Frequencies --   3117.9130              3145.1252              3147.7332
 Red. masses --      1.0973                 1.1010                 1.1022
 Frc consts  --      6.2851                 6.4165                 6.4343
 IR Inten    --     33.6738                10.8041                25.3282

                     82                     83                     84
                      A                      A                      A
 Frequencies --   3156.0995              3441.9791              3455.8121
 Red. masses --      1.0976                 1.0515                 1.0501
 Frc consts  --      6.4419                 7.3398                 7.3889
 IR Inten    --     27.0977                43.1177                 3.4962

                     85                     86                     87
                      A                      A                      A
 Frequencies --   3533.2114              3537.0707              3734.9312
 Red. masses --      1.0898                 1.0913                 1.0659
 Frc consts  --      8.0155                 8.0439                 8.7605
 IR Inten    --     14.6345                 1.5057                 9.2090

 - Thermochemistry -
 -------------------
 Temperature   298.150 Kelvin.  Pressure   1.00000 Atm.
 Atom     1 has atomic number  6 and mass  12.00000

 Molecular mass:   160.15756 amu.
 Principal axes and moments of inertia in atomic units:
                           1         2         3
     Eigenvalues --  1245.020732205.896022549.19040
           X            0.99995   0.00871  -0.00563
           Y           -0.00859   0.99975   0.02064
           Z            0.00580  -0.02059   0.99977
 This molecule is an asymmetric top.
 Rotational symmetry number  1.
 Warning -- assumption of classical behavior for rotation
           may cause significant error
 Rotational temperatures (Kelvin)      0.06957     0.03926     0.03398
 Rotational constants (GHZ):           1.44957     0.81814     0.70797
 Zero-point vibrational energy     753831.9 (Joules/Mol)
                                  180.17015 (Kcal/Mol)
 Warning -- explicit consideration of  23 degrees of freedom as
           vibrations may cause significant error
 Vibrational temperatures:     82.25    94.62   177.06   226.79   271.13
          (Kelvin)            324.80   343.41   374.55   387.20   408.41
                              417.64   444.47   464.66   500.23   522.69
                              556.50   569.31   589.08   614.93   638.96
                              705.36   785.21   824.31   961.46  1136.02
                             1170.83  1221.38  1289.93  1301.54  1356.70
                             1370.74  1390.38  1406.50  1462.21  1480.53
                             1493.53  1526.51  1582.62  1587.74  1643.24
                             1649.96  1701.48  1773.54  1780.72  1823.14
                             1863.50  1915.82  1940.40  1975.40  2005.97
                             2024.92  2047.92  2050.56  2066.19  2077.80
                             2083.70  2160.01  2177.70  2187.29  2191.27
                             2195.31  2204.78  2216.16  2220.92  2237.84
                             2437.80  2487.23  4363.73  4366.76  4386.95
                             4390.32  4395.32  4401.43  4411.17  4449.08
                             4458.61  4474.02  4478.55  4485.98  4525.13
                             4528.89  4540.92  4952.24  4972.14  5083.50
                             5089.06  5373.73

 Zero-point correction=                           0.287119 (Hartree/Particle)
 Thermal correction to Energy=                    0.300941
 Thermal correction to Enthalpy=                  0.301885
 Thermal correction to Gibbs Free Energy=         0.248641
 Sum of electronic and zero-point Energies=           -501.367327
 Sum of electronic and thermal Energies=              -501.353506
 Sum of electronic and thermal Enthalpies=            -501.352561
 Sum of electronic and thermal Free Energies=         -501.405806

                     E (Thermal)             CV                S
                      KCal/Mol        Cal/Mol-Kelvin    Cal/Mol-Kelvin
 Total                  188.843             53.671            112.062
 Electronic               0.000              0.000              0.000
 Translational            0.889              2.981             41.122
 Rotational               0.889              2.981             30.327
 Vibrational            187.066             47.709             40.613
 Vibration     1          0.596              1.975              4.553
 Vibration     2          0.597              1.971              4.276
 Vibration     3          0.610              1.930              3.052
 Vibration     4          0.621              1.894              2.578
 Vibration     5          0.633              1.856              2.243
 Vibration     6          0.650              1.802              1.913
 Vibration     7          0.657              1.781              1.813
 Vibration     8          0.668              1.745              1.660
 Vibration     9          0.674              1.730              1.602
 Vibration    10          0.682              1.704              1.510
 Vibration    11          0.686              1.692              1.472
 Vibration    12          0.698              1.657              1.368
 Vibration    13          0.708              1.629              1.295
 Vibration    14          0.725              1.580              1.177
 Vibration    15          0.737              1.548              1.108
 Vibration    16          0.755              1.498              1.012
 Vibration    17          0.762              1.479              0.979
 Vibration    18          0.774              1.450              0.929
 Vibration    19          0.789              1.411              0.867
 Vibration    20          0.804              1.374              0.814
 Vibration    21          0.846              1.272              0.683
 Vibration    22          0.901              1.149              0.553
 Vibration    23          0.929              1.090              0.499

                           ! Non-Optimized Parameters !
 Normal termination of Gaussian 16 at Tue Dec  8 20:25:53 2020.

 ----------------------------------------------------------------------
 # B3LYP/6-311++G(d,p) empiricaldispersion=gd3bj scf=xqc pop=npa geom=c
 heck
 ----------------------------------------------------------------------

 --------------------------------------
 CID_22005972_JID_1512_Energie_neutraal
 --------------------------------------
 Structure from the checkpoint file:  "JID_1512.chk"
 Charge =  0 Multiplicity = 1

 SCF Done:  E(RB3LYP) =  -501.821909099     A.U. after   14 cycles
 Normal termination of Gaussian 16 at Tue Dec  8 20:30:01 2020.

 ----------------------------------------------------------------------
 # B3LYP/6-311++G(d,p) empiricaldispersion=gd3bj scf=xqc pop=npa geom=c
 heck
 ----------------------------------------------------------------------

 ------------------------------------
 CID_22005972_JID_1512_Energie_kation
 ------------------------------------
 Structure from the checkpoint file:  "JID_1512.chk"
 Charge =  1 Multiplicity = 2

 SCF Done:  E(UB3LYP) =  -501.523483920     A.U. after   19 cycles
 Normal termination of Gaussian 16 at Tue Dec  8 20:36:02 2020.
 Gaussian 16:  ES64L-G16RevA.03 25-Dec-2016

 ----------------------------------------------------------------------
 # B3LYP/6-311++G(d,p) empiricaldispersion=gd3bj scf=xqc pop=npa geom=c
 heck
 ----------------------------------------------------------------------

 -----------------------------------
 CID_22005972_JID_1512_Energie_anion
 -----------------------------------
 Structure from the checkpoint file:  "JID_1512.chk"
 Charge = -1 Multiplicity = 2

                         Standard orientation:
 ---------------------------------------------------------------------
 Center     Atomic      Atomic             Coordinates (Angstroms)
 Number     Number       Type             X           Y           Z
 ---------------------------------------------------------------------
      1          6           0        3.240418   -0.786383    0.260996
      2          6           0        2.468677    0.067198   -0.749556
      3          6           0        0.985448   -0.301995   -0.933674
      4          6           0        0.034186   -0.061146    0.254646
      5          6           0        0.241548    1.350917    0.864398
      6          7           0        0.054264    2.515515    0.006319
      7          6           0       -1.469701   -0.343088   -0.153686
      8          6           0       -1.631494   -1.796451   -0.641371
      9          6           0       -2.409395   -0.129996    1.044356
     10          7           0       -1.890301    0.630501   -1.191649
     11          8           0        0.401480   -1.026491    1.259055
     12          1           0        2.856716   -0.656394    1.274631
     13          1           0        4.305222   -0.525515    0.251388
     14          1           0        3.150211   -1.851614    0.017999
     15          1           0        2.568684    1.127735   -0.485628
     16          1           0        2.946505   -0.034997   -1.733346
     17          1           0        0.607432    0.264628   -1.792945
     18          1           0        0.930509   -1.361502   -1.205753
     19          1           0       -0.429532    1.453033    1.728352
     20          1           0        1.255726    1.376131    1.277003
     21          1           0        0.811579    2.559248   -0.673558
     22          1           0       -0.801396    2.365001   -0.530776
     23          1           0       -1.238753   -2.504236    0.093412
     24          1           0       -2.692631   -2.016701   -0.808776
     25          1           0       -1.107667   -1.964295   -1.588152
     26          1           0       -2.442885    0.917567    1.354353
     27          1           0       -3.428977   -0.429255    0.773820
     28          1           0       -2.110923   -0.747629    1.896627
     29          1           0       -1.476101    0.373629   -2.086792
     30          1           0       -2.898258    0.547201   -1.325199
     31          1           0        0.076837   -0.696545    2.111562
 ---------------------------------------------------------------------

 SCF Done:  E(UB3LYP) =  -501.809115797     A.U. after   26 cycles

 The electronic state is 2-A.
 Alpha  occ. eigenvalues --  -19.01689 -14.18811 -14.17661 -10.12076 -10.10352
 Alpha  occ. eigenvalues --  -10.08448 -10.06559 -10.05926 -10.05315 -10.05288
 Alpha  occ. eigenvalues --  -10.04450  -0.92196  -0.79283  -0.76804  -0.68845
 Alpha  occ. eigenvalues --   -0.65276  -0.61572  -0.58649  -0.56292  -0.52173
 Alpha  occ. eigenvalues --   -0.47609  -0.44487  -0.40450  -0.39398  -0.38023
 Alpha  occ. eigenvalues --   -0.35734  -0.34145  -0.33712  -0.32903  -0.31979
 Alpha  occ. eigenvalues --   -0.30720  -0.28831  -0.28139  -0.27306  -0.26786
 Alpha  occ. eigenvalues --   -0.26042  -0.25351  -0.24645  -0.23941  -0.23477
 Alpha  occ. eigenvalues --   -0.22414  -0.21594  -0.17409  -0.15584  -0.11960
 Alpha  occ. eigenvalues --    0.04517
 Alpha virt. eigenvalues --    0.06892   0.07226   0.08619   0.08882   0.09516
 Alpha virt. eigenvalues --    0.10122   0.10469   0.11082   0.11626   0.12268
 Alpha virt. eigenvalues --    0.12711   0.13473   0.13837   0.14416   0.14584

  Beta  occ. eigenvalues --  -19.01672 -14.18762 -14.17648 -10.12074 -10.10348
  Beta  occ. eigenvalues --  -10.08435 -10.06543 -10.05904 -10.05302 -10.05243
  Beta  occ. eigenvalues --  -10.04419  -0.92163  -0.79224  -0.76771  -0.68807
  Beta  occ. eigenvalues --   -0.65211  -0.61529  -0.58591  -0.56239  -0.52123
  Beta  occ. eigenvalues --   -0.47538  -0.44418  -0.40404  -0.39375  -0.37983
  Beta  occ. eigenvalues --   -0.35690  -0.34110  -0.33673  -0.32866  -0.31942
  Beta  occ. eigenvalues --   -0.30681  -0.28801  -0.28102  -0.27261  -0.26754
  Beta  occ. eigenvalues --   -0.25997  -0.25324  -0.24613  -0.23908  -0.23442
  Beta  occ. eigenvalues --   -0.22382  -0.21566  -0.17382  -0.15551  -0.11934
  Beta virt. eigenvalues --    0.06810   0.07731   0.08152   0.08887   0.09700
  Beta virt. eigenvalues --    0.10153   0.10472   0.10829   0.11321   0.12168
  Beta virt. eigenvalues --    0.12729   0.13137   0.13654   0.14119   0.14648

 Mulliken charges and spin densities:
               1          2
     1  C    0.018271  -0.590388
     2  C    0.583400  -0.626094
     3  C   -0.484542   0.037085
     4  C    0.595041  -0.510225
     5  C    0.714653  -1.274576
     6  N   -0.386173   0.040695
     7  C   -1.903259   1.676227
     8  C    0.576513  -1.096039
     9  C    1.394654  -1.869293
    10  N   -0.299322  -0.046924
    11  O   -0.128016  -0.008615
    12  H    0.040511   0.124778
    13  H   -0.084318   0.208686
    14  H    0.021677   0.102238
    15  H    0.086672   0.020417
    16  H   -0.348682   0.523022
    17  H   -0.302410   0.469093
    18  H    0.233784  -0.079491
    19  H    0.030540   0.107195
    20  H    0.094417   0.083920
    21  H    0.082793   0.130289
    22  H    0.234548   0.083885
    23  H    0.068791   0.119735
    24  H   -0.515429   0.672059
    25  H   -0.322742   0.472516
    26  H   -0.018976   0.190348
    27  H   -0.401317   0.560119
    28  H   -0.325558   0.456039
    29  H   -0.131256   0.374172
    30  H   -0.131747   0.387067
    31  H    0.007484   0.262059
 Sum of Mulliken charges =  -1.00000   1.00000

 Dipole moment (field-independent basis, Debye):
    X=              3.6093    Y=              0.4310    Z=              2.3004  Tot=              4.3016
 Quadrupole moment (field-independent basis, Debye-Ang):
   XX=           -130.6514   YY=           -111.6149   ZZ=           -112.3681
   XY=             -1.5126   XZ=             -0.4582   YZ=             -0.6127

 Summary of Natural Population Analysis:

                                       Natural Population
                Natural  -----------------------------------------------
    Atom  No    Charge         Core      Valence    Rydberg      Total
 -----------------------------------------------------------------------
      C    1   -0.28418      0.99966     2.28000    0.00452     3.28418
      C    2   -0.18838      0.99964     2.18022    0.00852     3.18838
      C    3   -0.20443      0.99957     2.19148    0.01338     3.20443
      C    4    0.13431      0.99946     1.84798    0.01825     2.86569
      C    5   -0.10374      0.99957     2.09140    0.01278     3.10374
      N    6   -0.42866      0.99977     2.91919    0.00970     3.92866
      C    7    0.04424      0.99954     1.93911    0.01711     2.95576
      C    8   -0.29559      0.99961     2.28838    0.00760     3.29559
      C    9   -0.29316      0.99961     2.28524    0.00830     3.29316
      N   10   -0.43609      0.99975     2.92393    0.01241     3.93609
      O   11   -0.38062      0.99989     3.37308    0.00765     4.38062
      H   12    0.10309      0.00000     0.39567    0.00123     0.39691
      H   13    0.09154      0.00000     0.40754    0.00092     0.40846
      H   14    0.09615      0.00000     0.40280    0.00104     0.40385
      H   15    0.08945      0.00000     0.40929    0.00126     0.41055
      H   16    0.09643      0.00000     0.40231    0.00126     0.40357
      H   17    0.10340      0.00000     0.39457    0.00204     0.39660
      H   18    0.10450      0.00000     0.39400    0.00150     0.39550
      H   19    0.09035      0.00000     0.40824    0.00142     0.40965
      H   20    0.09384      0.00000     0.40492    0.00124     0.40616
      H   21    0.16799      0.00000     0.32941    0.00261     0.33201
      H   22    0.19272      0.00000     0.30417    0.00311     0.30728
      H   23    0.10854      0.00000     0.39020    0.00126     0.39146
      H   24    0.10015      0.00000     0.39836    0.00149     0.39985
      H   25    0.09971      0.00000     0.39889    0.00140     0.40029
      H   26    0.10278      0.00000     0.39598    0.00124     0.39722
      H   27    0.10389      0.00000     0.39468    0.00143     0.39611
      H   28    0.10202      0.00000     0.39642    0.00157     0.39798
      H   29    0.18018      0.00000     0.31594    0.00388     0.31982
      H   30    0.18041      0.00000     0.31650    0.00309     0.31959
      H   31    0.22914      0.00000     0.26781    0.00305     0.27086
 =======================================================================
   * Total *   -0.00000     10.99606    33.84769    0.15625    45.00000

 Normal termination of Gaussian 16 at Tue Dec  8 20:44:43 2020.
