 Gaussian 16, Revision A.03,

 -----------------------------------------------------------
 # opt freq B3LYP/6-31G(d) empiricaldispersion=gd3bj scf=xqc
 -----------------------------------------------------------

 ------------------------------
 CID_62416764_JID_1418_neutraal
 ------------------------------
 Symbolic Z-matrix:
 Charge =  0 Multiplicity = 1

 SCF Done:  E(RB3LYP) =  -464.486480301     A.U. after   12 cycles
 SCF Done:  E(RB3LYP) =  -464.504423852     A.U. after   10 cycles
 SCF Done:  E(RB3LYP) =  -464.507162966     A.U. after   10 cycles
 SCF Done:  E(RB3LYP) =  -464.507566367     A.U. after   10 cycles
 SCF Done:  E(RB3LYP) =  -464.507659752     A.U. after   10 cycles
 SCF Done:  E(RB3LYP) =  -464.507676534     A.U. after    9 cycles
 SCF Done:  E(RB3LYP) =  -464.507686089     A.U. after    9 cycles
 SCF Done:  E(RB3LYP) =  -464.507687651     A.U. after    8 cycles
 SCF Done:  E(RB3LYP) =  -464.507688387     A.U. after    7 cycles
 SCF Done:  E(RB3LYP) =  -464.507688497     A.U. after    6 cycles
 Optimization completed.
    -- Stationary point found.

 1\1\GINC-NODE125\FOpt\RB3LYP\6-31G(d)\C9H20N2\VSC10255\08-Dec-2020\0\\
 # opt freq B3LYP/6-31G(d) empiricaldispersion=gd3bj scf=xqc\\CID_62416
 764_JID_1418_neutraal\\0,1\C,0.7090704281,-0.1221598001,-0.1109222701\
 C,0.1687931688,1.3002748209,0.0703146665\C,0.8306998015,2.3247243284,-
 0.8536731558\N,0.5245560425,2.0568107902,-2.2552748219\C,1.0542506005,
 3.0309709934,-3.2073526584\C,2.5739655622,3.2566540019,-3.1723070696\N
 ,3.2869439333,1.99105763,-3.3326594915\C,4.7263425363,2.1322537856,-3.
 3488646703\C,5.5268252508,2.6000991331,-2.0879248624\C,6.6134705785,1.

 Normal termination of Gaussian 16 at Tue Dec  8 19:57:06 2020.

 --------------------------------------------------------------------
 #N Geom=AllCheck Guess=TCheck SCRF=Check GenChk RB3LYP/6-31G(d) Freq
 --------------------------------------------------------------------

 Structure from the checkpoint file:  "JID_1418.chk"
 ------------------------------
 CID_62416764_JID_1418_neutraal
 ------------------------------
 Charge =  0 Multiplicity = 1

 SCF Done:  E(RB3LYP) =  -464.507688497     A.U. after    1 cycles

  Exact polarizability: 119.846  -0.511 108.201  -1.545   1.274  95.691
 Approx polarizability: 146.021   1.886 145.712  -0.638   0.975 141.206

                      1                      2                      3
                      A                      A                      A
 Frequencies --     24.9654                36.3694                48.7286
 Red. masses --      3.5450                 2.6692                 2.4294
 Frc consts  --      0.0013                 0.0021                 0.0034
 IR Inten    --      0.1586                 0.3143                 0.1326

                      4                      5                      6
                      A                      A                      A
 Frequencies --    100.5752               118.0204               144.8450
 Red. masses --      2.4194                 3.2375                 2.0140
 Frc consts  --      0.0144                 0.0266                 0.0249
 IR Inten    --      0.1417                 1.1778                 0.1750

                      7                      8                      9
                      A                      A                      A
 Frequencies --    189.5815               205.6277               241.5177
 Red. masses --      2.4340                 1.6980                 3.1637
 Frc consts  --      0.0515                 0.0423                 0.1087
 IR Inten    --      2.7635                 0.9812                 6.2800

                     10                     11                     12
                      A                      A                      A
 Frequencies --    251.6689               309.8598               346.4035
 Red. masses --      1.5243                 1.6379                 2.2106
 Frc consts  --      0.0569                 0.0927                 0.1563
 IR Inten    --      0.4643                 3.3662                 1.3438

                     13                     14                     15
                      A                      A                      A
 Frequencies --    407.6669               436.8494               477.1418
 Red. masses --      3.0622                 2.1770                 2.0806
 Frc consts  --      0.2998                 0.2448                 0.2791
 IR Inten    --      0.8704                 2.5208                 3.5047

                     16                     17                     18
                      A                      A                      A
 Frequencies --    558.0003               654.2159               732.5750
 Red. masses --      2.4246                 2.0714                 1.4622
 Frc consts  --      0.4448                 0.5223                 0.4623
 IR Inten    --      5.7843                 2.5821               122.6272

                     19                     20                     21
                      A                      A                      A
 Frequencies --    757.4200               786.7881               796.6195
 Red. masses --      1.5525                 1.2141                 1.2086
 Frc consts  --      0.5247                 0.4428                 0.4519
 IR Inten    --      1.8653                35.1014                 1.6739

                     22                     23                     24
                      A                      A                      A
 Frequencies --    832.6285               852.5480               896.6632
 Red. masses --      1.2290                 1.8765                 2.3546
 Frc consts  --      0.5020                 0.8036                 1.1154
 IR Inten    --     21.5344                 3.6919                 0.5710

                     25                     26                     27
                      A                      A                      A
 Frequencies --    901.6707               915.0813               936.5453
 Red. masses --      2.0454                 1.5250                 1.8564
 Frc consts  --      0.9798                 0.7524                 0.9594
 IR Inten    --      2.3109                 4.3146                21.2600

                     28                     29                     30
                      A                      A                      A
 Frequencies --    937.3498               957.2002               990.1237
 Red. masses --      2.0566                 1.3778                 2.3090
 Frc consts  --      1.0646                 0.7438                 1.3337
 IR Inten    --     10.5820                 3.5354                 0.8464

                     31                     32                     33
                      A                      A                      A
 Frequencies --   1010.5982              1052.7217              1076.5861
 Red. masses --      1.6891                 1.9427                 2.5457
 Frc consts  --      1.0164                 1.2685                 1.7384
 IR Inten    --      7.3945                 3.7521                 2.1774

                     34                     35                     36
                      A                      A                      A
 Frequencies --   1088.6799              1098.0950              1156.7601
 Red. masses --      1.8178                 2.1934                 2.7481
 Frc consts  --      1.2694                 1.5583                 2.1666
 IR Inten    --     11.1457                 2.6941                42.9670

                     37                     38                     39
                      A                      A                      A
 Frequencies --   1156.9805              1170.8265              1180.5356
 Red. masses --      1.8645                 2.6154                 1.9677
 Frc consts  --      1.4705                 2.1124                 1.6158
 IR Inten    --      1.8748                41.2903                 1.0793

                     40                     41                     42
                      A                      A                      A
 Frequencies --   1206.2328              1212.0490              1239.9726
 Red. masses --      1.4012                 2.2666                 1.3181
 Frc consts  --      1.2012                 1.9618                 1.1940
 IR Inten    --      0.6952                41.0836                 3.0700

                     43                     44                     45
                      A                      A                      A
 Frequencies --   1261.2970              1262.1824              1270.8421
 Red. masses --      1.2274                 1.2550                 1.2818
 Frc consts  --      1.1505                 1.1780                 1.2197
 IR Inten    --      1.5135                 2.3056                 1.3317

                     46                     47                     48
                      A                      A                      A
 Frequencies --   1281.4077              1305.0294              1310.9161
 Red. masses --      1.4347                 1.2647                 1.4175
 Frc consts  --      1.3880                 1.2691                 1.4352
 IR Inten    --      3.1196                 2.6670                 0.8316

                     49                     50                     51
                      A                      A                      A
 Frequencies --   1314.9543              1351.5096              1377.8772
 Red. masses --      1.4395                 1.2216                 1.2761
 Frc consts  --      1.4665                 1.3146                 1.4275
 IR Inten    --      2.4895                 5.0867                28.7049

                     52                     53                     54
                      A                      A                      A
 Frequencies --   1390.4713              1407.9504              1420.5994
 Red. masses --      1.3449                 1.3263                 1.3714
 Frc consts  --      1.5320                 1.5491                 1.6306
 IR Inten    --     10.5869                 8.4609                 3.9513

                     55                     56                     57
                      A                      A                      A
 Frequencies --   1429.1896              1444.3461              1500.4093
 Red. masses --      1.3479                 1.2694                 1.0950
 Frc consts  --      1.6222                 1.5602                 1.4524
 IR Inten    --      0.0962                 7.3671                 2.4372

                     58                     59                     60
                      A                      A                      A
 Frequencies --   1503.5961              1508.1234              1511.1768
 Red. masses --      1.0972                 1.1415                 1.1262
 Frc consts  --      1.4615                 1.5297                 1.5152
 IR Inten    --      1.8107                 9.0409                23.8790

                     61                     62                     63
                      A                      A                      A
 Frequencies --   1513.5718              1520.8217              1530.7695
 Red. masses --      1.1364                 1.1547                 1.0695
 Frc consts  --      1.5338                 1.5735                 1.4766
 IR Inten    --     14.4288                25.5985                12.2993

                     64                     65                     66
                      A                      A                      A
 Frequencies --   1539.4260              1540.9482              1543.1469
 Red. masses --      1.1117                 1.1207                 1.0843
 Frc consts  --      1.5523                 1.5679                 1.5213
 IR Inten    --     15.8701                 4.9960                 5.1728

                     67                     68                     69
                      A                      A                      A
 Frequencies --   1547.7821              2913.7920              2956.4528
 Red. masses --      1.0693                 1.0734                 1.0727
 Frc consts  --      1.5092                 5.3693                 5.5241
 IR Inten    --      2.0950                76.4659                56.7700

                     70                     71                     72
                      A                      A                      A
 Frequencies --   3039.2540              3040.3696              3043.2605
 Red. masses --      1.0401                 1.0642                 1.0653
 Frc consts  --      5.6607                 5.7958                 5.8130
 IR Inten    --     14.0073                41.4126                15.9988

                     73                     74                     75
                      A                      A                      A
 Frequencies --   3047.2619              3050.4362              3058.0969
 Red. masses --      1.0786                 1.0650                 1.0813
 Frc consts  --      5.9013                 5.8386                 5.9579
 IR Inten    --      6.5061                41.9357                58.5064

                     76                     77                     78
                      A                      A                      A
 Frequencies --   3058.9926              3062.0776              3074.7846
 Red. masses --      1.0698                 1.0832                 1.0611
 Frc consts  --      5.8981                 5.9838                 5.9108
 IR Inten    --     13.8474                82.4722                37.9407

                     79                     80                     81
                      A                      A                      A
 Frequencies --   3082.5255              3096.9776              3107.5636
 Red. masses --      1.1003                 1.1022                 1.1020
 Frc consts  --      6.1598                 6.2284                 6.2703
 IR Inten    --      4.2797                39.2961                68.3286

                     82                     83                     84
                      A                      A                      A
 Frequencies --   3110.4345              3115.2934              3116.2568
 Red. masses --      1.1033                 1.1010                 1.1035
 Frc consts  --      6.2891                 6.2955                 6.3139
 IR Inten    --     24.0364                48.2357                30.2774

                     85                     86                     87
                      A                      A                      A
 Frequencies --   3130.5069              3465.5566              3511.9488
 Red. masses --      1.1076                 1.0725                 1.0733
 Frc consts  --      6.3955                 7.5888                 7.7992
 IR Inten    --     69.7757                 2.3122                 0.5685

 - Thermochemistry -
 -------------------
 Temperature   298.150 Kelvin.  Pressure   1.00000 Atm.
 Atom     1 has atomic number  6 and mass  12.00000

 Molecular mass:   156.16265 amu.
 Principal axes and moments of inertia in atomic units:
                           1         2         3
     Eigenvalues --  1162.560603552.858374167.42838
           X            0.99996   0.00910   0.00103
           Y           -0.00912   0.99976   0.01980
           Z           -0.00085  -0.01981   0.99980
 This molecule is an asymmetric top.
 Rotational symmetry number  1.
 Warning -- assumption of classical behavior for rotation
           may cause significant error
 Rotational temperatures (Kelvin)      0.07450     0.02438     0.02078
 Rotational constants (GHZ):           1.55238     0.50797     0.43306
 Zero-point vibrational energy     760618.5 (Joules/Mol)
                                  181.79217 (Kcal/Mol)
 Warning -- explicit consideration of  16 degrees of freedom as
           vibrations may cause significant error
 Vibrational temperatures:     35.92    52.33    70.11   144.71   169.81
          (Kelvin)            208.40   272.77   295.85   347.49   362.10
                              445.82   498.40   586.54   628.53   686.50
                              802.84   941.27  1054.01  1089.76  1132.01
                             1146.16  1197.97  1226.63  1290.10  1297.30
                             1316.60  1347.48  1348.64  1377.20  1424.57
                             1454.03  1514.63  1548.97  1566.37  1579.91
                             1664.32  1664.64  1684.56  1698.53  1735.50
                             1743.87  1784.04  1814.73  1816.00  1828.46
                             1843.66  1877.65  1886.12  1891.93  1944.52
                             1982.46  2000.58  2025.73  2043.93  2056.29
                             2078.09  2158.75  2163.34  2169.85  2174.25
                             2177.69  2188.12  2202.44  2214.89  2217.08
                             2220.24  2226.91  4192.30  4253.68  4372.81
                             4374.41  4378.57  4384.33  4388.90  4399.92
                             4401.21  4405.65  4423.93  4435.07  4455.86
                             4471.09  4475.22  4482.21  4483.60  4504.10
                             4986.16  5052.91

 Zero-point correction=                           0.289704 (Hartree/Particle)
 Thermal correction to Energy=                    0.302508
 Thermal correction to Enthalpy=                  0.303452
 Thermal correction to Gibbs Free Energy=         0.248758
 Sum of electronic and zero-point Energies=           -464.217984
 Sum of electronic and thermal Energies=              -464.205181
 Sum of electronic and thermal Enthalpies=            -464.204237
 Sum of electronic and thermal Free Energies=         -464.258930

                     E (Thermal)             CV                S
                      KCal/Mol        Cal/Mol-Kelvin    Cal/Mol-Kelvin
 Total                  189.826             47.166            115.112
 Electronic               0.000              0.000              0.000
 Translational            0.889              2.981             41.047
 Rotational               0.889              2.981             31.221
 Vibrational            188.049             41.205             42.844
 Vibration     1          0.593              1.985              6.194
 Vibration     2          0.594              1.982              5.448
 Vibration     3          0.595              1.978              4.868
 Vibration     4          0.604              1.949              3.443
 Vibration     5          0.608              1.934              3.133
 Vibration     6          0.616              1.908              2.739
 Vibration     7          0.633              1.854              2.232
 Vibration     8          0.640              1.832              2.082
 Vibration     9          0.658              1.777              1.792
 Vibration    10          0.664              1.760              1.719
 Vibration    11          0.699              1.655              1.363
 Vibration    12          0.724              1.583              1.182
 Vibration    13          0.772              1.454              0.935
 Vibration    14          0.797              1.390              0.837
 Vibration    15          0.834              1.301              0.718
 Vibration    16          0.914              1.122              0.528

 Optimization completed.
    -- Stationary point found.

 1\1\GINC-NODE125\Freq\RB3LYP\6-31G(d)\C9H20N2\VSC10255\08-Dec-2020\0\\
 #N Geom=AllCheck Guess=TCheck SCRF=Check GenChk RB3LYP/6-31G(d) Freq\\
 CID_62416764_JID_1418_neutraal\\0,1\C,0.7090704281,-0.1221598001,-0.11
 09222701\C,0.1687931688,1.3002748209,0.0703146665\C,0.8306998015,2.324
 7243284,-0.8536731558\N,0.5245560425,2.0568107902,-2.2552748219\C,1.05
 42506005,3.0309709934,-3.2073526584\C,2.5739655622,3.2566540019,-3.172
 3070696\N,3.2869439333,1.99105763,-3.3326594915\C,4.7263425363,2.13225
 37856,-3.3488646703\C,5.5268252508,2.6000991331,-2.0879248624\C,6.6134

 Normal termination of Gaussian 16 at Tue Dec  8 20:04:26 2020.

 ----------------------------------------------------------------------
 # B3LYP/6-311++G(d,p) empiricaldispersion=gd3bj scf=xqc pop=npa geom=c
 heck
 ----------------------------------------------------------------------

 --------------------------------------
 CID_62416764_JID_1418_Energie_neutraal
 --------------------------------------
 Structure from the checkpoint file:  "JID_1418.chk"
 Charge =  0 Multiplicity = 1

 SCF Done:  E(RB3LYP) =  -464.644699695     A.U. after   13 cycles
 Normal termination of Gaussian 16 at Tue Dec  8 20:07:36 2020.

 ----------------------------------------------------------------------
 # B3LYP/6-311++G(d,p) empiricaldispersion=gd3bj scf=xqc pop=npa geom=c
 heck
 ----------------------------------------------------------------------

 ------------------------------------
 CID_62416764_JID_1418_Energie_kation
 ------------------------------------
 Structure from the checkpoint file:  "JID_1418.chk"
 Charge =  1 Multiplicity = 2

 SCF Done:  E(UB3LYP) =  -464.352982874     A.U. after   18 cycles
 Normal termination of Gaussian 16 at Tue Dec  8 20:13:51 2020.
 Gaussian 16:  ES64L-G16RevA.03 25-Dec-2016

 -----------------------------------
 CID_62416764_JID_1418_Energie_anion
 -----------------------------------
 Structure from the checkpoint file:  "JID_1418.chk"
 Charge = -1 Multiplicity = 2

                         Standard orientation:
 ---------------------------------------------------------------------
 Center     Atomic      Atomic             Coordinates (Angstroms)
 Number     Number       Type             X           Y           Z
 ---------------------------------------------------------------------
      1          6           0       -2.853804   -2.065133   -0.541387
      2          6           0       -3.328855   -1.028878    0.482610
      3          6           0       -2.308123    0.080823    0.743456
      4          7           0       -2.093890    0.900245   -0.445090
      5          6           0       -1.188738    2.033842   -0.267118
      6          6           0        0.222726    1.701538    0.241841
      7          7           0        0.860514    0.707683   -0.619126
      8          6           0        2.210825    0.374655   -0.221860
      9          6           0        2.519916   -0.366045    1.121810
     10          6           0        3.598261   -1.178127    0.358383
     11          6           0        2.899130   -0.789397   -0.971096
     12          1           0       -2.732294   -1.625840   -1.538408
     13          1           0       -3.573387   -2.885204   -0.638111
     14          1           0       -1.891097   -2.501283   -0.243894
     15          1           0       -4.265239   -0.571416    0.141344
     16          1           0       -3.541734   -1.532654    1.434337
     17          1           0       -2.681644    0.744378    1.534432
     18          1           0       -1.381077   -0.379952    1.140229
     19          1           0       -1.760465    0.325921   -1.215467
     20          1           0       -1.103852    2.535836   -1.237206
     21          1           0       -1.658472    2.740490    0.430299
     22          1           0        0.830655    2.615246    0.216711
     23          1           0        0.180535    1.384177    1.299866
     24          1           0        0.303907   -0.146629   -0.591829
     25          1           0        2.819508    1.285346   -0.289364
     26          1           0        2.832749    0.225832    1.987637
     27          1           0        1.671812   -0.998312    1.414018
     28          1           0        3.690484   -2.243102    0.589611
     29          1           0        4.587490   -0.717020    0.444494
     30          1           0        2.161062   -1.544866   -1.268343
     31          1           0        3.516666   -0.546119   -1.840668
 ---------------------------------------------------------------------

 SCF Done:  E(UB3LYP) =  -464.627570597     A.U. after   28 cycles

 The electronic state is 2-A.
 Alpha  occ. eigenvalues --  -14.19829 -14.19777 -10.09537 -10.09294 -10.08917
 Alpha  occ. eigenvalues --  -10.08910 -10.06584 -10.06479 -10.06470 -10.05965
 Alpha  occ. eigenvalues --  -10.05881  -0.82337  -0.79790  -0.72710  -0.67664
 Alpha  occ. eigenvalues --   -0.61993  -0.57350  -0.55760  -0.53751  -0.50119
 Alpha  occ. eigenvalues --   -0.47822  -0.46070  -0.39987  -0.39201  -0.38220
 Alpha  occ. eigenvalues --   -0.36968  -0.36166  -0.32767  -0.32179  -0.32024
 Alpha  occ. eigenvalues --   -0.29695  -0.28896  -0.28525  -0.27426  -0.26963
 Alpha  occ. eigenvalues --   -0.25347  -0.24023  -0.23805  -0.23231  -0.22868
 Alpha  occ. eigenvalues --   -0.21721  -0.20766  -0.13239  -0.12368   0.04684
 Alpha virt. eigenvalues --    0.06538   0.07018   0.07784   0.08491   0.08782
 Alpha virt. eigenvalues --    0.09342   0.09928   0.10122   0.10989   0.11110
 Alpha virt. eigenvalues --    0.11924   0.12287   0.12846   0.13503   0.13887

  Beta  occ. eigenvalues --  -14.19820 -14.19772 -10.09527 -10.09284 -10.08898
  Beta  occ. eigenvalues --  -10.08897 -10.06561 -10.06463 -10.06450 -10.05937
  Beta  occ. eigenvalues --  -10.05842  -0.82318  -0.79771  -0.72686  -0.67625
  Beta  occ. eigenvalues --   -0.61959  -0.57294  -0.55701  -0.53701  -0.50068
  Beta  occ. eigenvalues --   -0.47755  -0.46004  -0.39952  -0.39152  -0.38184
  Beta  occ. eigenvalues --   -0.36936  -0.36130  -0.32724  -0.32142  -0.31992
  Beta  occ. eigenvalues --   -0.29650  -0.28862  -0.28491  -0.27391  -0.26928
  Beta  occ. eigenvalues --   -0.25314  -0.23974  -0.23768  -0.23195  -0.22830
  Beta  occ. eigenvalues --   -0.21682  -0.20731  -0.13222  -0.12351
  Beta virt. eigenvalues --    0.06855   0.07451   0.07633   0.08200   0.09066
  Beta virt. eigenvalues --    0.09235   0.09585   0.10372   0.10464   0.11311
  Beta virt. eigenvalues --    0.11598   0.12254   0.12630   0.13248   0.13755

 Mulliken charges and spin densities:
               1          2
     1  C    0.707969  -1.238164
     2  C    0.010966  -0.309725
     3  C    0.079100  -0.378302
     4  N   -0.138765   0.092119
     5  C   -0.116694  -0.402762
     6  C    0.032381  -0.162382
     7  N    0.206794  -0.185684
     8  C   -2.045727   1.771277
     9  C    1.679952  -1.918044
    10  C   -0.549255   0.215831
    11  C    0.918625  -1.200622
    12  H   -0.025440   0.152658
    13  H   -0.583767   0.740667
    14  H   -0.144447   0.288564
    15  H    0.093454   0.052846
    16  H   -0.278093   0.415156
    17  H   -0.304570   0.461730
    18  H    0.092868   0.045067
    19  H    0.078621   0.119639
    20  H    0.114987   0.046992
    21  H   -0.029966   0.179379
    22  H   -0.362702   0.498788
    23  H   -0.043386   0.188609
    24  H    0.740890  -0.577132
    25  H   -0.137884   0.310106
    26  H   -0.229884   0.369393
    27  H   -0.173361   0.304780
    28  H   -0.183619   0.326671
    29  H   -0.130297   0.262820
    30  H   -0.203958   0.321166
    31  H   -0.074793   0.208560
 Sum of Mulliken charges =  -1.00000   1.00000

 Dipole moment (field-independent basis, Debye):
    X=              0.2017    Y=              3.2444    Z=             -2.0889  Tot=              3.8640
 Quadrupole moment (field-independent basis, Debye-Ang):
   XX=           -145.1893   YY=           -120.9423   ZZ=           -107.1047
   XY=             -8.1964   XZ=             -0.9320   YZ=             -0.5620

 Summary of Natural Population Analysis:

                                       Natural Population
                Natural  -----------------------------------------------
    Atom  No    Charge         Core      Valence    Rydberg      Total
 -----------------------------------------------------------------------
      C    1   -0.28972      0.99967     2.28406    0.00599     3.28972
      C    2   -0.19299      0.99964     2.18394    0.00941     3.19299
      C    3   -0.08946      0.99962     2.07821    0.01163     3.08946
      N    4   -0.34220      0.99975     2.83150    0.01095     3.84220
      C    5   -0.08532      0.99963     2.07476    0.01093     3.08532
      C    6   -0.09883      0.99963     2.08860    0.01060     3.09883
      N    7   -0.34055      0.99972     2.82924    0.01160     3.84055
      C    8   -0.00669      0.99960     1.99258    0.01452     3.00669
      C    9   -0.19918      0.99963     2.19091    0.00865     3.19918
      C   10   -0.18951      0.99965     2.18285    0.00701     3.18951
      C   11   -0.18737      0.99963     2.18018    0.00755     3.18737
      H   12    0.09238      0.00000     0.40653    0.00108     0.40762
      H   13    0.10181      0.00000     0.39676    0.00142     0.39819
      H   14    0.09864      0.00000     0.39971    0.00166     0.40136
      H   15    0.09489      0.00000     0.40376    0.00135     0.40511
      H   16    0.09756      0.00000     0.40113    0.00131     0.40244
      H   17    0.09241      0.00000     0.40618    0.00141     0.40759
      H   18    0.07784      0.00000     0.41983    0.00234     0.42216
      H   19    0.17133      0.00000     0.32513    0.00354     0.32867
      H   20    0.09318      0.00000     0.40575    0.00107     0.40682
      H   21    0.09009      0.00000     0.40886    0.00106     0.40991
      H   22    0.09343      0.00000     0.40514    0.00143     0.40657
      H   23    0.08219      0.00000     0.41602    0.00179     0.41781
      H   24    0.16771      0.00000     0.32669    0.00560     0.33229
      H   25    0.09053      0.00000     0.40797    0.00150     0.40947
      H   26    0.09802      0.00000     0.40047    0.00150     0.40198
      H   27    0.09707      0.00000     0.40089    0.00203     0.40293
      H   28    0.09660      0.00000     0.40203    0.00137     0.40340
      H   29    0.09423      0.00000     0.40413    0.00164     0.40577
      H   30    0.09592      0.00000     0.40239    0.00169     0.40408
      H   31    0.09599      0.00000     0.40275    0.00126     0.40401
 =======================================================================
   * Total *    0.00000     10.99616    32.85897    0.14487    44.00000

 Normal termination of Gaussian 16 at Tue Dec  8 20:23:22 2020.
