 Gaussian 16, Revision A.03,

 -----------------------------------------------------------
 # opt freq B3LYP/6-31G(d) empiricaldispersion=gd3bj scf=xqc
 -----------------------------------------------------------

 ------------------------------
 CID_56747116_JID_6407_neutraal
 ------------------------------
 Symbolic Z-matrix:
 Charge =  0 Multiplicity = 1

 SCF Done:  E(RB3LYP) =  -1146.34193324     A.U. after   14 cycles
 SCF Done:  E(RB3LYP) =  -1146.34971403     A.U. after   13 cycles
 SCF Done:  E(RB3LYP) =  -1146.35148260     A.U. after   12 cycles
 SCF Done:  E(RB3LYP) =  -1146.35364793     A.U. after   12 cycles
 SCF Done:  E(RB3LYP) =  -1146.35608158     A.U. after   14 cycles
 SCF Done:  E(RB3LYP) =  -1146.35661510     A.U. after   12 cycles
 SCF Done:  E(RB3LYP) =  -1146.35675347     A.U. after   12 cycles
 SCF Done:  E(RB3LYP) =  -1146.35707541     A.U. after   12 cycles
 SCF Done:  E(RB3LYP) =  -1146.35723712     A.U. after   11 cycles
 SCF Done:  E(RB3LYP) =  -1146.35730845     A.U. after   11 cycles
 SCF Done:  E(RB3LYP) =  -1146.35742480     A.U. after   11 cycles
 SCF Done:  E(RB3LYP) =  -1146.35743490     A.U. after    9 cycles
 SCF Done:  E(RB3LYP) =  -1146.35744526     A.U. after   11 cycles
 SCF Done:  E(RB3LYP) =  -1146.35744584     A.U. after    8 cycles
 SCF Done:  E(RB3LYP) =  -1146.35744593     A.U. after    7 cycles
 Optimization completed.
    -- Stationary point found.
 Normal termination of Gaussian 16 at Thu Dec 10 22:43:18 2020.

 --------------------------------------------------------------------
 #N Geom=AllCheck Guess=TCheck SCRF=Check GenChk RB3LYP/6-31G(d) Freq
 --------------------------------------------------------------------

 Structure from the checkpoint file:  "JID_6407.chk"
 ------------------------------
 CID_56747116_JID_6407_neutraal
 ------------------------------
 Charge =  0 Multiplicity = 1

 SCF Done:  E(RB3LYP) =  -1146.35744593     A.U. after    1 cycles

  Exact polarizability: 153.025  -0.282 144.741  -7.463   3.599 114.123
 Approx polarizability: 200.326  -1.468 205.157 -18.176   2.685 186.028

                      1                      2                      3
                      A                      A                      A
 Frequencies --     23.7384                40.9437                46.7563
 Red. masses --      3.4600                 5.2854                 3.5336
 Frc consts  --      0.0011                 0.0052                 0.0046
 IR Inten    --      1.5045                 3.9308                 0.9659

                      4                      5                      6
                      A                      A                      A
 Frequencies --     54.8123                70.3079                88.2105
 Red. masses --      4.0869                 4.5303                 3.0518
 Frc consts  --      0.0072                 0.0132                 0.0140
 IR Inten    --      1.9392                 0.6604                 2.5256

                      7                      8                      9
                      A                      A                      A
 Frequencies --    103.8578               119.2682               167.0352
 Red. masses --      5.6680                 2.7926                 1.9579
 Frc consts  --      0.0360                 0.0234                 0.0322
 IR Inten    --      1.7023                11.6563                 3.1290

                     10                     11                     12
                      A                      A                      A
 Frequencies --    177.6461               193.9421               216.6674
 Red. masses --      1.7380                 3.6269                 1.7941
 Frc consts  --      0.0323                 0.0804                 0.0496
 IR Inten    --      1.7915                 3.2083                 4.5505

                     13                     14                     15
                      A                      A                      A
 Frequencies --    237.5368               261.3149               264.2599
 Red. masses --      1.7482                 2.8482                 3.2026
 Frc consts  --      0.0581                 0.1146                 0.1318
 IR Inten    --      0.1119                 2.3910                 1.8653

                     16                     17                     18
                      A                      A                      A
 Frequencies --    303.0624               339.3814               359.7899
 Red. masses --      2.9478                 3.8924                 3.0957
 Frc consts  --      0.1595                 0.2641                 0.2361
 IR Inten    --      0.9139                 1.7233                 5.4020

                     19                     20                     21
                      A                      A                      A
 Frequencies --    400.0577               420.9035               444.0864
 Red. masses --      2.9893                 3.4095                 4.9326
 Frc consts  --      0.2819                 0.3559                 0.5731
 IR Inten    --      1.7304                 1.8133                69.0471

                     22                     23                     24
                      A                      A                      A
 Frequencies --    478.8078               483.2266               508.3082
 Red. masses --      4.7719                 2.5752                 2.2422
 Frc consts  --      0.6446                 0.3543                 0.3413
 IR Inten    --     17.7574                 8.7103                15.3155

                     25                     26                     27
                      A                      A                      A
 Frequencies --    589.0723               608.4121               666.4868
 Red. masses --      1.9985                 4.5824                 4.1884
 Frc consts  --      0.4086                 0.9994                 1.0962
 IR Inten    --      5.2719                 9.9253                19.5070

                     28                     29                     30
                      A                      A                      A
 Frequencies --    679.1283               709.2184               774.6730
 Red. masses --      3.5273                 3.9737                 3.2193
 Frc consts  --      0.9585                 1.1776                 1.1383
 IR Inten    --      2.9089                15.5766                14.8013

                     31                     32                     33
                      A                      A                      A
 Frequencies --    803.4834               819.0744               826.1979
 Red. masses --      1.3099                 3.6845                 3.3630
 Frc consts  --      0.4982                 1.4564                 1.3525
 IR Inten    --      7.3159                26.5601                 9.6602

                     34                     35                     36
                      A                      A                      A
 Frequencies --    892.5618               895.2669               927.9274
 Red. masses --      1.5930                 1.9185                 2.0810
 Frc consts  --      0.7477                 0.9060                 1.0557
 IR Inten    --      2.4387                 5.8851                 2.2371

                     37                     38                     39
                      A                      A                      A
 Frequencies --    935.7165               946.8788               950.9686
 Red. masses --      2.3530                 1.9482                 2.0741
 Frc consts  --      1.2139                 1.0291                 1.1051
 IR Inten    --     10.8575                21.2546                 7.4215

                     40                     41                     42
                      A                      A                      A
 Frequencies --    998.6018              1002.1415              1011.1303
 Red. masses --      1.5803                 1.7162                 1.5414
 Frc consts  --      0.9285                 1.0155                 0.9285
 IR Inten    --     20.7988                10.3506                27.2049

                     43                     44                     45
                      A                      A                      A
 Frequencies --   1030.2198              1039.2629              1088.8409
 Red. masses --      2.4265                 2.3197                 2.4714
 Frc consts  --      1.5174                 1.4762                 1.7264
 IR Inten    --     10.1909                 5.9735                48.4648

                     46                     47                     48
                      A                      A                      A
 Frequencies --   1102.5566              1114.5272              1121.6676
 Red. masses --      2.6174                 2.9955                 2.3425
 Frc consts  --      1.8746                 2.1923                 1.7365
 IR Inten    --     49.0890                91.0692                53.8946

                     49                     50                     51
                      A                      A                      A
 Frequencies --   1142.4597              1159.7167              1185.6788
 Red. masses --      2.1850                 1.9529                 1.7076
 Frc consts  --      1.6803                 1.5475                 1.4144
 IR Inten    --     16.9461                57.2578                 0.6476

                     52                     53                     54
                      A                      A                      A
 Frequencies --   1218.1582              1220.7045              1247.8336
 Red. masses --      1.4124                 1.4021                 2.0461
 Frc consts  --      1.2348                 1.2310                 1.8771
 IR Inten    --      4.3248                 4.7420                47.0164

                     55                     56                     57
                      A                      A                      A
 Frequencies --   1268.0929              1276.0850              1308.8893
 Red. masses --      1.9080                 1.2958                 1.5111
 Frc consts  --      1.8077                 1.2432                 1.5253
 IR Inten    --     21.4154                 1.2801                31.5517

                     58                     59                     60
                      A                      A                      A
 Frequencies --   1314.6053              1317.7520              1351.6369
 Red. masses --      1.3421                 3.3389                 1.3665
 Frc consts  --      1.3665                 3.4161                 1.4709
 IR Inten    --      1.5983               183.7276                35.0385

                     61                     62                     63
                      A                      A                      A
 Frequencies --   1356.3005              1372.8861              1377.4165
 Red. masses --      1.3975                 1.2818                 1.2068
 Frc consts  --      1.5147                 1.4234                 1.3490
 IR Inten    --     31.1586                 9.2216                30.0476

                     64                     65                     66
                      A                      A                      A
 Frequencies --   1380.3287              1406.7404              1417.7450
 Red. masses --      1.2456                 1.2797                 1.3437
 Frc consts  --      1.3983                 1.4920                 1.5913
 IR Inten    --     11.2478                 4.3236                 3.0176

                     67                     68                     69
                      A                      A                      A
 Frequencies --   1433.4229              1438.0653              1476.1035
 Red. masses --      1.4375                 1.2714                 1.0624
 Frc consts  --      1.7402                 1.5491                 1.3639
 IR Inten    --      7.8693                15.3340                 3.6338

                     70                     71                     72
                      A                      A                      A
 Frequencies --   1479.5243              1488.6938              1499.3496
 Red. masses --      1.4948                 1.1031                 1.2144
 Frc consts  --      1.9279                 1.4403                 1.6085
 IR Inten    --     64.3350                 9.3847                52.0009

                     73                     74                     75
                      A                      A                      A
 Frequencies --   1513.7502              1515.6846              1520.5212
 Red. masses --      1.2708                 1.0902                 1.0468
 Frc consts  --      1.7157                 1.4756                 1.4259
 IR Inten    --     49.7893                 3.2183                 7.5985

                     76                     77                     78
                      A                      A                      A
 Frequencies --   1527.9756              1534.3133              1540.4170
 Red. masses --      1.1014                 1.0582                 1.1393
 Frc consts  --      1.5151                 1.4678                 1.5928
 IR Inten    --      3.3659                 6.8355                 7.6973

                     79                     80                     81
                      A                      A                      A
 Frequencies --   1557.4663              1739.3812              3010.2306
 Red. masses --      1.0985                 9.0261                 1.0720
 Frc consts  --      1.5699                16.0894                 5.7233
 IR Inten    --      2.1475               332.9691                50.7759

                     82                     83                     84
                      A                      A                      A
 Frequencies --   3032.8918              3054.3747              3057.3036
 Red. masses --      1.0860                 1.0681                 1.0369
 Frc consts  --      5.8856                 5.8710                 5.7103
 IR Inten    --     29.8603                12.3602                16.3353

                     85                     86                     87
                      A                      A                      A
 Frequencies --   3065.1388              3071.2370              3075.0389
 Red. masses --      1.0692                 1.0627                 1.0691
 Frc consts  --      5.9186                 5.9059                 5.9563
 IR Inten    --     19.7018                29.9135                37.2720

                     88                     89                     90
                      A                      A                      A
 Frequencies --   3088.0204              3112.7451              3118.1744
 Red. masses --      1.0288                 1.0932                 1.1021
 Frc consts  --      5.7800                 6.2407                 6.3136
 IR Inten    --      1.8453                46.5028                23.4421

                     91                     92                     93
                      A                      A                      A
 Frequencies --   3119.8075              3121.2755              3129.9893
 Red. masses --      1.0625                 1.0939                 1.1054
 Frc consts  --      6.0930                 6.2788                 6.3805
 IR Inten    --     28.7559                11.1262                35.0985

                     94                     95                     96
                      A                      A                      A
 Frequencies --   3143.3816              3152.6598              3155.0512
 Red. masses --      1.0967                 1.0947                 1.1026
 Frc consts  --      6.3845                 6.4107                 6.4669
 IR Inten    --     16.2211                 8.8444                17.2728

                     97                     98                     99
                      A                      A                      A
 Frequencies --   3184.4478              3190.9765              3199.6723
 Red. masses --      1.1075                 1.1073                 1.1079
 Frc consts  --      6.6168                 6.6428                 6.6830
 IR Inten    --     20.2347                 0.4211                 1.9897

 - Thermochemistry -
 -------------------
 Temperature   298.150 Kelvin.  Pressure   1.00000 Atm.
 Atom     1 has atomic number  6 and mass  12.00000

 Molecular mass:   249.10348 amu.
 Principal axes and moments of inertia in atomic units:
                           1         2         3
     Eigenvalues --  3126.276504966.665106846.56880
           X            0.99948   0.03114  -0.00791
           Y           -0.03090   0.99912   0.02822
           Z            0.00878  -0.02797   0.99957
 This molecule is an asymmetric top.
 Rotational symmetry number  1.
 Warning -- assumption of classical behavior for rotation
           may cause significant error
 Rotational temperatures (Kelvin)      0.02771     0.01744     0.01265
 Rotational constants (GHZ):           0.57728     0.36337     0.26360
 Zero-point vibrational energy     783602.2 (Joules/Mol)
                                  187.28541 (Kcal/Mol)
 Warning -- explicit consideration of  26 degrees of freedom as
           vibrations may cause significant error
 Vibrational temperatures:     34.15    58.91    67.27    78.86   101.16
          (Kelvin)            126.92   149.43   171.60   240.33   255.59
                              279.04   311.74   341.76   375.97   380.21
                              436.04   488.29   517.66   575.59   605.59
                              638.94   688.90   695.26   731.34   847.54
                              875.37   958.93   977.11  1020.41  1114.58
                             1156.03  1178.47  1188.71  1284.20  1288.09
                             1335.08  1346.29  1362.35  1368.23  1436.77
                             1441.86  1454.79  1482.26  1495.27  1566.60
                             1586.33  1603.56  1613.83  1643.74  1668.57
                             1705.93  1752.66  1756.32  1795.35  1824.50
                             1836.00  1883.20  1891.42  1895.95  1944.70
                             1951.41  1975.28  1981.80  1985.99  2023.99
                             2039.82  2062.38  2069.06  2123.78  2128.71
                             2141.90  2157.23  2177.95  2180.73  2187.69
                             2198.42  2207.53  2216.32  2240.85  2502.58
                             4331.05  4363.65  4394.56  4398.78  4410.05
                             4418.83  4424.30  4442.97  4478.55  4486.36
                             4488.71  4490.82  4503.36  4522.62  4535.97
                             4539.41  4581.71  4591.10  4603.61

 Zero-point correction=                           0.298458 (Hartree/Particle)
 Thermal correction to Energy=                    0.315975
 Thermal correction to Enthalpy=                  0.316919
 Thermal correction to Gibbs Free Energy=         0.251216
 Sum of electronic and zero-point Energies=          -1146.058988
 Sum of electronic and thermal Energies=             -1146.041471
 Sum of electronic and thermal Enthalpies=           -1146.040527
 Sum of electronic and thermal Free Energies=        -1146.106230

                     E (Thermal)             CV                S
                      KCal/Mol        Cal/Mol-Kelvin    Cal/Mol-Kelvin
 Total                  198.277             63.994            138.285
 Electronic               0.000              0.000              0.000
 Translational            0.889              2.981             42.439
 Rotational               0.889              2.981             33.030
 Vibrational            196.500             58.032             62.816
 Vibration     1          0.593              1.985              6.294
 Vibration     2          0.594              1.981              5.213
 Vibration     3          0.595              1.979              4.950
 Vibration     4          0.596              1.976              4.636
 Vibration     5          0.598              1.968              4.145
 Vibration     6          0.601              1.957              3.699
 Vibration     7          0.605              1.946              3.381
 Vibration     8          0.609              1.933              3.112
 Vibration     9          0.624              1.883              2.469
 Vibration    10          0.628              1.870              2.353
 Vibration    11          0.635              1.848              2.190
 Vibration    12          0.646              1.816              1.987
 Vibration    13          0.656              1.783              1.821
 Vibration    14          0.669              1.744              1.653
 Vibration    15          0.671              1.738              1.633
 Vibration    16          0.695              1.668              1.400
 Vibration    17          0.719              1.597              1.215
 Vibration    18          0.734              1.555              1.123
 Vibration    19          0.766              1.470              0.962
 Vibration    20          0.783              1.425              0.889
 Vibration    21          0.804              1.374              0.814
 Vibration    22          0.835              1.297              0.713
 Vibration    23          0.839              1.287              0.701
 Vibration    24          0.863              1.232              0.638
 Vibration    25          0.946              1.055              0.469
 Vibration    26          0.967              1.014              0.435

 Optimization completed.
    -- Stationary point found.
 Normal termination of Gaussian 16 at Thu Dec 10 22:55:10 2020.

 ----------------------------------------------------------------------
 # B3LYP/6-311++G(d,p) empiricaldispersion=gd3bj scf=xqc pop=npa geom=c
 heck
 ----------------------------------------------------------------------

 --------------------------------------
 CID_56747116_JID_6407_Energie_neutraal
 --------------------------------------
 Structure from the checkpoint file:  "JID_6407.chk"
 Charge =  0 Multiplicity = 1

 SCF Done:  E(RB3LYP) =  -1146.60262760     A.U. after   15 cycles
 Normal termination of Gaussian 16 at Thu Dec 10 23:00:38 2020.

 ----------------------------------------------------------------------
 # B3LYP/6-311++G(d,p) empiricaldispersion=gd3bj scf=xqc pop=npa geom=c
 heck
 ----------------------------------------------------------------------

 ------------------------------------
 CID_56747116_JID_6407_Energie_kation
 ------------------------------------
 Structure from the checkpoint file:  "JID_6407.chk"
 Charge =  1 Multiplicity = 2

 SCF Done:  E(UB3LYP) =  -1146.28696316     A.U. after   26 cycles
 Normal termination of Gaussian 16 at Thu Dec 10 23:12:31 2020.
 Gaussian 16:  ES64L-G16RevA.03 25-Dec-2016

 ----------------------------------------------------------------------
 # B3LYP/6-311++G(d,p) empiricaldispersion=gd3bj scf=xqc pop=npa geom=c
 heck
 ----------------------------------------------------------------------

 -----------------------------------
 CID_56747116_JID_6407_Energie_anion
 -----------------------------------
 Structure from the checkpoint file:  "JID_6407.chk"
 Charge = -1 Multiplicity = 2

                         Standard orientation:
 ---------------------------------------------------------------------
 Center     Atomic      Atomic             Coordinates (Angstroms)
 Number     Number       Type             X           Y           Z
 ---------------------------------------------------------------------
      1          6           0        0.783156    3.522725    0.887445
      2          6           0       -0.080835    2.948923   -0.235791
      3          7           0       -0.079223    1.481973   -0.248683
      4          6           0       -1.037974    0.808800    0.627902
      5          6           0       -2.360074    0.450092   -0.047431
      6          6           0       -3.401153   -0.085838    0.953811
      7          6           0       -4.096183   -1.203860    0.166004
      8          6           0       -2.936140   -1.743183   -0.668430
      9          8           0       -2.162653   -0.590103   -1.024913
     10          6           0        0.946261    0.868911   -0.900469
     11          8           0        1.855418    1.496755   -1.446500
     12          6           0        0.952416   -0.653127   -0.959149
     13         16           0        1.978226   -1.384284    0.351195
     14          8           0        1.597097   -0.748524    1.627303
     15          8           0        1.905005   -2.846066    0.204678
     16          6           0        3.643655   -0.833087   -0.065999
     17          1           0        0.450499    3.168413    1.869488
     18          1           0        0.735552    4.617340    0.885193
     19          1           0        1.823401    3.219077    0.744810
     20          1           0       -1.122393    3.273602   -0.136044
     21          1           0        0.288057    3.288349   -1.205021
     22          1           0       -0.582971   -0.078288    1.070715
     23          1           0       -1.241691    1.488022    1.463829
     24          1           0       -2.743378    1.326937   -0.586828
     25          1           0       -2.895459   -0.502128    1.834425
     26          1           0       -4.082809    0.696245    1.299150
     27          1           0       -4.553552   -1.964366    0.805372
     28          1           0       -4.871331   -0.790041   -0.488629
     29          1           0       -2.323865   -2.447187   -0.084080
     30          1           0       -3.241968   -2.237719   -1.594724
     31          1           0       -0.036635   -1.102831   -0.864123
     32          1           0        1.395717   -0.952867   -1.910575
     33          1           0        3.972415   -1.360528   -0.962979
     34          1           0        3.620201    0.244148   -0.236992
     35          1           0        4.275438   -1.090068    0.786766
 ---------------------------------------------------------------------

 SCF Done:  E(UB3LYP) =  -1146.59200204     A.U. after   33 cycles
 SCF Done:  E(UB3LYP) =  -1146.59200204     a.u. after    1 cycles

 The electronic state is 2-A.
 Alpha  occ. eigenvalues --  -88.96623 -19.03409 -19.03272 -19.03111 -19.00688
 Alpha  occ. eigenvalues --  -14.26071 -10.19602 -10.13186 -10.12650 -10.12607
 Alpha  occ. eigenvalues --  -10.12500 -10.11769 -10.11382 -10.08013 -10.07984
 Alpha  occ. eigenvalues --  -10.07187  -8.03091  -5.99339  -5.99244  -5.99209
 Alpha  occ. eigenvalues --   -1.02477  -0.95988  -0.94960  -0.92069  -0.85476
 Alpha  occ. eigenvalues --   -0.72192  -0.70094  -0.68721  -0.67778  -0.65268
 Alpha  occ. eigenvalues --   -0.60087  -0.56058  -0.52301  -0.51190  -0.49560
 Alpha  occ. eigenvalues --   -0.45446  -0.44564  -0.42454  -0.41507  -0.41190
 Alpha  occ. eigenvalues --   -0.40176  -0.39138  -0.38536  -0.36570  -0.35703
 Alpha  occ. eigenvalues --   -0.34902  -0.34568  -0.34174  -0.33627  -0.33098
 Alpha  occ. eigenvalues --   -0.32122  -0.31541  -0.29735  -0.29003  -0.28380
 Alpha  occ. eigenvalues --   -0.26843  -0.26493  -0.25969  -0.25205  -0.24788
 Alpha  occ. eigenvalues --   -0.23865  -0.23505  -0.22311  -0.21157  -0.18075
 Alpha  occ. eigenvalues --   -0.17856  -0.15523   0.04078
 Alpha virt. eigenvalues --    0.05618   0.06270   0.07015   0.07711   0.07808
 Alpha virt. eigenvalues --    0.08707   0.09138   0.09328   0.10025   0.10518
 Alpha virt. eigenvalues --    0.10883   0.11229   0.11364   0.11836   0.12788

  Beta  occ. eigenvalues --  -88.96619 -19.03408 -19.03267 -19.03104 -19.00681
  Beta  occ. eigenvalues --  -14.26070 -10.19595 -10.13170 -10.12635 -10.12595
  Beta  occ. eigenvalues --  -10.12471 -10.11757 -10.11362 -10.07981 -10.07953
  Beta  occ. eigenvalues --  -10.07163  -8.03085  -5.99335  -5.99239  -5.99205
  Beta  occ. eigenvalues --   -1.02459  -0.95976  -0.94947  -0.92051  -0.85464
  Beta  occ. eigenvalues --   -0.72163  -0.70050  -0.68685  -0.67743  -0.65233
  Beta  occ. eigenvalues --   -0.60050  -0.56011  -0.52268  -0.51115  -0.49509
  Beta  occ. eigenvalues --   -0.45406  -0.44541  -0.42434  -0.41461  -0.41160
  Beta  occ. eigenvalues --   -0.40135  -0.39114  -0.38516  -0.36540  -0.35674
  Beta  occ. eigenvalues --   -0.34878  -0.34544  -0.34146  -0.33594  -0.33073
  Beta  occ. eigenvalues --   -0.32090  -0.31507  -0.29703  -0.28969  -0.28340
  Beta  occ. eigenvalues --   -0.26794  -0.26444  -0.25939  -0.25192  -0.24743
  Beta  occ. eigenvalues --   -0.23857  -0.23482  -0.22302  -0.21142  -0.18062
  Beta  occ. eigenvalues --   -0.17842  -0.15504
  Beta virt. eigenvalues --    0.05905   0.06582   0.06815   0.07473   0.08174
  Beta virt. eigenvalues --    0.08599   0.09020   0.09503   0.09682   0.10306
  Beta virt. eigenvalues --    0.10635   0.11182   0.11603   0.11777   0.12067

 Mulliken charges and spin densities:
               1          2
     1  C    0.590708  -1.024793
     2  C   -0.378070   0.340269
     3  N    0.235898   0.160958
     4  C    1.128971  -2.098418
     5  C   -1.776664   2.138430
     6  C    1.220210  -1.739806
     7  C   -0.235751  -0.206990
     8  C    0.664184  -0.801736
     9  O   -0.154684   0.001515
    10  C   -0.298450   0.181659
    11  O   -0.319273   0.006680
    12  C   -0.486095  -0.334133
    13  S    0.233753   0.022089
    14  O   -0.169881   0.012616
    15  O   -0.103819   0.001572
    16  C   -0.081761  -0.495898
    17  H   -0.050801   0.176652
    18  H   -0.210048   0.361300
    19  H    0.065072   0.101719
    20  H   -0.499600   0.648858
    21  H    0.079364   0.111837
    22  H    0.375089  -0.086378
    23  H    0.218690  -0.031275
    24  H   -0.254565   0.496994
    25  H   -0.012483   0.178072
    26  H   -0.652624   0.834286
    27  H   -0.322174   0.482553
    28  H   -0.246410   0.419881
    29  H    0.084410   0.035296
    30  H   -0.032794   0.201616
    31  H    0.194843   0.180356
    32  H    0.138303   0.149242
    33  H   -0.010939   0.212160
    34  H    0.056988   0.172195
    35  H    0.010403   0.190622
 Sum of Mulliken charges =  -1.00000   1.00000

 Dipole moment (field-independent basis, Debye):
    X=              5.9873    Y=             -2.5887    Z=             -1.5402  Tot=              6.7023
 Quadrupole moment (field-independent basis, Debye-Ang):
   XX=           -186.1727   YY=           -166.2061   ZZ=           -140.1724
   XY=              7.4564   XZ=              4.0019   YZ=              0.8264

 Summary of Natural Population Analysis:

                                       Natural Population
                Natural  -----------------------------------------------
    Atom  No    Charge         Core      Valence    Rydberg      Total
 -----------------------------------------------------------------------
      C    1   -0.29179      0.99966     2.28697    0.00516     3.29179
      C    2   -0.08582      0.99961     2.07513    0.01108     3.08582
      N    3   -0.24343      0.99963     2.73163    0.01216     3.74343
      C    4   -0.09904      0.99955     2.08749    0.01199     3.09904
      C    5    0.06137      0.99954     1.92358    0.01550     2.93863
      C    6   -0.20227      0.99962     2.19383    0.00882     3.20227
      C    7   -0.20251      0.99964     2.19506    0.00781     3.20251
      C    8   -0.00937      0.99959     1.99748    0.01230     3.00937
      O    9   -0.31380      0.99989     3.30460    0.00931     4.31380
      C   10    0.33779      0.99962     1.63973    0.02286     2.66221
      O   11   -0.33231      0.99988     3.32640    0.00603     4.33231
      C   12   -0.33556      0.99953     2.32522    0.01082     3.33556
      S   13    1.02076      4.99932     1.88587    0.09405     6.97924
      O   14   -0.46949      0.99991     3.46371    0.00587     4.46949
      O   15   -0.46697      0.99991     3.46138    0.00568     4.46697
      C   16   -0.39331      0.99961     2.38699    0.00672     3.39331
      H   17    0.09861      0.00000     0.40044    0.00096     0.40139
      H   18    0.10088      0.00000     0.39815    0.00097     0.39912
      H   19    0.10428      0.00000     0.39471    0.00100     0.39572
      H   20    0.09870      0.00000     0.39944    0.00185     0.40130
      H   21    0.10739      0.00000     0.39148    0.00113     0.39261
      H   22    0.11212      0.00000     0.38559    0.00228     0.38788
      H   23    0.10650      0.00000     0.39223    0.00127     0.39350
      H   24    0.09128      0.00000     0.40625    0.00247     0.40872
      H   25    0.09662      0.00000     0.40198    0.00140     0.40338
      H   26    0.11364      0.00000     0.38277    0.00359     0.38636
      H   27    0.10435      0.00000     0.39439    0.00126     0.39565
      H   28    0.10151      0.00000     0.39661    0.00189     0.39849
      H   29    0.07759      0.00000     0.42099    0.00143     0.42241
      H   30    0.09083      0.00000     0.40797    0.00121     0.40917
      H   31    0.13895      0.00000     0.35926    0.00179     0.36105
      H   32    0.12425      0.00000     0.37471    0.00104     0.37575
      H   33    0.11387      0.00000     0.38470    0.00143     0.38613
      H   34    0.12745      0.00000     0.37115    0.00140     0.37255
      H   35    0.11691      0.00000     0.38150    0.00159     0.38309
 =======================================================================
   * Total *   -0.00000     19.99451    46.72938    0.27611    67.00000

 Normal termination of Gaussian 16 at Thu Dec 10 23:27:50 2020.
