 Gaussian 16, Revision A.03,

 -----------------------------------------------------------
 # opt freq B3LYP/6-31G(d) empiricaldispersion=gd3bj scf=xqc
 -----------------------------------------------------------

 ------------------------------
 CID_64499772_JID_3064_neutraal
 ------------------------------
 Symbolic Z-matrix:
 Charge =  0 Multiplicity = 1

 SCF Done:  E(RB3LYP) =  -555.570024650     A.U. after   13 cycles
 SCF Done:  E(RB3LYP) =  -555.576103220     A.U. after   12 cycles
 SCF Done:  E(RB3LYP) =  -555.577586323     A.U. after   12 cycles
 SCF Done:  E(RB3LYP) =  -555.578078830     A.U. after   12 cycles
 SCF Done:  E(RB3LYP) =  -555.578441195     A.U. after   11 cycles
 SCF Done:  E(RB3LYP) =  -555.578588438     A.U. after   11 cycles
 SCF Done:  E(RB3LYP) =  -555.578630323     A.U. after   10 cycles
 SCF Done:  E(RB3LYP) =  -555.578646900     A.U. after   10 cycles
 SCF Done:  E(RB3LYP) =  -555.578659541     A.U. after   10 cycles
 SCF Done:  E(RB3LYP) =  -555.578670609     A.U. after   10 cycles
 SCF Done:  E(RB3LYP) =  -555.578750921     A.U. after    8 cycles
 SCF Done:  E(RB3LYP) =  -555.578744105     A.U. after   10 cycles
 SCF Done:  E(RB3LYP) =  -555.578743923     A.U. after    9 cycles
 SCF Done:  E(RB3LYP) =  -555.578744119     A.U. after    9 cycles
 SCF Done:  E(RB3LYP) =  -555.578744031     A.U. after    7 cycles
 Optimization completed on the basis of negligible forces.
    -- Stationary point found.
 Normal termination of Gaussian 16 at Wed Dec  9 22:36:02 2020.

 --------------------------------------------------------------------
 #N Geom=AllCheck Guess=TCheck SCRF=Check GenChk RB3LYP/6-31G(d) Freq
 --------------------------------------------------------------------

 Structure from the checkpoint file:  "JID_3064.chk"
 ------------------------------
 CID_64499772_JID_3064_neutraal
 ------------------------------
 Charge =  0 Multiplicity = 1

 SCF Done:  E(RB3LYP) =  -555.578744031     A.U. after    1 cycles

  Exact polarizability: 151.868  -1.873 113.489   8.186   0.422  88.215
 Approx polarizability: 189.763  -2.443 189.401  18.287   0.627 131.558

                      1                      2                      3
                      A                      A                      A
 Frequencies --     10.7576                54.2984                61.7319
 Red. masses --      3.7810                 3.5769                 4.1330
 Frc consts  --      0.0003                 0.0062                 0.0093
 IR Inten    --      0.3335                 1.4660                 0.1798

                      4                      5                      6
                      A                      A                      A
 Frequencies --    106.3998               134.2138               180.9019
 Red. masses --      2.1390                 3.6246                 2.4637
 Frc consts  --      0.0143                 0.0385                 0.0475
 IR Inten    --      0.0588                 0.2341                 0.1319

                      7                      8                      9
                      A                      A                      A
 Frequencies --    214.8141               247.2478               289.0733
 Red. masses --      1.9778                 1.3425                 2.8715
 Frc consts  --      0.0538                 0.0484                 0.1414
 IR Inten    --      0.0338                 0.0266                 0.1370

                     10                     11                     12
                      A                      A                      A
 Frequencies --    315.5755               360.3808               403.1752
 Red. masses --      4.0450                 2.5093                 1.7973
 Frc consts  --      0.2373                 0.1920                 0.1721
 IR Inten    --      1.6284                 8.2802                28.9627

                     13                     14                     15
                      A                      A                      A
 Frequencies --    409.6809               428.0721               484.0052
 Red. masses --      1.6392                 2.7088                 2.3580
 Frc consts  --      0.1621                 0.2925                 0.3255
 IR Inten    --     33.2090                 0.3793                 3.7188

                     16                     17                     18
                      A                      A                      A
 Frequencies --    574.1222               577.7707               646.4911
 Red. masses --      2.1362                 1.9838                 2.0362
 Frc consts  --      0.4149                 0.3902                 0.5014
 IR Inten    --     17.0902                71.2316                 6.6614

                     19                     20                     21
                      A                      A                      A
 Frequencies --    679.7112               686.0873               723.2583
 Red. masses --      3.3176                 2.1400                 2.0383
 Frc consts  --      0.9031                 0.5935                 0.6282
 IR Inten    --     11.6147                51.7140                 4.3506

                     22                     23                     24
                      A                      A                      A
 Frequencies --    772.3204               791.9249               824.3027
 Red. masses --      1.9328                 1.6287                 2.0421
 Frc consts  --      0.6792                 0.6018                 0.8175
 IR Inten    --      1.0392                 5.6092                 1.3525

                     25                     26                     27
                      A                      A                      A
 Frequencies --    831.7792               864.1138               883.3950
 Red. masses --      1.4101                 2.3812                 1.9128
 Frc consts  --      0.5748                 1.0476                 0.8795
 IR Inten    --     29.3063                 6.5075                 4.0458

                     28                     29                     30
                      A                      A                      A
 Frequencies --    930.4546               950.6813               956.8074
 Red. masses --      1.8371                 5.1918                 1.9631
 Frc consts  --      0.9370                 2.7646                 1.0589
 IR Inten    --      4.8486                17.3269                 7.5793

                     31                     32                     33
                      A                      A                      A
 Frequencies --    969.3720              1007.7212              1026.9696
 Red. masses --      2.1297                 1.6003                 2.1056
 Frc consts  --      1.1791                 0.9575                 1.3084
 IR Inten    --      2.0156                 0.9369                20.4559

                     34                     35                     36
                      A                      A                      A
 Frequencies --   1041.9139              1053.2561              1059.0597
 Red. masses --      1.6354                 2.0454                 1.7615
 Frc consts  --      1.0460                 1.3369                 1.1641
 IR Inten    --      7.9560                 2.0326                16.1676

                     37                     38                     39
                      A                      A                      A
 Frequencies --   1083.3252              1094.4856              1140.7489
 Red. masses --      2.3044                 2.5665                 1.6699
 Frc consts  --      1.5934                 1.8114                 1.2803
 IR Inten    --     11.3062                10.4142                 4.3401

                     40                     41                     42
                      A                      A                      A
 Frequencies --   1169.9459              1171.1665              1207.4042
 Red. masses --      2.2476                 2.0308                 1.5419
 Frc consts  --      1.8126                 1.6412                 1.3244
 IR Inten    --      3.3042                10.6358                 8.0939

                     43                     44                     45
                      A                      A                      A
 Frequencies --   1223.7317              1245.0636              1271.9006
 Red. masses --      1.5407                 1.5372                 1.7313
 Frc consts  --      1.3594                 1.4040                 1.6502
 IR Inten    --     10.0676                 2.4325                30.0615

                     46                     47                     48
                      A                      A                      A
 Frequencies --   1298.4631              1310.5103              1324.4485
 Red. masses --      1.4015                 1.2859                 1.2641
 Frc consts  --      1.3922                 1.3012                 1.3065
 IR Inten    --      4.2655                 0.3247                10.6412

                     49                     50                     51
                      A                      A                      A
 Frequencies --   1335.9621              1342.4262              1346.1675
 Red. masses --      1.2507                 1.5916                 2.1562
 Frc consts  --      1.3152                 1.6899                 2.3022
 IR Inten    --      4.6408                 6.1953                27.7912

                     52                     53                     54
                      A                      A                      A
 Frequencies --   1356.0852              1371.7998              1391.8314
 Red. masses --      1.3448                 1.5059                 1.4435
 Frc consts  --      1.4570                 1.6696                 1.6476
 IR Inten    --      5.0985                11.1003                 2.3258

                     55                     56                     57
                      A                      A                      A
 Frequencies --   1408.5495              1413.1366              1431.2154
 Red. masses --      2.3719                 1.6834                 3.3698
 Frc consts  --      2.7726                 1.9807                 4.0669
 IR Inten    --      6.3967                 2.6586                38.4695

                     58                     59                     60
                      A                      A                      A
 Frequencies --   1441.9212              1496.4301              1516.6127
 Red. masses --      1.2517                 1.5612                 1.0762
 Frc consts  --      1.5333                 2.0597                 1.4585
 IR Inten    --      3.5467                11.6363                 1.2675

                     61                     62                     63
                      A                      A                      A
 Frequencies --   1518.4535              1521.9489              1530.0736
 Red. masses --      1.0873                 1.0881                 1.0548
 Frc consts  --      1.4771                 1.4850                 1.4549
 IR Inten    --      4.8073                 3.4367                 3.5718

                     64                     65                     66
                      A                      A                      A
 Frequencies --   1534.5950              1538.3079              1553.5834
 Red. masses --      1.1002                 1.0749                 1.7675
 Frc consts  --      1.5266                 1.4986                 2.5135
 IR Inten    --      3.6313                 5.8988                48.2723

                     67                     68                     69
                      A                      A                      A
 Frequencies --   1646.7037              3007.3883              3018.2733
 Red. masses --      5.2927                 1.0809                 1.0656
 Frc consts  --      8.4559                 5.7597                 5.7195
 IR Inten    --     76.6966                 4.1279                20.7927

                     70                     71                     72
                      A                      A                      A
 Frequencies --   3025.4370              3040.8416              3045.5321
 Red. masses --      1.0701                 1.0687                 1.0372
 Frc consts  --      5.7712                 5.8224                 5.6679
 IR Inten    --     29.6457                32.4673                27.2658

                     73                     74                     75
                      A                      A                      A
 Frequencies --   3055.7349              3058.8440              3065.3624
 Red. masses --      1.0998                 1.0650                 1.0854
 Frc consts  --      6.0505                 5.8712                 6.0093
 IR Inten    --     32.7306                31.0887                32.2712

                     76                     77                     78
                      A                      A                      A
 Frequencies --   3104.7117              3108.6641              3109.8315
 Red. masses --      1.0960                 1.0990                 1.1013
 Frc consts  --      6.2247                 6.2572                 6.2755
 IR Inten    --     29.9818                41.2716                51.8534

                     79                     80                     81
                      A                      A                      A
 Frequencies --   3116.5480              3118.1369              3251.5847
 Red. masses --      1.0961                 1.1017                 1.0955
 Frc consts  --      6.2723                 6.3112                 6.8244
 IR Inten    --     32.3930                42.4387                 6.4599

                     82                     83                     84
                      A                      A                      A
 Frequencies --   3291.5229              3541.6541              3677.7157
 Red. masses --      1.0970                 1.0748                 1.0814
 Frc consts  --      7.0022                 7.9430                 8.6179
 IR Inten    --      2.6143                 1.1344                76.6181

 - Thermochemistry -
 -------------------
 Temperature   298.150 Kelvin.  Pressure   1.00000 Atm.
 Atom     1 has atomic number  6 and mass  12.00000

 Molecular mass:   179.14225 amu.
 Principal axes and moments of inertia in atomic units:
                           1         2         3
     Eigenvalues --   765.949795506.910105597.24514
           X            0.99994  -0.00996  -0.00404
           Y            0.00992   0.99989  -0.01139
           Z            0.00415   0.01135   0.99993
 This molecule is an asymmetric top.
 Rotational symmetry number  1.
 Warning -- assumption of classical behavior for rotation
           may cause significant error
 Rotational temperatures (Kelvin)      0.11308     0.01573     0.01547
 Rotational constants (GHZ):           2.35621     0.32772     0.32243
 Zero-point vibrational energy     702367.2 (Joules/Mol)
                                  167.86978 (Kcal/Mol)
 Warning -- explicit consideration of  17 degrees of freedom as
           vibrations may cause significant error
 Vibrational temperatures:     15.48    78.12    88.82   153.09   193.10
          (Kelvin)            260.28   309.07   355.73   415.91   454.04
                              518.51   580.08   589.44   615.90   696.38
                              826.03   831.28   930.16   977.95   987.13
                             1040.61  1111.20  1139.40  1185.99  1196.74
                             1243.27  1271.01  1338.72  1367.82  1376.63
                             1394.71  1449.89  1477.58  1499.08  1515.40
                             1523.75  1558.66  1574.72  1641.28  1683.29
                             1685.05  1737.19  1760.68  1791.37  1829.98
                             1868.20  1885.53  1905.59  1922.15  1931.45
                             1936.83  1951.10  1973.71  2002.53  2026.59
                             2033.19  2059.20  2074.60  2153.03  2182.07
                             2184.72  2189.75  2201.43  2207.94  2213.28
                             2235.26  2369.24  4326.96  4342.62  4352.93
                             4375.09  4381.84  4396.52  4400.99  4410.37
                             4466.99  4472.67  4474.35  4484.02  4486.30
                             4678.31  4735.77  5095.65  5291.41

 Zero-point correction=                           0.267518 (Hartree/Particle)
 Thermal correction to Energy=                    0.280142
 Thermal correction to Enthalpy=                  0.281086
 Thermal correction to Gibbs Free Energy=         0.226616
 Sum of electronic and zero-point Energies=           -555.311227
 Sum of electronic and thermal Energies=              -555.298603
 Sum of electronic and thermal Enthalpies=            -555.297658
 Sum of electronic and thermal Free Energies=         -555.352128

                     E (Thermal)             CV                S
                      KCal/Mol        Cal/Mol-Kelvin    Cal/Mol-Kelvin
 Total                  175.791             48.546            114.641
 Electronic               0.000              0.000              0.000
 Translational            0.889              2.981             41.456
 Rotational               0.889              2.981             31.535
 Vibrational            174.014             42.584             41.650
 Vibration     1          0.593              1.987              7.866
 Vibration     2          0.596              1.976              4.654
 Vibration     3          0.597              1.973              4.401
 Vibration     4          0.605              1.944              3.334
 Vibration     5          0.613              1.919              2.885
 Vibration     6          0.630              1.866              2.319
 Vibration     7          0.645              1.818              2.002
 Vibration     8          0.661              1.767              1.750
 Vibration     9          0.686              1.694              1.479
 Vibration    10          0.703              1.644              1.333
 Vibration    11          0.735              1.554              1.120
 Vibration    12          0.769              1.463              0.951
 Vibration    13          0.774              1.449              0.928
 Vibration    14          0.790              1.409              0.865
 Vibration    15          0.840              1.286              0.699
 Vibration    16          0.930              1.087              0.496
 Vibration    17          0.934              1.079              0.490

 Optimization completed on the basis of negligible forces.
    -- Stationary point found.
 Normal termination of Gaussian 16 at Wed Dec  9 22:42:56 2020.

 ----------------------------------------------------------------------
 # B3LYP/6-311++G(d,p) empiricaldispersion=gd3bj scf=xqc pop=npa geom=c
 heck
 ----------------------------------------------------------------------

 --------------------------------------
 CID_64499772_JID_3064_Energie_neutraal
 --------------------------------------
 Structure from the checkpoint file:  "JID_3064.chk"
 Charge =  0 Multiplicity = 1

 SCF Done:  E(RB3LYP) =  -555.734850342     A.U. after   14 cycles
 Normal termination of Gaussian 16 at Wed Dec  9 22:45:42 2020.

 ----------------------------------------------------------------------
 # B3LYP/6-311++G(d,p) empiricaldispersion=gd3bj scf=xqc pop=npa geom=c
 heck
 ----------------------------------------------------------------------

 ------------------------------------
 CID_64499772_JID_3064_Energie_kation
 ------------------------------------
 Structure from the checkpoint file:  "JID_3064.chk"
 Charge =  1 Multiplicity = 2

 SCF Done:  E(UB3LYP) =  -555.463064107     A.U. after   22 cycles
 Normal termination of Gaussian 16 at Wed Dec  9 22:51:18 2020.
 Gaussian 16:  ES64L-G16RevA.03 25-Dec-2016

 ----------------------------------------------------------------------
 # B3LYP/6-311++G(d,p) empiricaldispersion=gd3bj scf=xqc pop=npa geom=c
 heck
 ----------------------------------------------------------------------

 -----------------------------------
 CID_64499772_JID_3064_Energie_anion
 -----------------------------------
 Structure from the checkpoint file:  "JID_3064.chk"
 Charge = -1 Multiplicity = 2

                         Standard orientation:
 ---------------------------------------------------------------------
 Center     Atomic      Atomic             Coordinates (Angstroms)
 Number     Number       Type             X           Y           Z
 ---------------------------------------------------------------------
      1          6           0        4.680221   -0.653885   -0.758811
      2          6           0        3.603661   -0.717812    0.327614
      3          6           0        2.551809    0.389043    0.219125
      4          6           0        1.713809    0.369628   -1.074267
      5          6           0        0.478863    1.200164   -0.708078
      6          6           0        0.124517    0.716320    0.720833
      7          6           0        1.493273    0.348756    1.354361
      8          7           0       -0.757400   -0.452106    0.752911
      9          6           0       -2.057559   -0.315017    0.257076
     10          6           0       -2.794977    0.843134    0.051021
     11          7           0       -4.032899    0.430091   -0.362502
     12          7           0       -4.148625   -0.904426   -0.453659
     13          6           0       -2.954604   -1.365062   -0.077472
     14          1           0        4.247604   -0.776080   -1.758099
     15          1           0        5.430196   -1.440802   -0.622580
     16          1           0        5.201339    0.311247   -0.739180
     17          1           0        3.094909   -1.692374    0.286472
     18          1           0        4.079737   -0.664746    1.316359
     19          1           0        3.069583    1.358950    0.260585
     20          1           0        2.253040    0.756148   -1.944496
     21          1           0        1.417329   -0.663290   -1.311215
     22          1           0       -0.359753    1.086776   -1.401273
     23          1           0        0.748226    2.264821   -0.681170
     24          1           0       -0.383940    1.500799    1.292279
     25          1           0        1.426977   -0.652069    1.797950
     26          1           0        1.754288    1.029682    2.170076
     27          1           0       -0.301458   -1.287728    0.401195
     28          1           0       -2.547314    1.887063    0.163289
     29          1           0       -4.823170    1.006168   -0.605130
     30          1           0       -2.769198   -2.431093   -0.050725
 ---------------------------------------------------------------------

 SCF Done:  E(UB3LYP) =  -555.722061760     A.U. after   33 cycles
 SCF Done:  E(UB3LYP) =  -555.722061760     a.u. after    1 cycles

 The electronic state is 2-A.
 Alpha  occ. eigenvalues --  -14.28179 -14.23312 -14.22083 -10.10640 -10.10377
 Alpha  occ. eigenvalues --  -10.09846 -10.08783 -10.07428 -10.07226 -10.06891
 Alpha  occ. eigenvalues --  -10.06727 -10.06487 -10.06366  -0.94691  -0.83335
 Alpha  occ. eigenvalues --   -0.74057  -0.71522  -0.67985  -0.65949  -0.61528
 Alpha  occ. eigenvalues --   -0.59629  -0.52432  -0.51343  -0.49829  -0.47463
 Alpha  occ. eigenvalues --   -0.46183  -0.44808  -0.39836  -0.37867  -0.37040
 Alpha  occ. eigenvalues --   -0.35979  -0.34963  -0.34329  -0.33485  -0.31853
 Alpha  occ. eigenvalues --   -0.31176  -0.29688  -0.28219  -0.27192  -0.25859
 Alpha  occ. eigenvalues --   -0.25093  -0.24177  -0.22613  -0.22496  -0.21980
 Alpha  occ. eigenvalues --   -0.20442  -0.19773  -0.15886  -0.10220   0.04189
 Alpha virt. eigenvalues --    0.05689   0.06858   0.07472   0.07833   0.08779
 Alpha virt. eigenvalues --    0.09571   0.09794   0.10389   0.10574   0.10812
 Alpha virt. eigenvalues --    0.11196   0.11922   0.12687   0.13394   0.13482

  Beta  occ. eigenvalues --  -14.28142 -14.23310 -14.22078 -10.10634 -10.10379
  Beta  occ. eigenvalues --  -10.09824 -10.08779 -10.07415 -10.07212 -10.06881
  Beta  occ. eigenvalues --  -10.06712 -10.06456 -10.06350  -0.94660  -0.83321
  Beta  occ. eigenvalues --   -0.74030  -0.71477  -0.67956  -0.65914  -0.61495
  Beta  occ. eigenvalues --   -0.59586  -0.52372  -0.51281  -0.49804  -0.47418
  Beta  occ. eigenvalues --   -0.46130  -0.44755  -0.39782  -0.37843  -0.36997
  Beta  occ. eigenvalues --   -0.35946  -0.34930  -0.34304  -0.33460  -0.31820
  Beta  occ. eigenvalues --   -0.31135  -0.29660  -0.28178  -0.27170  -0.25830
  Beta  occ. eigenvalues --   -0.25066  -0.24142  -0.22587  -0.22454  -0.21950
  Beta  occ. eigenvalues --   -0.20425  -0.19760  -0.15870  -0.10206
  Beta virt. eigenvalues --    0.06255   0.07244   0.07368   0.07986   0.08370
  Beta virt. eigenvalues --    0.09479   0.09788   0.10082   0.10541   0.10822
  Beta virt. eigenvalues --    0.11122   0.11725   0.12136   0.12896   0.13546

 Mulliken charges and spin densities:
               1          2
     1  C    0.988221  -1.656087
     2  C   -1.007248   0.753922
     3  C    0.328090   0.276309
     4  C    0.420535  -1.125903
     5  C   -0.244442  -0.087610
     6  C    0.079049   0.261817
     7  C    0.084708  -1.158368
     8  N    0.021768   0.001691
     9  C    0.619902  -0.908145
    10  C    0.126105  -0.461678
    11  N    0.129698  -0.113759
    12  N   -0.311823   0.068381
    13  C   -0.312782   0.306999
    14  H   -0.042424   0.186583
    15  H   -0.319214   0.456065
    16  H   -0.256278   0.396974
    17  H   -0.023263   0.136198
    18  H   -0.078473   0.220672
    19  H   -0.088684   0.265501
    20  H    0.093356   0.072801
    21  H   -0.167197   0.329709
    22  H    0.224616  -0.047596
    23  H   -0.433203   0.590563
    24  H    0.238810  -0.007359
    25  H    0.041651   0.145312
    26  H   -0.235164   0.395780
    27  H    0.309184  -0.106723
    28  H   -0.967272   1.126517
    29  H   -0.286323   0.613410
    30  H    0.068097   0.068026
 Sum of Mulliken charges =  -1.00000   1.00000

 Dipole moment (field-independent basis, Debye):
    X=              0.9104    Y=             -3.6946    Z=              0.7023  Tot=              3.8694
 Quadrupole moment (field-independent basis, Debye-Ang):
   XX=           -188.5244   YY=           -120.0360   ZZ=           -111.4328
   XY=              6.4011   XZ=             -1.4985   YZ=             -0.9217

 Summary of Natural Population Analysis:

                                       Natural Population
                Natural  -----------------------------------------------
    Atom  No    Charge         Core      Valence    Rydberg      Total
 -----------------------------------------------------------------------
      C    1   -0.28342      0.99967     2.27943    0.00432     3.28342
      C    2   -0.18507      0.99962     2.17621    0.00924     3.18507
      C    3   -0.11179      0.99959     2.10127    0.01092     3.11179
      C    4   -0.19291      0.99962     2.18404    0.00925     3.19291
      C    5   -0.19964      0.99962     2.19150    0.00852     3.19964
      C    6   -0.00936      0.99960     1.99686    0.01290     3.00936
      C    7   -0.19025      0.99961     2.18046    0.01018     3.19025
      N    8   -0.32005      0.99968     2.80993    0.01043     3.82005
      C    9    0.03264      0.99949     1.95585    0.01202     2.96736
      C   10   -0.04584      0.99953     2.03440    0.01190     3.04584
      N   11   -0.16668      0.99971     2.65214    0.01482     3.66668
      N   12   -0.15390      0.99974     2.63992    0.01424     3.65390
      C   13   -0.03255      0.99959     2.01957    0.01339     3.03255
      H   14    0.09636      0.00000     0.40243    0.00120     0.40364
      H   15    0.09781      0.00000     0.40107    0.00112     0.40219
      H   16    0.09716      0.00000     0.40143    0.00142     0.40284
      H   17    0.09040      0.00000     0.40842    0.00118     0.40960
      H   18    0.09593      0.00000     0.40300    0.00107     0.40407
      H   19    0.09556      0.00000     0.40272    0.00172     0.40444
      H   20    0.10380      0.00000     0.39528    0.00092     0.39620
      H   21    0.08987      0.00000     0.40869    0.00144     0.41013
      H   22    0.10556      0.00000     0.39331    0.00114     0.39444
      H   23    0.09935      0.00000     0.39905    0.00160     0.40065
      H   24    0.09708      0.00000     0.40122    0.00170     0.40292
      H   25    0.09847      0.00000     0.40000    0.00153     0.40153
      H   26    0.10522      0.00000     0.39388    0.00090     0.39478
      H   27    0.17882      0.00000     0.31834    0.00284     0.32118
      H   28    0.11081      0.00000     0.38655    0.00264     0.38919
      H   29    0.20191      0.00000     0.29152    0.00657     0.29809
      H   30    0.09471      0.00000     0.40437    0.00092     0.40529
 =======================================================================
   * Total *    0.00000     12.99508    35.83288    0.17204    49.00000

 Normal termination of Gaussian 16 at Wed Dec  9 22:59:38 2020.
