 Gaussian 16, Revision A.03,

 -----------------------------------------------------------
 # opt freq B3LYP/6-31G(d) empiricaldispersion=gd3bj scf=xqc
 -----------------------------------------------------------

 -------------------------------
 CID_130251676_JID_1643_neutraal
 -------------------------------
 Symbolic Z-matrix:
 Charge =  0 Multiplicity = 1

 SCF Done:  E(RB3LYP) =  -802.580567543     A.U. after   14 cycles
 SCF Done:  E(RB3LYP) =  -802.583033468     A.U. after   12 cycles
 SCF Done:  E(RB3LYP) =  -802.583285695     A.U. after   11 cycles
 SCF Done:  E(RB3LYP) =  -802.583383205     A.U. after   11 cycles
 SCF Done:  E(RB3LYP) =  -802.583418171     A.U. after   10 cycles
 SCF Done:  E(RB3LYP) =  -802.583444401     A.U. after   10 cycles
 SCF Done:  E(RB3LYP) =  -802.583447877     A.U. after    8 cycles
 SCF Done:  E(RB3LYP) =  -802.583448333     A.U. after    7 cycles
 SCF Done:  E(RB3LYP) =  -802.583449234     A.U. after    8 cycles
 SCF Done:  E(RB3LYP) =  -802.583450575     A.U. after    9 cycles
 SCF Done:  E(RB3LYP) =  -802.583712967     A.U. after   12 cycles
 SCF Done:  E(RB3LYP) =  -802.583713428     A.U. after   10 cycles
 SCF Done:  E(RB3LYP) =  -802.583714886     A.U. after    9 cycles
 SCF Done:  E(RB3LYP) =  -802.583715317     A.U. after    8 cycles
 SCF Done:  E(RB3LYP) =  -802.583715350     A.U. after    6 cycles
 Optimization completed.
    -- Stationary point found.
 Normal termination of Gaussian 16 at Tue Dec  8 20:39:30 2020.

 --------------------------------------------------------------------
 #N Geom=AllCheck Guess=TCheck SCRF=Check GenChk RB3LYP/6-31G(d) Freq
 --------------------------------------------------------------------

 Structure from the checkpoint file:  "JID_1643.chk"
 -------------------------------
 CID_130251676_JID_1643_neutraal
 -------------------------------
 Charge =  0 Multiplicity = 1

 SCF Done:  E(RB3LYP) =  -802.583715350     A.U. after    1 cycles

  Exact polarizability: 160.273   2.925 119.394  -1.771   1.096  64.393
 Approx polarizability: 228.480   7.633 201.434  -4.320   3.085 100.932

                      1                      2                      3
                      A                      A                      A
 Frequencies --     53.8952                67.7177               109.5206
 Red. masses --      1.0541                 2.9611                 2.8333
 Frc consts  --      0.0018                 0.0080                 0.0200
 IR Inten    --      0.5435                 1.9746                 0.0398

                      4                      5                      6
                      A                      A                      A
 Frequencies --    184.8753               240.5805               269.4827
 Red. masses --      5.4736                 3.6042                 2.5315
 Frc consts  --      0.1102                 0.1229                 0.1083
 IR Inten    --      2.5721                 1.9080                 0.7354

                      7                      8                      9
                      A                      A                      A
 Frequencies --    344.0209               364.3340               404.6792
 Red. masses --      2.1749                 5.4668                 5.4847
 Frc consts  --      0.1517                 0.4275                 0.5292
 IR Inten    --      0.2780                 0.1652                 0.2215

                     10                     11                     12
                      A                      A                      A
 Frequencies --    417.8023               450.6449               495.4314
 Red. masses --      3.1013                 3.7910                 5.1720
 Frc consts  --      0.3190                 0.4536                 0.7480
 IR Inten    --      1.0893                 0.0856                 3.6056

                     13                     14                     15
                      A                      A                      A
 Frequencies --    555.6992               596.3376               674.3369
 Red. masses --      2.5950                 3.5293                 4.5540
 Frc consts  --      0.4721                 0.7395                 1.2201
 IR Inten    --      0.7874                 0.8844                 1.4750

                     16                     17                     18
                      A                      A                      A
 Frequencies --    695.4617               732.1420               757.0629
 Red. masses --      7.2853                 4.1243                 4.8141
 Frc consts  --      2.0761                 1.3025                 1.6257
 IR Inten    --      6.5498                 1.1838                 2.9149

                     19                     20                     21
                      A                      A                      A
 Frequencies --    825.5586               869.6086               897.9738
 Red. masses --      1.2569                 1.4534                 3.4454
 Frc consts  --      0.5047                 0.6475                 1.6369
 IR Inten    --     15.2313                 1.3982                17.1251

                     22                     23                     24
                      A                      A                      A
 Frequencies --    910.8415               955.2191               970.0454
 Red. masses --      2.6956                 2.3634                 1.3187
 Frc consts  --      1.3176                 1.2706                 0.7311
 IR Inten    --      2.2144                17.9595                 0.3504

                     25                     26                     27
                      A                      A                      A
 Frequencies --   1032.9327              1062.1101              1064.4187
 Red. masses --      1.4968                 1.7088                 2.0848
 Frc consts  --      0.9409                 1.1358                 1.3917
 IR Inten    --      2.2130                 1.7693                 2.7110

                     28                     29                     30
                      A                      A                      A
 Frequencies --   1073.2593              1120.8127              1164.9666
 Red. masses --      1.5599                 3.0990                 1.1672
 Frc consts  --      1.0587                 2.2937                 0.9333
 IR Inten    --      5.3954                34.5960                 2.0551

                     31                     32                     33
                      A                      A                      A
 Frequencies --   1177.1830              1212.3429              1251.0805
 Red. masses --      1.3818                 1.3792                 2.5046
 Frc consts  --      1.1282                 1.1944                 2.3097
 IR Inten    --      8.4066                 5.6708                10.3198

                     34                     35                     36
                      A                      A                      A
 Frequencies --   1277.9101              1296.2009              1315.8418
 Red. masses --      2.5407                 1.3613                 4.0564
 Frc consts  --      2.4446                 1.3476                 4.1381
 IR Inten    --     10.6114                31.5465                 0.9255

                     37                     38                     39
                      A                      A                      A
 Frequencies --   1344.5245              1373.8804              1395.3830
 Red. masses --      1.2930                 2.0280                 1.4232
 Frc consts  --      1.3772                 2.2553                 1.6327
 IR Inten    --     15.7973                24.4093                 1.4814

                     40                     41                     42
                      A                      A                      A
 Frequencies --   1424.6330              1438.1182              1491.8181
 Red. masses --      2.2458                 1.2776                 2.5254
 Frc consts  --      2.6855                 1.5568                 3.3114
 IR Inten    --     45.3014                 4.9997                71.9713

                     43                     44                     45
                      A                      A                      A
 Frequencies --   1506.1441              1506.8512              1513.5584
 Red. masses --      1.0464                 1.1745                 1.1256
 Frc consts  --      1.3985                 1.5713                 1.5193
 IR Inten    --      5.8903                22.9653                18.0359

                     46                     47                     48
                      A                      A                      A
 Frequencies --   1519.7322              1522.2425              1618.8987
 Red. masses --      1.1375                 1.1010                 4.9004
 Frc consts  --      1.5479                 1.5031                 7.5670
 IR Inten    --     12.1570                 1.2062                47.4865

                     49                     50                     51
                      A                      A                      A
 Frequencies --   1645.6126              3017.0131              3050.5598
 Red. masses --      6.8150                 1.0691                 1.0619
 Frc consts  --     10.8736                 5.7337                 5.8220
 IR Inten    --     79.0512                24.5080                28.2517

                     52                     53                     54
                      A                      A                      A
 Frequencies --   3057.0546              3066.5211              3075.7820
 Red. masses --      1.0358                 1.0634                 1.0921
 Frc consts  --      5.7033                 5.8918                 6.0872
 IR Inten    --     21.0688                21.7725                32.9866

                     55                     56                     57
                      A                      A                      A
 Frequencies --   3096.7364              3117.1081              3121.7255
 Red. masses --      1.1007                 1.1009                 1.1058
 Frc consts  --      6.2193                 6.3022                 6.3490
 IR Inten    --     35.8578                12.7243                15.9762

                     58                     59                     60
                      A                      A                      A
 Frequencies --   3137.9381              3174.0328              3208.7425
 Red. masses --      1.1032                 1.0889                 1.0937
 Frc consts  --      6.4003                 6.4635                 6.6346
 IR Inten    --     18.0941                16.0295                17.7947

 - Thermochemistry -
 -------------------
 Temperature   298.150 Kelvin.  Pressure   1.00000 Atm.
 Atom     1 has atomic number  6 and mass  12.00000

 Molecular mass:   165.06122 amu.
 Principal axes and moments of inertia in atomic units:
                           1         2         3
     Eigenvalues --   929.084792477.857903325.30756
           X            0.99966  -0.02620  -0.00080
           Y            0.02620   0.99966   0.00060
           Z            0.00078  -0.00062   1.00000
 This molecule is an asymmetric top.
 Rotational symmetry number  1.
 Warning -- assumption of classical behavior for rotation
           may cause significant error
 Rotational temperatures (Kelvin)      0.09322     0.03496     0.02605
 Rotational constants (GHZ):           1.94249     0.72835     0.54273
 Zero-point vibrational energy     480402.0 (Joules/Mol)
                                  114.81883 (Kcal/Mol)
 Warning -- explicit consideration of  14 degrees of freedom as
           vibrations may cause significant error
 Vibrational temperatures:     77.54    97.43   157.58   265.99   346.14
          (Kelvin)            387.73   494.97   524.20   582.24   601.12
                              648.38   712.82   799.53   858.00   970.22
                             1000.61  1053.39  1089.24  1187.79  1251.17
                             1291.98  1310.50  1374.35  1395.68  1486.16
                             1528.14  1531.46  1544.18  1612.60  1676.13
                             1693.70  1744.29  1800.03  1838.63  1864.94
                             1893.20  1934.47  1976.71  2007.64  2049.73
                             2069.13  2146.39  2167.01  2168.02  2177.67
                             2186.56  2190.17  2329.23  2367.67  4340.81
                             4389.08  4398.42  4412.04  4425.36  4455.51
                             4484.82  4491.47  4514.79  4566.73  4616.66

 Zero-point correction=                           0.182975 (Hartree/Particle)
 Thermal correction to Energy=                    0.192911
 Thermal correction to Enthalpy=                  0.193855
 Thermal correction to Gibbs Free Energy=         0.146892
 Sum of electronic and zero-point Energies=           -802.400740
 Sum of electronic and thermal Energies=              -802.390804
 Sum of electronic and thermal Enthalpies=            -802.389860
 Sum of electronic and thermal Free Energies=         -802.436823

                     E (Thermal)             CV                S
                      KCal/Mol        Cal/Mol-Kelvin    Cal/Mol-Kelvin
 Total                  121.054             38.093             98.842
 Electronic               0.000              0.000              0.000
 Translational            0.889              2.981             41.212
 Rotational               0.889              2.981             30.416
 Vibrational            119.276             32.132             27.214
 Vibration     1          0.596              1.976              4.669
 Vibration     2          0.598              1.970              4.219
 Vibration     3          0.606              1.942              3.277
 Vibration     4          0.631              1.860              2.279
 Vibration     5          0.658              1.778              1.799
 Vibration     6          0.674              1.729              1.600
 Vibration     7          0.723              1.587              1.193
 Vibration     8          0.738              1.546              1.104
 Vibration     9          0.770              1.460              0.946
 Vibration    10          0.781              1.432              0.899
 Vibration    11          0.809              1.359              0.794
 Vibration    12          0.851              1.260              0.670
 Vibration    13          0.911              1.127              0.532
 Vibration    14          0.954              1.040              0.456

 Optimization completed.
    -- Stationary point found.
 Normal termination of Gaussian 16 at Tue Dec  8 20:44:09 2020.

 ----------------------------------------------------------------------
 # B3LYP/6-311++G(d,p) empiricaldispersion=gd3bj scf=xqc pop=npa geom=c
 heck
 ----------------------------------------------------------------------

 ---------------------------------------
 CID_130251676_JID_1643_Energie_neutraal
 ---------------------------------------
 Structure from the checkpoint file:  "JID_1643.chk"
 Charge =  0 Multiplicity = 1

 SCF Done:  E(RB3LYP) =  -802.713244957     A.U. after   15 cycles
 Normal termination of Gaussian 16 at Tue Dec  8 20:46:44 2020.

 ----------------------------------------------------------------------
 # B3LYP/6-311++G(d,p) empiricaldispersion=gd3bj scf=xqc pop=npa geom=c
 heck
 ----------------------------------------------------------------------

 -------------------------------------
 CID_130251676_JID_1643_Energie_kation
 -------------------------------------
 Structure from the checkpoint file:  "JID_1643.chk"
 Charge =  1 Multiplicity = 2

 SCF Done:  E(UB3LYP) =  -802.429292776     A.U. after   20 cycles
 Normal termination of Gaussian 16 at Tue Dec  8 20:51:10 2020.
 Gaussian 16:  ES64L-G16RevA.03 25-Dec-2016

 ----------------------------------------------------------------------
 # B3LYP/6-311++G(d,p) empiricaldispersion=gd3bj scf=xqc pop=npa geom=c
 heck
 ----------------------------------------------------------------------

 ------------------------------------
 CID_130251676_JID_1643_Energie_anion
 ------------------------------------
 Structure from the checkpoint file:  "JID_1643.chk"
 Charge = -1 Multiplicity = 2

                         Standard orientation:
 ---------------------------------------------------------------------
 Center     Atomic      Atomic             Coordinates (Angstroms)
 Number     Number       Type             X           Y           Z
 ---------------------------------------------------------------------
      1          6           0        3.657762   -0.856284   -0.091682
      2          6           0        2.324063   -0.159085   -0.023986
      3          7           0        1.240659   -0.947781   -0.012487
      4          6           0        0.028447   -0.392811    0.048457
      5          6           0       -0.197645    0.997009    0.092257
      6          6           0       -1.575947    1.616414    0.156972
      7          6           0       -2.665375    0.756056   -0.487614
      8          6           0       -2.781046   -0.599637    0.202748
      9         16           0       -1.264363   -1.621129    0.026297
     10          6           0        0.943477    1.798692    0.072939
     11          6           0        2.214546    1.233381    0.020698
     12          1           0        3.777944   -1.532213    0.762050
     13          1           0        4.486205   -0.141952   -0.092916
     14          1           0        3.721582   -1.469651   -0.997242
     15          1           0       -1.545697    2.601779   -0.322988
     16          1           0       -1.847717    1.798470    1.207660
     17          1           0       -2.451150    0.611618   -1.553049
     18          1           0       -3.629378    1.274491   -0.414352
     19          1           0       -3.006176   -0.467930    1.266494
     20          1           0       -3.581557   -1.201888   -0.236645
     21          1           0        0.828620    2.880554    0.096404
     22          1           0        3.102826    1.856850    0.006505
 ---------------------------------------------------------------------

 SCF Done:  E(UB3LYP) =  -802.699046548     A.U. after   33 cycles
 SCF Done:  E(UB3LYP) =  -802.699046548     a.u. after    2 cycles

 The electronic state is 2-A.
 Alpha  occ. eigenvalues --  -88.74098 -14.19548 -10.12769 -10.10408 -10.09518
 Alpha  occ. eigenvalues --  -10.07686 -10.07457 -10.07005 -10.06958 -10.06716
 Alpha  occ. eigenvalues --  -10.06639  -7.82737  -5.79114  -5.78734  -5.78147
 Alpha  occ. eigenvalues --   -0.84230  -0.73307  -0.70004  -0.67238  -0.63907
 Alpha  occ. eigenvalues --   -0.60625  -0.54035  -0.51833  -0.50227  -0.45916
 Alpha  occ. eigenvalues --   -0.39575  -0.38355  -0.36702  -0.33950  -0.33179
 Alpha  occ. eigenvalues --   -0.31849  -0.31444  -0.30781  -0.28906  -0.28305
 Alpha  occ. eigenvalues --   -0.27723  -0.26537  -0.24735  -0.22573  -0.21031
 Alpha  occ. eigenvalues --   -0.18949  -0.15922  -0.15261  -0.10861   0.04692
 Alpha virt. eigenvalues --    0.06450   0.06946   0.07743   0.08864   0.09033
 Alpha virt. eigenvalues --    0.09378   0.09803   0.10993   0.11296   0.11735
 Alpha virt. eigenvalues --    0.12282   0.12747   0.14064   0.14448   0.15260

  Beta  occ. eigenvalues --  -88.74097 -14.19503 -10.12776 -10.10344 -10.09491
  Beta  occ. eigenvalues --  -10.07644 -10.07381 -10.06972 -10.06935 -10.06709
  Beta  occ. eigenvalues --  -10.06645  -7.82737  -5.79112  -5.78732  -5.78147
  Beta  occ. eigenvalues --   -0.84145  -0.73238  -0.69908  -0.67160  -0.63851
  Beta  occ. eigenvalues --   -0.60570  -0.53975  -0.51771  -0.50083  -0.45836
  Beta  occ. eigenvalues --   -0.39515  -0.38283  -0.36643  -0.33876  -0.33038
  Beta  occ. eigenvalues --   -0.31783  -0.31387  -0.30728  -0.28855  -0.28212
  Beta  occ. eigenvalues --   -0.27657  -0.26481  -0.24651  -0.22519  -0.20995
  Beta  occ. eigenvalues --   -0.18772  -0.15637  -0.15198  -0.10767
  Beta virt. eigenvalues --    0.07009   0.07450   0.07611   0.08438   0.09159
  Beta virt. eigenvalues --    0.09636   0.09895   0.10514   0.11236   0.11672
  Beta virt. eigenvalues --    0.11962   0.12729   0.12991   0.14216   0.14717

 Mulliken charges and spin densities:
               1          2
     1  C    1.114219  -1.631810
     2  C   -0.284392   0.515385
     3  N    0.104228   0.094806
     4  C   -1.822076   0.715575
     5  C    0.978728   0.266535
     6  C    0.575622  -0.708266
     7  C   -0.088218  -0.128388
     8  C    0.165837  -0.778653
     9  S    0.087271  -0.429870
    10  C    0.684905  -1.337083
    11  C    0.260866  -0.215442
    12  H    0.055052   0.097246
    13  H   -0.145550   0.290413
    14  H    0.130954   0.017687
    15  H   -0.102524   0.247087
    16  H   -0.183414   0.375966
    17  H    0.156831  -0.010746
    18  H   -0.935449   1.118130
    19  H   -0.040821   0.254235
    20  H   -0.302122   0.501695
    21  H   -0.751931   0.921063
    22  H   -0.658016   0.824435
 Sum of Mulliken charges =  -1.00000   1.00000

 Dipole moment (field-independent basis, Debye):
    X=              2.7458    Y=             -3.8924    Z=             -1.3715  Tot=              4.9570
 Quadrupole moment (field-independent basis, Debye-Ang):
   XX=           -143.6049   YY=           -118.0606   ZZ=            -96.3154
   XY=              1.6331   XZ=              0.9537   YZ=             -2.7357

 Summary of Natural Population Analysis:

                                       Natural Population
                Natural  -----------------------------------------------
    Atom  No    Charge         Core      Valence    Rydberg      Total
 -----------------------------------------------------------------------
      C    1   -0.29791      0.99964     2.29186    0.00642     3.29791
      C    2    0.11843      0.99955     1.86871    0.01332     2.88157
      N    3   -0.25143      0.99962     2.74011    0.01170     3.75143
      C    4    0.04096      0.99941     1.94159    0.01803     2.95904
      C    5   -0.04429      0.99944     2.03388    0.01097     3.04429
      C    6   -0.19591      0.99960     2.18586    0.01044     3.19591
      C    7   -0.19333      0.99962     2.18365    0.01007     3.19333
      C    8   -0.24822      0.99959     2.23768    0.01095     3.24822
      S    9    0.12554      4.99955     2.85568    0.01923     7.87446
      C   10   -0.05882      0.99952     2.04920    0.01011     3.05882
      C   11   -0.13315      0.99951     2.12394    0.00971     3.13315
      H   12    0.10615      0.00000     0.39272    0.00113     0.39385
      H   13    0.09913      0.00000     0.40009    0.00078     0.40087
      H   14    0.10454      0.00000     0.39447    0.00099     0.39546
      H   15    0.10424      0.00000     0.39440    0.00136     0.39576
      H   16    0.10648      0.00000     0.39078    0.00275     0.39352
      H   17    0.09714      0.00000     0.40148    0.00139     0.40286
      H   18    0.10844      0.00000     0.38694    0.00462     0.39156
      H   19    0.10070      0.00000     0.39743    0.00186     0.39930
      H   20    0.10691      0.00000     0.39176    0.00133     0.39309
      H   21    0.10135      0.00000     0.39707    0.00158     0.39865
      H   22    0.10307      0.00000     0.39540    0.00153     0.39693
 =======================================================================
   * Total *    0.00000     14.99504    28.85470    0.15026    44.00000

 Normal termination of Gaussian 16 at Tue Dec  8 21:04:45 2020.
