 Gaussian 16, Revision A.03,

 -----------------------------------------------------------
 # opt freq B3LYP/6-31G(d) empiricaldispersion=gd3bj scf=xqc
 -----------------------------------------------------------

 -----------------------------
 CID_20556274_JID_260_neutraal
 -----------------------------
 Symbolic Z-matrix:
 Charge =  0 Multiplicity = 1

 SCF Done:  E(RB3LYP) =  -406.772168317     A.U. after   13 cycles
 SCF Done:  E(RB3LYP) =  -406.774532646     A.U. after   11 cycles
 SCF Done:  E(RB3LYP) =  -406.774690183     A.U. after   10 cycles
 SCF Done:  E(RB3LYP) =  -406.774706625     A.U. after    9 cycles
 SCF Done:  E(RB3LYP) =  -406.774708423     A.U. after    8 cycles
 SCF Done:  E(RB3LYP) =  -406.774708688     A.U. after    7 cycles
 Optimization completed.
    -- Stationary point found.

 1\1\GINC-NODE114\FOpt\RB3LYP\6-31G(d)\C9H15N1\VSC10255\08-Dec-2020\0\\
 # opt freq B3LYP/6-31G(d) empiricaldispersion=gd3bj scf=xqc\\CID_20556
 274_JID_260_neutraal\\0,1\C,-2.5814000735,-0.2714561169,-0.4121493307\
 C,-2.3976778439,0.9790252806,0.4574423405\C,-0.9713723339,1.4655979564
 ,0.4268578265\C,0.0601862064,0.7384978304,-0.0190507442\C,1.4613228367
 ,1.2909989106,-0.1320540074\C,2.5013328099,0.3384757378,0.4812003727\C
 ,2.3023041525,-1.0791093661,-0.072681142\N,0.9444638805,-1.5940816734,
 0.1186118128\C,-0.0898527407,-0.7126830064,-0.4579795213\C,-1.47141502

 Normal termination of Gaussian 16 at Tue Dec  8 10:20:03 2020.

 --------------------------------------------------------------------
 #N Geom=AllCheck Guess=TCheck SCRF=Check GenChk RB3LYP/6-31G(d) Freq
 --------------------------------------------------------------------

 Structure from the checkpoint file:  "JID_260.chk"
 -----------------------------
 CID_20556274_JID_260_neutraal
 -----------------------------
 Charge =  0 Multiplicity = 1

 SCF Done:  E(RB3LYP) =  -406.774708688     A.U. after    1 cycles

  Exact polarizability: 120.412   4.448  93.311  -4.397  -1.668  77.106
 Approx polarizability: 155.566  12.667 132.675 -10.468  -3.829 122.995

                      1                      2                      3
                      A                      A                      A
 Frequencies --     96.8124               142.7450               245.9081
 Red. masses --      2.5309                 2.6816                 2.2386
 Frc consts  --      0.0140                 0.0322                 0.0798
 IR Inten    --      0.0264                 2.0613                 0.2413

                      4                      5                      6
                      A                      A                      A
 Frequencies --    288.2547               322.6926               332.9312
 Red. masses --      1.8395                 2.3967                 2.3386
 Frc consts  --      0.0901                 0.1470                 0.1527
 IR Inten    --      0.5596                 2.2041                 0.5041

                      7                      8                      9
                      A                      A                      A
 Frequencies --    366.1224               421.4857               449.3455
 Red. masses --      2.0431                 3.2435                 3.7289
 Frc consts  --      0.1614                 0.3395                 0.4436
 IR Inten    --      1.5049                 0.0953                 1.7926

                     10                     11                     12
                      A                      A                      A
 Frequencies --    486.7365               550.9794               595.0908
 Red. masses --      3.3009                 2.1986                 2.3072
 Frc consts  --      0.4608                 0.3932                 0.4814
 IR Inten    --      2.0730                 0.4759                 0.5443

                     13                     14                     15
                      A                      A                      A
 Frequencies --    675.2894               747.9844               820.1324
 Red. masses --      2.3812                 2.4239                 1.7210
 Frc consts  --      0.6398                 0.7990                 0.6820
 IR Inten    --      3.3900                26.9547                34.6805

                     16                     17                     18
                      A                      A                      A
 Frequencies --    832.3750               862.1600               879.7149
 Red. masses --      1.3433                 2.2826                 1.7876
 Frc consts  --      0.5484                 0.9997                 0.8151
 IR Inten    --     25.3210                 3.6351                26.5415

                     19                     20                     21
                      A                      A                      A
 Frequencies --    885.8656               897.4625               917.7503
 Red. masses --      1.5514                 2.3239                 1.9104
 Frc consts  --      0.7173                 1.1028                 0.9480
 IR Inten    --      2.1195                 6.8121                 6.3082

                     22                     23                     24
                      A                      A                      A
 Frequencies --    966.9851               996.4369              1020.2753
 Red. masses --      1.6584                 2.2839                 1.9912
 Frc consts  --      0.9137                 1.3361                 1.2212
 IR Inten    --      9.8110                11.0028                 0.4701

                     25                     26                     27
                      A                      A                      A
 Frequencies --   1046.0002              1071.0365              1093.2924
 Red. masses --      1.9160                 1.8557                 1.5577
 Frc consts  --      1.2351                 1.2542                 1.0970
 IR Inten    --      3.9280                 0.2575                 0.3619

                     28                     29                     30
                      A                      A                      A
 Frequencies --   1109.7268              1133.0465              1138.2388
 Red. masses --      2.2560                 1.9102                 2.7634
 Frc consts  --      1.6369                 1.4448                 2.1094
 IR Inten    --      4.4125                13.8845                26.6466

                     31                     32                     33
                      A                      A                      A
 Frequencies --   1173.4661              1188.6050              1217.4226
 Red. masses --      1.4455                 1.7577                 1.5614
 Frc consts  --      1.1728                 1.4631                 1.3635
 IR Inten    --      4.1932                 0.6093                 0.5115

                     34                     35                     36
                      A                      A                      A
 Frequencies --   1240.3776              1263.7754              1288.8658
 Red. masses --      1.3777                 1.4215                 1.2675
 Frc consts  --      1.2489                 1.3376                 1.2406
 IR Inten    --      6.9368                 1.0052                 4.3179

                     37                     38                     39
                      A                      A                      A
 Frequencies --   1306.5898              1346.2204              1358.9161
 Red. masses --      1.2346                 1.2643                 1.2640
 Frc consts  --      1.2418                 1.3500                 1.3752
 IR Inten    --      1.2982                 2.8498                 7.5731

                     40                     41                     42
                      A                      A                      A
 Frequencies --   1374.3082              1384.4621              1390.4863
 Red. masses --      1.4547                 1.4372                 1.5757
 Frc consts  --      1.6188                 1.6230                 1.7950
 IR Inten    --      4.9385                 1.7114                 4.0345

                     43                     44                     45
                      A                      A                      A
 Frequencies --   1394.0775              1401.6764              1409.3731
 Red. masses --      1.4886                 1.4651                 1.4764
 Frc consts  --      1.7045                 1.6960                 1.7278
 IR Inten    --      2.3857                 8.4486                 0.6041

                     46                     47                     48
                      A                      A                      A
 Frequencies --   1410.8305              1502.9826              1505.2471
 Red. masses --      1.5318                 1.1219                 1.0933
 Frc consts  --      1.7963                 1.4932                 1.4596
 IR Inten    --      1.3670                12.4878                 5.2158

                     49                     50                     51
                      A                      A                      A
 Frequencies --   1508.4420              1517.4371              1520.4263
 Red. masses --      1.0905                 1.1006                 1.1176
 Frc consts  --      1.4619                 1.4932                 1.5222
 IR Inten    --      0.5425                 6.9952                 5.9023

                     52                     53                     54
                      A                      A                      A
 Frequencies --   1521.5156              1527.3434              1747.8490
 Red. masses --      1.1102                 1.1003                 7.4732
 Frc consts  --      1.5143                 1.5123                13.4513
 IR Inten    --      2.4773                 1.7928                 0.4520

                     55                     56                     57
                      A                      A                      A
 Frequencies --   2983.5380              2995.7828              3001.8237
 Red. masses --      1.0813                 1.0707                 1.0704
 Frc consts  --      5.6708                 5.6617                 5.6828
 IR Inten    --     16.4334                34.9329                37.6559

                     58                     59                     60
                      A                      A                      A
 Frequencies --   3019.3690              3027.6127              3031.2762
 Red. masses --      1.0706                 1.0642                 1.0626
 Frc consts  --      5.7506                 5.7477                 5.7528
 IR Inten    --     27.3218                32.8229                42.1951

                     61                     62                     63
                      A                      A                      A
 Frequencies --   3036.7984              3052.8369              3072.1620
 Red. masses --      1.0675                 1.0847                 1.0970
 Frc consts  --      5.8005                 5.9562                 6.1002
 IR Inten    --     22.6374                66.3941                73.8535

                     64                     65                     66
                      A                      A                      A
 Frequencies --   3076.1659              3084.6737              3085.3217
 Red. masses --      1.0947                 1.1022                 1.1028
 Frc consts  --      6.1033                 6.1793                 6.1853
 IR Inten    --     40.7999                46.7559                59.7006

                     67                     68                     69
                      A                      A                      A
 Frequencies --   3097.0448              3136.9520              3449.8006
 Red. masses --      1.0939                 1.0890                 1.0731
 Frc consts  --      6.1818                 6.3136                 7.5244
 IR Inten    --     43.9941                37.8669                 2.9931

 - Thermochemistry -
 -------------------
 Temperature   298.150 Kelvin.  Pressure   1.00000 Atm.
 Atom     1 has atomic number  6 and mass  12.00000

 Molecular mass:   137.12045 amu.
 Principal axes and moments of inertia in atomic units:
                           1         2         3
     Eigenvalues --   711.247071689.528682223.92662
           X            0.99992  -0.01278  -0.00150
           Y            0.01278   0.99992  -0.00171
           Z            0.00152   0.00170   1.00000
 This molecule is an asymmetric top.
 Rotational symmetry number  1.
 Warning -- assumption of classical behavior for rotation
           may cause significant error
 Rotational temperatures (Kelvin)      0.12178     0.05127     0.03895
 Rotational constants (GHZ):           2.53743     1.06819     0.81151
 Zero-point vibrational energy     604381.7 (Joules/Mol)
                                  144.45070 (Kcal/Mol)
 Warning -- explicit consideration of  12 degrees of freedom as
           vibrations may cause significant error
 Vibrational temperatures:    139.29   205.38   353.81   414.73   464.28
          (Kelvin)            479.01   526.77   606.42   646.51   700.31
                              792.74   856.20   971.59  1076.18  1179.99
                             1197.60  1240.46  1265.71  1274.56  1291.25
                             1320.44  1391.28  1433.65  1467.95  1504.96
                             1540.98  1573.00  1596.65  1630.20  1637.67
                             1688.36  1710.14  1751.60  1784.63  1818.29
                             1854.39  1879.89  1936.91  1955.18  1977.32
                             1991.93  2000.60  2005.77  2016.70  2027.77
                             2029.87  2162.46  2165.71  2170.31  2183.25
                             2187.55  2189.12  2197.51  2514.76  4292.65
                             4310.26  4318.95  4344.20  4356.06  4361.33
                             4369.28  4392.35  4420.16  4425.92  4438.16
                             4439.09  4455.96  4513.37  4963.49

 Zero-point correction=                           0.230197 (Hartree/Particle)
 Thermal correction to Energy=                    0.238724
 Thermal correction to Enthalpy=                  0.239668
 Thermal correction to Gibbs Free Energy=         0.197172
 Sum of electronic and zero-point Energies=           -406.544512
 Sum of electronic and thermal Energies=              -406.535984
 Sum of electronic and thermal Enthalpies=            -406.535040
 Sum of electronic and thermal Free Energies=         -406.577537

                     E (Thermal)             CV                S
                      KCal/Mol        Cal/Mol-Kelvin    Cal/Mol-Kelvin
 Total                  149.802             35.385             89.442
 Electronic               0.000              0.000              0.000
 Translational            0.889              2.981             40.659
 Rotational               0.889              2.981             29.370
 Vibrational            148.024             29.424             19.412
 Vibration     1          0.603              1.951              3.517
 Vibration     2          0.616              1.910              2.767
 Vibration     3          0.660              1.770              1.760
 Vibration     4          0.685              1.696              1.484
 Vibration     5          0.708              1.630              1.296
 Vibration     6          0.715              1.610              1.246
 Vibration     7          0.739              1.542              1.096
 Vibration     8          0.784              1.424              0.887
 Vibration     9          0.808              1.362              0.798
 Vibration    10          0.843              1.279              0.692
 Vibration    11          0.906              1.138              0.542
 Vibration    12          0.953              1.042              0.458

 Optimization completed.
    -- Stationary point found.

 1\1\GINC-NODE114\Freq\RB3LYP\6-31G(d)\C9H15N1\VSC10255\08-Dec-2020\0\\
 #N Geom=AllCheck Guess=TCheck SCRF=Check GenChk RB3LYP/6-31G(d) Freq\\
 CID_20556274_JID_260_neutraal\\0,1\C,-2.5814000735,-0.2714561169,-0.41
 21493307\C,-2.3976778439,0.9790252806,0.4574423405\C,-0.9713723339,1.4
 655979564,0.4268578265\C,0.0601862064,0.7384978304,-0.0190507442\C,1.4
 613228367,1.2909989106,-0.1320540074\C,2.5013328099,0.3384757378,0.481
 2003727\C,2.3023041525,-1.0791093661,-0.072681142\N,0.9444638805,-1.59
 40816734,0.1186118128\C,-0.0898527407,-0.7126830064,-0.4579795213\C,-1

 Normal termination of Gaussian 16 at Tue Dec  8 10:25:20 2020.

 ----------------------------------------------------------------------
 # B3LYP/6-311++G(d,p) empiricaldispersion=gd3bj scf=xqc pop=npa geom=c
 heck
 ----------------------------------------------------------------------

 -------------------------------------
 CID_20556274_JID_260_Energie_neutraal
 -------------------------------------
 Structure from the checkpoint file:  "JID_260.chk"
 Charge =  0 Multiplicity = 1

 SCF Done:  E(RB3LYP) =  -406.885997435     A.U. after   14 cycles
 Normal termination of Gaussian 16 at Tue Dec  8 10:27:40 2020.

 ----------------------------------------------------------------------
 # B3LYP/6-311++G(d,p) empiricaldispersion=gd3bj scf=xqc pop=npa geom=c
 heck
 ----------------------------------------------------------------------

 -----------------------------------
 CID_20556274_JID_260_Energie_kation
 -----------------------------------
 Structure from the checkpoint file:  "JID_260.chk"
 Charge =  1 Multiplicity = 2

 SCF Done:  E(UB3LYP) =  -406.591145000     A.U. after   22 cycles
 Normal termination of Gaussian 16 at Tue Dec  8 10:33:49 2020.
 Gaussian 16:  ES64L-G16RevA.03 25-Dec-2016

 ----------------------------------
 CID_20556274_JID_260_Energie_anion
 ----------------------------------
 Structure from the checkpoint file:  "JID_260.chk"
 Charge = -1 Multiplicity = 2

                         Standard orientation:
 ---------------------------------------------------------------------
 Center     Atomic      Atomic             Coordinates (Angstroms)
 Number     Number       Type             X           Y           Z
 ---------------------------------------------------------------------
      1          6           0        2.540010   -0.559315    0.313639
      2          6           0        2.469742    0.821131   -0.352003
      3          6           0        1.102247    1.436490   -0.199274
      4          6           0        0.009878    0.755922    0.168392
      5          6           0       -1.324175    1.421043    0.411554
      6          6           0       -2.468776    0.681161   -0.300810
      7          6           0       -2.406680   -0.816977    0.027323
      8          7           0       -1.113321   -1.428961   -0.286073
      9          6           0        0.017555   -0.752860    0.379614
     10          6           0        1.325976   -1.400051   -0.084550
     11          1           0        3.469993   -1.070829    0.039261
     12          1           0        2.554170   -0.433609    1.404880
     13          1           0        3.225703    1.492276    0.077746
     14          1           0        2.725897    0.734033   -1.420202
     15          1           0        1.020549    2.509843   -0.376340
     16          1           0       -1.533148    1.406357    1.493954
     17          1           0       -1.287088    2.475341    0.113042
     18          1           0       -3.439883    1.102357   -0.009579
     19          1           0       -2.370875    0.814483   -1.387518
     20          1           0       -2.592980   -0.966208    1.100450
     21          1           0       -3.186817   -1.368158   -0.510603
     22          1           0       -0.963153   -1.358999   -1.293926
     23          1           0       -0.112695   -0.945665    1.457483
     24          1           0        1.302519   -1.488844   -1.181248
     25          1           0        1.386399   -2.418921    0.311798
 ---------------------------------------------------------------------

 SCF Done:  E(UB3LYP) =  -406.866992900     A.U. after   32 cycles

 The electronic state is 2-A.
 Alpha  occ. eigenvalues --  -14.18789 -10.08819 -10.08047 -10.05802 -10.05765
 Alpha  occ. eigenvalues --  -10.05697 -10.05631 -10.05580 -10.05447 -10.05009
 Alpha  occ. eigenvalues --   -0.80647  -0.71600  -0.67890  -0.63304  -0.61841
 Alpha  occ. eigenvalues --   -0.53821  -0.51140  -0.49805  -0.46319  -0.41401
 Alpha  occ. eigenvalues --   -0.37645  -0.35887  -0.34836  -0.34220  -0.31988
 Alpha  occ. eigenvalues --   -0.31369  -0.28842  -0.28234  -0.26949  -0.26529
 Alpha  occ. eigenvalues --   -0.25762  -0.24231  -0.23118  -0.22475  -0.20918
 Alpha  occ. eigenvalues --   -0.19531  -0.13175  -0.11445   0.05001
 Alpha virt. eigenvalues --    0.06974   0.07974   0.08007   0.09429   0.09451
 Alpha virt. eigenvalues --    0.09976   0.10629   0.11353   0.11644   0.12478
 Alpha virt. eigenvalues --    0.12711   0.13210   0.13281   0.14259   0.15106

  Beta  occ. eigenvalues --  -14.18779 -10.08808 -10.08026 -10.05780 -10.05747
  Beta  occ. eigenvalues --  -10.05675 -10.05628 -10.05565 -10.05420 -10.04971
  Beta  occ. eigenvalues --   -0.80622  -0.71557  -0.67848  -0.63259  -0.61784
  Beta  occ. eigenvalues --   -0.53764  -0.51088  -0.49735  -0.46247  -0.41345
  Beta  occ. eigenvalues --   -0.37585  -0.35849  -0.34788  -0.34180  -0.31939
  Beta  occ. eigenvalues --   -0.31321  -0.28792  -0.28192  -0.26908  -0.26484
  Beta  occ. eigenvalues --   -0.25717  -0.24190  -0.23071  -0.22429  -0.20882
  Beta  occ. eigenvalues --   -0.19489  -0.13090  -0.11401
  Beta virt. eigenvalues --    0.07314   0.08103   0.08479   0.08739   0.10083
  Beta virt. eigenvalues --    0.10208   0.10432   0.10983   0.11581   0.12285
  Beta virt. eigenvalues --    0.12947   0.12961   0.13582   0.13715   0.14510

 Mulliken charges and spin densities:
               1          2
     1  C   -0.569756   0.302597
     2  C    2.456726  -3.124991
     3  C   -2.056398   1.683952
     4  C    1.051545   0.088448
     5  C    0.651662  -0.978910
     6  C    0.663573  -1.043782
     7  C    0.473847  -0.774623
     8  N    0.014879   0.123195
     9  C   -1.392792   0.144868
    10  C    0.586652  -0.614825
    11  H   -0.418061   0.584943
    12  H    0.112080   0.005671
    13  H   -0.417474   0.564882
    14  H   -0.034938   0.175942
    15  H   -0.581868   0.743773
    16  H   -0.086789   0.233102
    17  H   -0.272635   0.427718
    18  H   -0.458776   0.608294
    19  H   -0.050220   0.178740
    20  H   -0.054630   0.187988
    21  H   -0.477641   0.661226
    22  H    0.201728   0.008843
    23  H   -0.149322   0.324365
    24  H   -0.102664   0.214077
    25  H   -0.088728   0.274509
 Sum of Mulliken charges =  -1.00000   1.00000

 Dipole moment (field-independent basis, Debye):
    X=              0.4746    Y=             -1.5043    Z=              0.1591  Tot=              1.5854
 Quadrupole moment (field-independent basis, Debye-Ang):
   XX=           -130.7276   YY=           -105.2980   ZZ=            -89.0184
   XY=             -0.2615   XZ=              1.9192   YZ=             -0.7803

 Summary of Natural Population Analysis:

                                       Natural Population
                Natural  -----------------------------------------------
    Atom  No    Charge         Core      Valence    Rydberg      Total
 -----------------------------------------------------------------------
      C    1   -0.18701      0.99963     2.17911    0.00827     3.18701
      C    2   -0.20245      0.99962     2.19383    0.00900     3.20245
      C    3   -0.08618      0.99945     2.07664    0.01008     3.08618
      C    4   -0.01700      0.99947     2.00604    0.01150     3.01700
      C    5   -0.19944      0.99959     2.18972    0.01013     3.19944
      C    6   -0.19396      0.99963     2.18638    0.00795     3.19396
      C    7   -0.08797      0.99963     2.07642    0.01191     3.08797
      N    8   -0.33516      0.99975     2.82328    0.01212     3.83516
      C    9   -0.01830      0.99953     2.00662    0.01215     3.01830
      C   10   -0.18808      0.99962     2.17844    0.01002     3.18808
      H   11    0.09917      0.00000     0.39933    0.00150     0.40083
      H   12    0.09364      0.00000     0.40495    0.00140     0.40636
      H   13    0.10088      0.00000     0.39768    0.00144     0.39912
      H   14    0.09945      0.00000     0.39879    0.00176     0.40055
      H   15    0.09418      0.00000     0.40429    0.00153     0.40582
      H   16    0.09802      0.00000     0.40032    0.00166     0.40198
      H   17    0.10137      0.00000     0.39666    0.00197     0.39863
      H   18    0.10013      0.00000     0.39754    0.00233     0.39987
      H   19    0.09183      0.00000     0.40656    0.00161     0.40817
      H   20    0.08809      0.00000     0.41035    0.00156     0.41191
      H   21    0.09502      0.00000     0.40382    0.00116     0.40498
      H   22    0.16650      0.00000     0.33029    0.00322     0.33350
      H   23    0.09298      0.00000     0.40531    0.00171     0.40702
      H   24    0.09266      0.00000     0.40591    0.00143     0.40734
      H   25    0.10162      0.00000     0.39720    0.00117     0.39838
 =======================================================================
   * Total *    0.00000      9.99592    27.87548    0.12859    38.00000

 Normal termination of Gaussian 16 at Tue Dec  8 10:44:59 2020.
