 Gaussian 16, Revision A.03,

 -----------------------------------------------------------
 # opt freq B3LYP/6-31G(d) empiricaldispersion=gd3bj scf=xqc
 -----------------------------------------------------------

 -------------------------------
 CID_125427042_JID_2616_neutraal
 -------------------------------
 Symbolic Z-matrix:
 Charge =  0 Multiplicity = 1

 SCF Done:  E(RB3LYP) =  -552.186614062     A.U. after   14 cycles
 SCF Done:  E(RB3LYP) =  -552.189185593     A.U. after   12 cycles
 SCF Done:  E(RB3LYP) =  -552.189690370     A.U. after   13 cycles
 SCF Done:  E(RB3LYP) =  -552.190107292     A.U. after   12 cycles
 SCF Done:  E(RB3LYP) =  -552.190162266     A.U. after   11 cycles
 SCF Done:  E(RB3LYP) =  -552.190212378     A.U. after   10 cycles
 SCF Done:  E(RB3LYP) =  -552.190216245     A.U. after    8 cycles
 SCF Done:  E(RB3LYP) =  -552.190219094     A.U. after    9 cycles
 SCF Done:  E(RB3LYP) =  -552.190219878     A.U. after    8 cycles
 SCF Done:  E(RB3LYP) =  -552.190220230     A.U. after    7 cycles
 Optimization completed.
    -- Stationary point found.
 Normal termination of Gaussian 16 at Wed Dec  9 17:41:43 2020.

 --------------------------------------------------------------------
 #N Geom=AllCheck Guess=TCheck SCRF=Check GenChk RB3LYP/6-31G(d) Freq
 --------------------------------------------------------------------

 Structure from the checkpoint file:  "JID_2616.chk"
 -------------------------------
 CID_125427042_JID_2616_neutraal
 -------------------------------
 Charge =  0 Multiplicity = 1

 SCF Done:  E(RB3LYP) =  -552.190220229     A.U. after    1 cycles

  Exact polarizability: 116.871  -3.390 100.251   1.764   1.899  77.160
 Approx polarizability: 159.544  -4.102 160.186   7.205  10.510 115.526

                      1                      2                      3
                      A                      A                      A
 Frequencies --     69.0206               114.4400               148.0832
 Red. masses --      4.9222                 3.9562                 3.3136
 Frc consts  --      0.0138                 0.0305                 0.0428
 IR Inten    --      3.6208                 0.9623                 4.3896

                      4                      5                      6
                      A                      A                      A
 Frequencies --    213.4993               240.3622               257.3225
 Red. masses --      1.9935                 1.4350                 2.6061
 Frc consts  --      0.0535                 0.0488                 0.1017
 IR Inten    --     21.5467                29.2036                 2.7700

                      7                      8                      9
                      A                      A                      A
 Frequencies --    299.1060               311.8810               357.1641
 Red. masses --      3.0853                 3.0389                 4.3807
 Frc consts  --      0.1626                 0.1742                 0.3293
 IR Inten    --      1.8748                 0.8889                 9.3101

                     10                     11                     12
                      A                      A                      A
 Frequencies --    403.2055               445.0734               478.4035
 Red. masses --      2.2880                 2.9920                 5.1481
 Frc consts  --      0.2192                 0.3492                 0.6942
 IR Inten    --      3.8361                12.6021                 7.7191

                     13                     14                     15
                      A                      A                      A
 Frequencies --    519.0625               593.4238               626.9151
 Red. masses --      2.3556                 3.9422                 3.7425
 Frc consts  --      0.3739                 0.8179                 0.8666
 IR Inten    --      3.0442                 1.6412                 2.1192

                     16                     17                     18
                      A                      A                      A
 Frequencies --    634.5687               719.4995               724.7295
 Red. masses --      2.5184                 1.1490                 1.9276
 Frc consts  --      0.5975                 0.3505                 0.5965
 IR Inten    --     10.6569                14.2071                51.0552

                     19                     20                     21
                      A                      A                      A
 Frequencies --    776.0541               829.3401               848.4533
 Red. masses --      2.1753                 2.3275                 1.2500
 Frc consts  --      0.7719                 0.9432                 0.5302
 IR Inten    --     23.2500                 7.3200                15.1845

                     22                     23                     24
                      A                      A                      A
 Frequencies --    889.0037               895.9408               921.7755
 Red. masses --      2.4940                 1.5952                 2.5107
 Frc consts  --      1.1613                 0.7544                 1.2569
 IR Inten    --      8.4863                14.3690                18.0780

                     25                     26                     27
                      A                      A                      A
 Frequencies --    940.2200               950.4258               986.3470
 Red. masses --      5.2473                 2.4431                 2.6894
 Frc consts  --      2.7330                 1.3003                 1.5416
 IR Inten    --      6.5854                98.6013                59.0209

                     28                     29                     30
                      A                      A                      A
 Frequencies --   1028.1323              1038.8240              1052.7278
 Red. masses --      1.8518                 1.8309                 1.7689
 Frc consts  --      1.1533                 1.1641                 1.1550
 IR Inten    --      3.5269                31.7057                21.6835

                     31                     32                     33
                      A                      A                      A
 Frequencies --   1092.4323              1108.0992              1116.1598
 Red. masses --      1.7961                 1.5114                 4.0553
 Frc consts  --      1.2629                 1.0934                 2.9766
 IR Inten    --      1.6997                40.8935                91.5842

                     34                     35                     36
                      A                      A                      A
 Frequencies --   1132.8552              1168.7923              1189.1257
 Red. masses --      1.6889                 3.0458                 2.7619
 Frc consts  --      1.2771                 2.4514                 2.3010
 IR Inten    --     14.5491                12.7968                 6.0602

                     37                     38                     39
                      A                      A                      A
 Frequencies --   1214.0642              1227.5400              1251.3221
 Red. masses --      1.8845                 1.3832                 1.5820
 Frc consts  --      1.6365                 1.2281                 1.4595
 IR Inten    --     11.0232                18.7766                 6.8270

                     40                     41                     42
                      A                      A                      A
 Frequencies --   1268.5796              1327.7134              1339.7064
 Red. masses --      1.6771                 1.3866                 1.3956
 Frc consts  --      1.5901                 1.4402                 1.4758
 IR Inten    --      7.4869                33.0232                42.4964

                     43                     44                     45
                      A                      A                      A
 Frequencies --   1360.2865              1374.2223              1398.8764
 Red. masses --      1.4196                 1.5495                 1.6941
 Frc consts  --      1.5477                 1.7241                 1.9532
 IR Inten    --      1.7791                 0.9152                 0.2588

                     46                     47                     48
                      A                      A                      A
 Frequencies --   1403.8023              1412.0315              1434.8722
 Red. masses --      2.0341                 1.5518                 1.4005
 Frc consts  --      2.3617                 1.8230                 1.6988
 IR Inten    --      8.8339                 7.8564                 5.3406

                     49                     50                     51
                      A                      A                      A
 Frequencies --   1466.4401              1508.5044              1513.6855
 Red. masses --      3.5775                 2.0701                 1.4042
 Frc consts  --      4.5327                 2.7754                 1.8956
 IR Inten    --     21.3228                 5.4165                 0.5770

                     52                     53                     54
                      A                      A                      A
 Frequencies --   1518.6993              1521.9169              1535.5461
 Red. masses --      1.1013                 1.1488                 1.1301
 Frc consts  --      1.4965                 1.5677                 1.5699
 IR Inten    --      6.3648                 0.8379                 2.9199

                     55                     56                     57
                      A                      A                      A
 Frequencies --   1585.3508              1712.5491              3001.2907
 Red. masses --      3.7463                 1.0893                 1.0710
 Frc consts  --      5.5475                 1.8823                 5.6840
 IR Inten    --     34.6907                30.7740                54.0720

                     58                     59                     60
                      A                      A                      A
 Frequencies --   3031.4694              3051.1213              3057.4417
 Red. masses --      1.0646                 1.0608                 1.0613
 Frc consts  --      5.7643                 5.8181                 5.8453
 IR Inten    --     44.4378                26.0169                19.7066

                     61                     62                     63
                      A                      A                      A
 Frequencies --   3092.9781              3103.1499              3108.8272
 Red. masses --      1.1020                 1.1035                 1.1008
 Frc consts  --      6.2115                 6.2610                 6.2684
 IR Inten    --     21.7143                42.3681                35.3108

                     64                     65                     66
                      A                      A                      A
 Frequencies --   3116.2136              3259.6717              3292.1695
 Red. masses --      1.0965                 1.0923                 1.1031
 Frc consts  --      6.2735                 6.8382                 7.0444
 IR Inten    --     37.2609                 9.4748                 5.9799

                     67                     68                     69
                      A                      A                      A
 Frequencies --   3446.3220              3520.5134              3598.2506
 Red. masses --      1.0515                 1.0890                 1.0818
 Frc consts  --      7.3578                 7.9523                 8.2526
 IR Inten    --      1.1342                 1.4136               117.9344

 - Thermochemistry -
 -------------------
 Temperature   298.150 Kelvin.  Pressure   1.00000 Atm.
 Atom     1 has atomic number  6 and mass  12.00000

 Molecular mass:   167.10586 amu.
 Principal axes and moments of inertia in atomic units:
                           1         2         3
     Eigenvalues --  1169.379782202.601082601.63935
           X            0.99991  -0.00464  -0.01268
           Y            0.00434   0.99973  -0.02304
           Z            0.01278   0.02298   0.99965
 This molecule is an asymmetric top.
 Rotational symmetry number  1.
 Warning -- assumption of classical behavior for rotation
           may cause significant error
 Rotational temperatures (Kelvin)      0.07407     0.03932     0.03329
 Rotational constants (GHZ):           1.54333     0.81937     0.69369
 Zero-point vibrational energy     569276.5 (Joules/Mol)
                                  136.06035 (Kcal/Mol)
 Warning -- explicit consideration of  14 degrees of freedom as
           vibrations may cause significant error
 Vibrational temperatures:     99.31   164.65   213.06   307.18   345.83
          (Kelvin)            370.23   430.35   448.73   513.88   580.12
                              640.36   688.32   746.82   853.80   901.99
                              913.00  1035.20  1042.72  1116.57  1193.24
                             1220.74  1279.08  1289.06  1326.23  1352.77
                             1367.45  1419.13  1479.25  1494.64  1514.64
                             1571.77  1594.31  1605.91  1629.93  1681.63
                             1710.89  1746.77  1766.16  1800.37  1825.20
                             1910.28  1927.54  1957.15  1977.20  2012.67
                             2019.76  2031.60  2064.46  2109.88  2170.40
                             2177.86  2185.07  2189.70  2209.31  2280.97
                             2463.98  4318.19  4361.61  4389.88  4398.98
                             4450.11  4464.74  4472.91  4483.54  4689.94
                             4736.70  4958.49  5065.23  5177.08

 Zero-point correction=                           0.216826 (Hartree/Particle)
 Thermal correction to Energy=                    0.227084
 Thermal correction to Enthalpy=                  0.228028
 Thermal correction to Gibbs Free Energy=         0.181374
 Sum of electronic and zero-point Energies=           -551.973394
 Sum of electronic and thermal Energies=              -551.963137
 Sum of electronic and thermal Enthalpies=            -551.962192
 Sum of electronic and thermal Free Energies=         -552.008846

                     E (Thermal)             CV                S
                      KCal/Mol        Cal/Mol-Kelvin    Cal/Mol-Kelvin
 Total                  142.497             41.219             98.192
 Electronic               0.000              0.000              0.000
 Translational            0.889              2.981             41.249
 Rotational               0.889              2.981             30.284
 Vibrational            140.720             35.258             26.659
 Vibration     1          0.598              1.969              4.181
 Vibration     2          0.607              1.937              3.192
 Vibration     3          0.617              1.905              2.697
 Vibration     4          0.644              1.820              2.014
 Vibration     5          0.657              1.779              1.800
 Vibration     6          0.667              1.750              1.680
 Vibration     7          0.692              1.675              1.422
 Vibration     8          0.700              1.651              1.352
 Vibration     9          0.732              1.561              1.134
 Vibration    10          0.769              1.463              0.951
 Vibration    11          0.804              1.372              0.811
 Vibration    12          0.835              1.298              0.714
 Vibration    13          0.874              1.208              0.612
 Vibration    14          0.951              1.046              0.461

                           ! Non-Optimized Parameters !
 Normal termination of Gaussian 16 at Wed Dec  9 17:49:36 2020.

 ----------------------------------------------------------------------
 # B3LYP/6-311++G(d,p) empiricaldispersion=gd3bj scf=xqc pop=npa geom=c
 heck
 ----------------------------------------------------------------------

 ---------------------------------------
 CID_125427042_JID_2616_Energie_neutraal
 ---------------------------------------
 Structure from the checkpoint file:  "JID_2616.chk"
 Charge =  0 Multiplicity = 1

 SCF Done:  E(RB3LYP) =  -552.351908306     A.U. after   16 cycles
 Normal termination of Gaussian 16 at Wed Dec  9 17:53:11 2020.

 ----------------------------------------------------------------------
 # B3LYP/6-311++G(d,p) empiricaldispersion=gd3bj scf=xqc pop=npa geom=c
 heck
 ----------------------------------------------------------------------

 -------------------------------------
 CID_125427042_JID_2616_Energie_kation
 -------------------------------------
 Structure from the checkpoint file:  "JID_2616.chk"
 Charge =  1 Multiplicity = 2

 SCF Done:  E(UB3LYP) =  -552.051846002     A.U. after   24 cycles
 Normal termination of Gaussian 16 at Wed Dec  9 17:59:47 2020.
 Gaussian 16:  ES64L-G16RevA.03 25-Dec-2016

 ----------------------------------------------------------------------
 # B3LYP/6-311++G(d,p) empiricaldispersion=gd3bj scf=xqc pop=npa geom=c
 heck
 ----------------------------------------------------------------------

 ------------------------------------
 CID_125427042_JID_2616_Energie_anion
 ------------------------------------
 Structure from the checkpoint file:  "JID_2616.chk"
 Charge = -1 Multiplicity = 2

                         Standard orientation:
 ---------------------------------------------------------------------
 Center     Atomic      Atomic             Coordinates (Angstroms)
 Number     Number       Type             X           Y           Z
 ---------------------------------------------------------------------
      1          6           0       -1.643400   -0.633913    1.403239
      2          6           0       -1.168388    0.805785    1.174243
      3          6           0       -0.379764    0.942362   -0.149559
      4          6           0       -1.241523    0.334303   -1.272064
      5          8           0       -1.576187   -1.028688   -1.011792
      6          6           0       -2.377037   -1.154002    0.167561
      7          6           0        0.952793    0.226435   -0.049283
      8          7           0        2.070124    0.777987    0.392695
      9          6           0        3.023662   -0.217553    0.338266
     10          6           0        2.478585   -1.382716   -0.142866
     11          7           0        1.152514   -1.085227   -0.383800
     12          7           0       -0.208734    2.370984   -0.435068
     13          1           0       -2.310900   -0.683711    2.271951
     14          1           0       -0.787047   -1.284319    1.616687
     15          1           0       -2.029239    1.483022    1.108166
     16          1           0       -0.540929    1.146617    2.005551
     17          1           0       -0.705479    0.339212   -2.226328
     18          1           0       -2.152919    0.940190   -1.377035
     19          1           0       -2.616479   -2.217558    0.253378
     20          1           0       -3.317509   -0.598439    0.021078
     21          1           0        4.045232   -0.034761    0.642478
     22          1           0        2.892628   -2.360788   -0.335371
     23          1           0        0.417293   -1.684199   -0.740113
     24          1           0        0.388825    2.753169    0.299428
     25          1           0        0.359116    2.460652   -1.279545
 ---------------------------------------------------------------------

 SCF Done:  E(UB3LYP) =  -552.336793149     A.U. after   30 cycles

 The electronic state is 2-A.
 Alpha  occ. eigenvalues --  -19.03696 -14.25959 -14.20379 -14.19309 -10.12467
 Alpha  occ. eigenvalues --  -10.12440 -10.12334 -10.11624 -10.09588 -10.08300
 Alpha  occ. eigenvalues --  -10.07327 -10.06867  -0.94912  -0.91280  -0.80908
 Alpha  occ. eigenvalues --   -0.76646  -0.69431  -0.66707  -0.63292  -0.55821
 Alpha  occ. eigenvalues --   -0.54056  -0.50572  -0.49557  -0.47853  -0.42555
 Alpha  occ. eigenvalues --   -0.40216  -0.39358  -0.37474  -0.36768  -0.35833
 Alpha  occ. eigenvalues --   -0.33783  -0.33399  -0.31953  -0.31173  -0.30029
 Alpha  occ. eigenvalues --   -0.28855  -0.27460  -0.24999  -0.23969  -0.21754
 Alpha  occ. eigenvalues --   -0.18509  -0.17916  -0.17079  -0.16696  -0.12592
 Alpha  occ. eigenvalues --    0.04602
 Alpha virt. eigenvalues --    0.06734   0.07513   0.08184   0.08968   0.09390
 Alpha virt. eigenvalues --    0.10049   0.10617   0.11398   0.11545   0.12352
 Alpha virt. eigenvalues --    0.12531   0.13224   0.14128   0.14142   0.15333

  Beta  occ. eigenvalues --  -19.03688 -14.25945 -14.20371 -14.19307 -10.12451
  Beta  occ. eigenvalues --  -10.12440 -10.12335 -10.11588 -10.09563 -10.08296
  Beta  occ. eigenvalues --  -10.07314 -10.06840  -0.94895  -0.91265  -0.80895
  Beta  occ. eigenvalues --   -0.76626  -0.69395  -0.66674  -0.63260  -0.55771
  Beta  occ. eigenvalues --   -0.54010  -0.50538  -0.49517  -0.47807  -0.42504
  Beta  occ. eigenvalues --   -0.40169  -0.39331  -0.37439  -0.36734  -0.35802
  Beta  occ. eigenvalues --   -0.33753  -0.33360  -0.31927  -0.31149  -0.29983
  Beta  occ. eigenvalues --   -0.28832  -0.27429  -0.24965  -0.23927  -0.21715
  Beta  occ. eigenvalues --   -0.18498  -0.17909  -0.17045  -0.16686  -0.12579
  Beta virt. eigenvalues --    0.06989   0.07886   0.08178   0.08750   0.09464
  Beta virt. eigenvalues --    0.10205   0.10519   0.11151   0.11604   0.11769
  Beta virt. eigenvalues --    0.12747   0.12997   0.13729   0.14076   0.14346

 Mulliken charges and spin densities:
               1          2
     1  C   -1.328286   0.995988
     2  C    0.657401  -0.818681
     3  C    0.020685  -0.017298
     4  C    0.814387  -1.429259
     5  O   -0.181394   0.069823
     6  C    1.727478  -2.110271
     7  C    0.719035  -1.141381
     8  N   -0.202281   0.116112
     9  C    0.489794  -0.506187
    10  C   -0.148010   0.044766
    11  N   -0.364213   0.233538
    12  N   -0.245737   0.032078
    13  H   -0.911272   1.098476
    14  H    0.206938  -0.039098
    15  H   -0.035960   0.237880
    16  H    0.073307   0.073811
    17  H   -0.109035   0.315432
    18  H   -0.043660   0.216880
    19  H   -0.916973   1.124913
    20  H    0.043620   0.081285
    21  H   -0.134317   0.291873
    22  H   -1.440083   1.610850
    23  H   -0.036197   0.385182
    24  H    0.178672   0.079835
    25  H    0.166097   0.053451
 Sum of Mulliken charges =  -1.00000   1.00000

 Dipole moment (field-independent basis, Debye):
    X=              1.0143    Y=              5.9122    Z=             -1.4380  Tot=              6.1685
 Quadrupole moment (field-independent basis, Debye-Ang):
   XX=           -132.4291   YY=           -124.9877   ZZ=           -106.5431
   XY=              1.9586   XZ=              7.7687   YZ=             -0.6908

 Summary of Natural Population Analysis:

                                       Natural Population
                Natural  -----------------------------------------------
    Atom  No    Charge         Core      Valence    Rydberg      Total
 -----------------------------------------------------------------------
      C    1   -0.20879      0.99963     2.20004    0.00913     3.20879
      C    2   -0.18703      0.99959     2.17695    0.01049     3.18703
      C    3    0.02314      0.99951     1.96392    0.01343     2.97686
      C    4   -0.00877      0.99952     1.99538    0.01387     3.00877
      O    5   -0.30863      0.99989     3.29842    0.01032     4.30863
      C    6   -0.00805      0.99958     1.99513    0.01335     3.00805
      C    7    0.18054      0.99956     1.79792    0.02197     2.81946
      N    8   -0.26973      0.99969     2.76076    0.00927     3.76973
      C    9   -0.03844      0.99958     2.02489    0.01398     3.03844
      C   10   -0.03695      0.99956     2.02426    0.01313     3.03695
      N   11   -0.27572      0.99964     2.76594    0.01013     3.77572
      N   12   -0.41481      0.99976     2.90660    0.00845     3.91481
      H   13    0.10698      0.00000     0.39081    0.00221     0.39302
      H   14    0.10088      0.00000     0.39713    0.00200     0.39912
      H   15    0.10232      0.00000     0.39621    0.00147     0.39768
      H   16    0.10492      0.00000     0.39402    0.00106     0.39508
      H   17    0.09419      0.00000     0.40447    0.00135     0.40581
      H   18    0.08895      0.00000     0.40954    0.00152     0.41105
      H   19    0.09834      0.00000     0.39829    0.00337     0.40166
      H   20    0.07841      0.00000     0.41979    0.00180     0.42159
      H   21    0.09501      0.00000     0.40401    0.00098     0.40499
      H   22    0.10728      0.00000     0.38921    0.00352     0.39272
      H   23    0.21969      0.00000     0.27567    0.00464     0.28031
      H   24    0.18221      0.00000     0.31573    0.00206     0.31779
      H   25    0.17407      0.00000     0.32426    0.00167     0.32593
 =======================================================================
   * Total *   -0.00000     11.99551    32.82933    0.17516    45.00000

 Normal termination of Gaussian 16 at Wed Dec  9 18:06:52 2020.
