 Gaussian 16, Revision A.03,

 -----------------------------------------------------------
 # opt freq B3LYP/6-31G(d) empiricaldispersion=gd3bj scf=xqc
 -----------------------------------------------------------

 ------------------------------
 CID_86206226_JID_6828_neutraal
 ------------------------------
 Symbolic Z-matrix:
 Charge =  0 Multiplicity = 1

 SCF Done:  E(RB3LYP) =  -734.398324180     A.U. after   14 cycles
 SCF Done:  E(RB3LYP) =  -734.400935704     A.U. after   13 cycles
 SCF Done:  E(RB3LYP) =  -734.400655287     A.U. after   12 cycles
 SCF Done:  E(RB3LYP) =  -734.401478897     A.U. after   11 cycles
 SCF Done:  E(RB3LYP) =  -734.401560504     A.U. after   11 cycles
 SCF Done:  E(RB3LYP) =  -734.401598678     A.U. after   11 cycles
 SCF Done:  E(RB3LYP) =  -734.401644359     A.U. after   10 cycles
 SCF Done:  E(RB3LYP) =  -734.401648720     A.U. after   10 cycles
 SCF Done:  E(RB3LYP) =  -734.401653280     A.U. after    9 cycles
 SCF Done:  E(RB3LYP) =  -734.401653741     A.U. after    7 cycles
 Optimization completed.
    -- Stationary point found.
 Normal termination of Gaussian 16 at Fri Dec 11 00:48:21 2020.

 --------------------------------------------------------------------
 #N Geom=AllCheck Guess=TCheck SCRF=Check GenChk RB3LYP/6-31G(d) Freq
 --------------------------------------------------------------------

 Structure from the checkpoint file:  "JID_6828.chk"
 ------------------------------
 CID_86206226_JID_6828_neutraal
 ------------------------------
 Charge =  0 Multiplicity = 1

 SCF Done:  E(RB3LYP) =  -734.401653741     A.U. after    1 cycles

  Exact polarizability: 153.712  -0.095 140.876  -1.164   3.507 119.249
 Approx polarizability: 195.051   3.375 193.917  -6.313   9.180 200.619

                      1                      2                      3
                      A                      A                      A
 Frequencies --     34.3367                52.9467                72.3885
 Red. masses --      5.1096                 4.2582                 4.7162
 Frc consts  --      0.0035                 0.0070                 0.0146
 IR Inten    --      1.3883                 2.0027                 1.4881

                      4                      5                      6
                      A                      A                      A
 Frequencies --     83.2062               130.8105               136.3511
 Red. masses --      4.8245                 4.6011                 4.3067
 Frc consts  --      0.0197                 0.0464                 0.0472
 IR Inten    --      0.2443                 0.1235                 2.3651

                      7                      8                      9
                      A                      A                      A
 Frequencies --    167.3020               186.4958               199.0233
 Red. masses --      3.6000                 3.4081                 2.3115
 Frc consts  --      0.0594                 0.0698                 0.0539
 IR Inten    --      1.9649                 1.3121                 1.5324

                     10                     11                     12
                      A                      A                      A
 Frequencies --    235.4184               260.9094               273.9101
 Red. masses --      2.8954                 1.8678                 2.5109
 Frc consts  --      0.0945                 0.0749                 0.1110
 IR Inten    --      0.5329                 0.2930                 0.6275

                     13                     14                     15
                      A                      A                      A
 Frequencies --    287.4928               310.4475               331.5596
 Red. masses --      2.9593                 2.5107                 2.5923
 Frc consts  --      0.1441                 0.1426                 0.1679
 IR Inten    --      0.7190                 0.6975                 0.5210

                     16                     17                     18
                      A                      A                      A
 Frequencies --    340.4165               350.0528               395.3746
 Red. masses --      2.3392                 2.5221                 2.6298
 Frc consts  --      0.1597                 0.1821                 0.2422
 IR Inten    --      0.5614                 7.2184                 1.5671

                     19                     20                     21
                      A                      A                      A
 Frequencies --    427.7437               449.6146               499.9975
 Red. masses --      2.8400                 2.6129                 2.8867
 Frc consts  --      0.3062                 0.3112                 0.4252
 IR Inten    --      1.5171                 0.6477                 6.9745

                     22                     23                     24
                      A                      A                      A
 Frequencies --    508.8124               559.8256               591.2342
 Red. masses --      2.9167                 2.3707                 2.5099
 Frc consts  --      0.4449                 0.4377                 0.5169
 IR Inten    --     20.0650                17.3705                11.1039

                     25                     26                     27
                      A                      A                      A
 Frequencies --    617.8560               658.8733               717.0749
 Red. masses --      3.1172                 1.5998                 1.3248
 Frc consts  --      0.7011                 0.4092                 0.4013
 IR Inten    --     29.9301                46.1725                16.3885

                     28                     29                     30
                      A                      A                      A
 Frequencies --    741.1120               748.6577               785.7195
 Red. masses --      1.7907                 1.5763                 2.3467
 Frc consts  --      0.5795                 0.5206                 0.8536
 IR Inten    --     68.9855                 0.4884                 4.0524

                     31                     32                     33
                      A                      A                      A
 Frequencies --    788.9748               823.3568               833.1623
 Red. masses --      2.0640                 1.9900                 1.7426
 Frc consts  --      0.7570                 0.7948                 0.7127
 IR Inten    --      4.3853                 1.8522                 0.3175

                     34                     35                     36
                      A                      A                      A
 Frequencies --    840.4296               884.4580               898.2466
 Red. masses --      2.0180                 2.3155                 2.5874
 Frc consts  --      0.8398                 1.0672                 1.2300
 IR Inten    --      4.8197                 0.8014                 6.9824

                     37                     38                     39
                      A                      A                      A
 Frequencies --    939.0435               955.6935               971.1350
 Red. masses --      2.2127                 1.9980                 1.8302
 Frc consts  --      1.1496                 1.0752                 1.0170
 IR Inten    --      0.5247                 2.0521                 4.7193

                     40                     41                     42
                      A                      A                      A
 Frequencies --    989.1021              1007.6354              1034.3778
 Red. masses --      2.0703                 2.0736                 2.2479
 Frc consts  --      1.1933                 1.2404                 1.4171
 IR Inten    --      2.9429                 0.5254                 1.1107

                     43                     44                     45
                      A                      A                      A
 Frequencies --   1046.7977              1062.4779              1080.4304
 Red. masses --      2.0284                 1.9273                 2.4142
 Frc consts  --      1.3096                 1.2818                 1.6604
 IR Inten    --     17.5258                 3.1745                 5.5948

                     46                     47                     48
                      A                      A                      A
 Frequencies --   1093.0399              1100.6826              1110.7420
 Red. masses --      1.5413                 2.0068                 2.3544
 Frc consts  --      1.0849                 1.4324                 1.7114
 IR Inten    --     20.3652                 1.9591                 1.6983

                     49                     50                     51
                      A                      A                      A
 Frequencies --   1124.4818              1155.5000              1182.6886
 Red. masses --      1.7291                 1.9443                 1.6090
 Frc consts  --      1.2882                 1.5295                 1.3260
 IR Inten    --      8.5451                46.0386                 8.2667

                     52                     53                     54
                      A                      A                      A
 Frequencies --   1190.0013              1204.1701              1215.8871
 Red. masses --      1.4160                 1.9090                 1.3729
 Frc consts  --      1.1814                 1.6309                 1.1959
 IR Inten    --     50.7185               169.0642                12.0650

                     55                     56                     57
                      A                      A                      A
 Frequencies --   1234.4905              1262.1941              1264.6463
 Red. masses --      1.3506                 1.3366                 1.3241
 Frc consts  --      1.2127                 1.2546                 1.2477
 IR Inten    --      9.3991                17.4081                 5.5140

                     58                     59                     60
                      A                      A                      A
 Frequencies --   1289.9312              1303.8924              1315.6310
 Red. masses --      1.3961                 1.3735                 1.2532
 Frc consts  --      1.3687                 1.3758                 1.2780
 IR Inten    --      5.2708                 6.4921                 3.9056

                     61                     62                     63
                      A                      A                      A
 Frequencies --   1336.3906              1347.1324              1348.8356
 Red. masses --      1.2782                 1.2861                 1.2768
 Frc consts  --      1.3450                 1.3751                 1.3686
 IR Inten    --      0.5864                 0.5611                 6.1223

                     64                     65                     66
                      A                      A                      A
 Frequencies --   1359.3745              1361.9881              1370.7095
 Red. masses --      1.3475                 1.2062                 1.2593
 Frc consts  --      1.4671                 1.3183                 1.3941
 IR Inten    --      3.3584                 2.0769                 2.8494

                     67                     68                     69
                      A                      A                      A
 Frequencies --   1382.8540              1394.3653              1396.7898
 Red. masses --      1.3376                 1.5214                 1.5622
 Frc consts  --      1.5071                 1.7428                 1.7957
 IR Inten    --      9.8249                 9.7476                10.6527

                     70                     71                     72
                      A                      A                      A
 Frequencies --   1406.3483              1407.2701              1422.1993
 Red. masses --      1.4687                 1.8039                 1.4986
 Frc consts  --      1.7114                 2.1049                 1.7859
 IR Inten    --     13.7229                34.7467                 0.0761

                     73                     74                     75
                      A                      A                      A
 Frequencies --   1428.8866              1431.2005              1481.3732
 Red. masses --      1.4961                 1.4498                 1.0870
 Frc consts  --      1.7997                 1.7497                 1.4055
 IR Inten    --      1.0405                 0.3872                25.1435

                     76                     77                     78
                      A                      A                      A
 Frequencies --   1507.3049              1516.7832              1516.8852
 Red. masses --      1.1092                 1.0830                 1.0789
 Frc consts  --      1.4848                 1.4679                 1.4627
 IR Inten    --      7.0956                 0.4619                 5.0273

                     79                     80                     81
                      A                      A                      A
 Frequencies --   1518.6557              1520.4817              1530.0012
 Red. masses --      1.0850                 1.0845                 1.0940
 Frc consts  --      1.4743                 1.4772                 1.5089
 IR Inten    --      0.8351                 5.1307                 0.5132

                     82                     83                     84
                      A                      A                      A
 Frequencies --   1533.4725              1537.6571              1547.0113
 Red. masses --      1.0910                 1.0818                 1.0908
 Frc consts  --      1.5116                 1.5070                 1.5382
 IR Inten    --      1.6843                 0.0289                18.7839

                     85                     86                     87
                      A                      A                      A
 Frequencies --   1797.8632              1833.4616              3014.9715
 Red. masses --     10.5806                 9.8148                 1.0813
 Frc consts  --     20.1499                19.4392                 5.7910
 IR Inten    --     99.8314               248.4659                15.2638

                     88                     89                     90
                      A                      A                      A
 Frequencies --   3026.1302              3027.0160              3036.2164
 Red. masses --      1.0618                 1.0627                 1.0627
 Frc consts  --      5.7289                 5.7372                 5.7718
 IR Inten    --     29.1270                22.0696                20.5342

                     91                     92                     93
                      A                      A                      A
 Frequencies --   3041.5748              3047.2041              3048.1537
 Red. masses --      1.0652                 1.0654                 1.0680
 Frc consts  --      5.8062                 5.8286                 5.8465
 IR Inten    --     22.8296                22.0837                23.6095

                     94                     95                     96
                      A                      A                      A
 Frequencies --   3052.5820              3055.6562              3060.9274
 Red. masses --      1.0670                 1.0621                 1.1000
 Frc consts  --      5.8579                 5.8430                 6.0722
 IR Inten    --     17.2448                16.2678                42.3694

                     97                     98                     99
                      A                      A                      A
 Frequencies --   3062.6163              3064.7478              3069.6410
 Red. masses --      1.0833                 1.0827                 1.0950
 Frc consts  --      5.9866                 5.9918                 6.0793
 IR Inten    --     10.0904                 2.7453                32.4291

                    100                    101                    102
                      A                      A                      A
 Frequencies --   3075.6517              3084.2088              3090.2699
 Red. masses --      1.0923                 1.0817                 1.0886
 Frc consts  --      6.0879                 6.0625                 6.1253
 IR Inten    --     35.1307                28.7132                94.3531

                    103                    104                    105
                      A                      A                      A
 Frequencies --   3091.7150              3104.8473              3113.5520
 Red. masses --      1.0921                 1.0973                 1.0958
 Frc consts  --      6.1503                 6.2322                 6.2588
 IR Inten    --     41.0170                68.9518                11.0549

                    106                    107                    108
                      A                      A                      A
 Frequencies --   3118.4347              3134.4229              3685.9438
 Red. masses --      1.1003                 1.0995                 1.0638
 Frc consts  --      6.3045                 6.3644                 8.5158
 IR Inten    --     33.9450                23.6008                52.6720

 - Thermochemistry -
 -------------------
 Temperature   298.150 Kelvin.  Pressure   1.00000 Atm.
 Atom     1 has atomic number  6 and mass  12.00000

 Molecular mass:   226.15689 amu.
 Principal axes and moments of inertia in atomic units:
                           1         2         3
     Eigenvalues --  2459.586454763.505666289.37109
           X            0.99998  -0.00428   0.00520
           Y            0.00425   0.99997   0.00595
           Z           -0.00522  -0.00593   0.99997
 This molecule is an asymmetric top.
 Rotational symmetry number  1.
 Warning -- assumption of classical behavior for rotation
           may cause significant error
 Rotational temperatures (Kelvin)      0.03521     0.01818     0.01377
 Rotational constants (GHZ):           0.73376     0.37887     0.28695
 Zero-point vibrational energy     895405.1 (Joules/Mol)
                                  214.00695 (Kcal/Mol)
 Warning -- explicit consideration of  25 degrees of freedom as
           vibrations may cause significant error
 Vibrational temperatures:     49.40    76.18   104.15   119.72   188.21
          (Kelvin)            196.18   240.71   268.33   286.35   338.71
                              375.39   394.10   413.64   446.66   477.04
                              489.78   503.65   568.86   615.43   646.90
                              719.38   732.07   805.46   850.65   888.96
                              947.97  1031.71  1066.29  1077.15  1130.48
                             1135.16  1184.63  1198.73  1209.19  1272.54
                             1292.38  1351.07  1375.03  1397.25  1423.10
                             1449.76  1488.24  1506.11  1528.67  1554.50
                             1572.64  1583.64  1598.11  1617.88  1662.51
                             1701.63  1712.15  1732.53  1749.39  1776.16
                             1816.02  1819.54  1855.92  1876.01  1892.90
                             1922.77  1938.22  1940.67  1955.84  1959.60
                             1972.15  1989.62  2006.18  2009.67  2023.42
                             2024.75  2046.23  2055.85  2059.18  2131.37
                             2168.68  2182.31  2182.46  2185.01  2187.63
                             2201.33  2206.32  2212.35  2225.80  2586.72
                             2637.94  4337.87  4353.93  4355.20  4368.44
                             4376.15  4384.25  4385.61  4391.98  4396.41
                             4403.99  4406.42  4409.49  4416.53  4425.18
                             4437.49  4446.21  4448.29  4467.18  4479.71
                             4486.73  4509.74  5303.25

 Zero-point correction=                           0.341042 (Hartree/Particle)
 Thermal correction to Energy=                    0.357078
 Thermal correction to Enthalpy=                  0.358022
 Thermal correction to Gibbs Free Energy=         0.297771
 Sum of electronic and zero-point Energies=           -734.060612
 Sum of electronic and thermal Energies=              -734.044576
 Sum of electronic and thermal Enthalpies=            -734.043632
 Sum of electronic and thermal Free Energies=         -734.103883

                     E (Thermal)             CV                S
                      KCal/Mol        Cal/Mol-Kelvin    Cal/Mol-Kelvin
 Total                  224.070             62.667            126.809
 Electronic               0.000              0.000              0.000
 Translational            0.889              2.981             42.151
 Rotational               0.889              2.981             32.666
 Vibrational            222.292             56.705             51.993
 Vibration     1          0.594              1.983              5.562
 Vibration     2          0.596              1.976              4.704
 Vibration     3          0.598              1.967              4.087
 Vibration     4          0.600              1.961              3.814
 Vibration     5          0.612              1.923              2.934
 Vibration     6          0.614              1.917              2.854
 Vibration     7          0.624              1.883              2.466
 Vibration     8          0.632              1.858              2.262
 Vibration     9          0.637              1.841              2.142
 Vibration    10          0.655              1.787              1.837
 Vibration    11          0.669              1.744              1.656
 Vibration    12          0.676              1.721              1.571
 Vibration    13          0.685              1.697              1.489
 Vibration    14          0.699              1.654              1.360
 Vibration    15          0.714              1.612              1.252
 Vibration    16          0.720              1.595              1.210
 Vibration    17          0.727              1.575              1.166
 Vibration    18          0.762              1.480              0.980
 Vibration    19          0.789              1.410              0.866
 Vibration    20          0.809              1.362              0.797
 Vibration    21          0.855              1.250              0.658
 Vibration    22          0.864              1.230              0.636
 Vibration    23          0.915              1.118              0.524
 Vibration    24          0.949              1.050              0.465
 Vibration    25          0.978              0.994              0.420

                           ! Non-Optimized Parameters !
 Normal termination of Gaussian 16 at Fri Dec 11 01:05:01 2020.

 ----------------------------------------------------------------------
 # B3LYP/6-311++G(d,p) empiricaldispersion=gd3bj scf=xqc pop=npa geom=c
 heck
 ----------------------------------------------------------------------

 --------------------------------------
 CID_86206226_JID_6828_Energie_neutraal
 --------------------------------------
 Structure from the checkpoint file:  "JID_6828.chk"
 Charge =  0 Multiplicity = 1

 SCF Done:  E(RB3LYP) =  -734.618568264     A.U. after   14 cycles
 Normal termination of Gaussian 16 at Fri Dec 11 01:12:57 2020.

 ----------------------------------------------------------------------
 # B3LYP/6-311++G(d,p) empiricaldispersion=gd3bj scf=xqc pop=npa geom=c
 heck
 ----------------------------------------------------------------------

 ------------------------------------
 CID_86206226_JID_6828_Energie_kation
 ------------------------------------
 Structure from the checkpoint file:  "JID_6828.chk"
 Charge =  1 Multiplicity = 2

 SCF Done:  E(UB3LYP) =  -734.287810586     A.U. after   27 cycles
 Normal termination of Gaussian 16 at Fri Dec 11 01:34:49 2020.
 Gaussian 16:  ES64L-G16RevA.03 25-Dec-2016

 ----------------------------------------------------------------------
 # B3LYP/6-311++G(d,p) empiricaldispersion=gd3bj scf=xqc pop=npa geom=c
 heck
 ----------------------------------------------------------------------

 -----------------------------------
 CID_86206226_JID_6828_Energie_anion
 -----------------------------------
 Structure from the checkpoint file:  "JID_6828.chk"
 Charge = -1 Multiplicity = 2

                         Standard orientation:
 ---------------------------------------------------------------------
 Center     Atomic      Atomic             Coordinates (Angstroms)
 Number     Number       Type             X           Y           Z
 ---------------------------------------------------------------------
      1          6           0       -3.196385   -0.801061    0.180556
      2          6           0       -2.303843   -1.757550   -0.634079
      3          6           0       -1.436801   -2.684005    0.235586
      4          6           0       -0.293902   -1.955999    0.964726
      5          6           0        0.826922   -1.492772    0.024002
      6          6           0        1.852094   -0.563189    0.696881
      7          6           0        1.268736    0.780643    1.164863
      8          6           0        0.696454    1.614595    0.026210
      9          8           0        1.036454    1.425466   -1.129323
     10          6           0       -0.339422    2.662116    0.392380
     11          6           0       -1.731113    2.010025    0.567722
     12          6           0       -2.307103    1.444314   -0.737841
     13          6           0       -3.520829    0.521368   -0.534978
     14          6           0        3.092159   -0.276637   -0.142534
     15          8           0        3.879926    0.615660    0.089954
     16          8           0        3.287003   -1.165062   -1.143388
     17          1           0       -4.133308   -1.313763    0.433382
     18          1           0       -2.720948   -0.578027    1.143322
     19          1           0       -1.649981   -1.184828   -1.301302
     20          1           0       -2.937458   -2.363304   -1.294132
     21          1           0       -1.009642   -3.479337   -0.390052
     22          1           0       -2.076726   -3.184155    0.975383
     23          1           0        0.133147   -2.619641    1.729065
     24          1           0       -0.710632   -1.102095    1.512560
     25          1           0        0.415431   -0.977287   -0.847411
     26          1           0        1.348502   -2.373374   -0.363649
     27          1           0        2.240806   -1.070715    1.593430
     28          1           0        2.072023    1.377993    1.615324
     29          1           0        0.514451    0.637131    1.944341
     30          1           0       -0.049981    3.157503    1.327793
     31          1           0       -0.368785    3.409343   -0.406793
     32          1           0       -2.419751    2.757109    0.981700
     33          1           0       -1.655397    1.219658    1.324155
     34          1           0       -1.521965    0.908533   -1.282106
     35          1           0       -2.592673    2.282309   -1.386949
     36          1           0       -3.963524    0.299003   -1.515373
     37          1           0       -4.291570    1.059830    0.034020
     38          1           0        4.109123   -0.881492   -1.585620
 ---------------------------------------------------------------------

 SCF Done:  E(UB3LYP) =  -734.608303230     A.U. after   33 cycles
 SCF Done:  E(UB3LYP) =  -734.608303230     a.u. after    1 cycles

 The electronic state is 2-A.
 Alpha  occ. eigenvalues --  -19.07588 -19.01221 -18.99195 -10.20645 -10.13397
 Alpha  occ. eigenvalues --  -10.09336 -10.07199 -10.07022 -10.06734 -10.06695
 Alpha  occ. eigenvalues --  -10.06693 -10.06600 -10.06509 -10.06497 -10.06493
 Alpha  occ. eigenvalues --  -10.06056  -1.01424  -0.92787  -0.92070  -0.72896
 Alpha  occ. eigenvalues --   -0.71160  -0.69624  -0.65720  -0.63510  -0.58845
 Alpha  occ. eigenvalues --   -0.57537  -0.53770  -0.51588  -0.49455  -0.47557
 Alpha  occ. eigenvalues --   -0.45534  -0.41438  -0.40286  -0.39398  -0.38499
 Alpha  occ. eigenvalues --   -0.38200  -0.36464  -0.35360  -0.34995  -0.34306
 Alpha  occ. eigenvalues --   -0.32987  -0.32043  -0.31434  -0.30940  -0.29579
 Alpha  occ. eigenvalues --   -0.28815  -0.28188  -0.27695  -0.27021  -0.26360
 Alpha  occ. eigenvalues --   -0.25229  -0.24573  -0.23854  -0.23616  -0.22775
 Alpha  occ. eigenvalues --   -0.22460  -0.22317  -0.21487  -0.21304  -0.21244
 Alpha  occ. eigenvalues --   -0.18026  -0.13592   0.04369
 Alpha virt. eigenvalues --    0.06389   0.06632   0.07157   0.08001   0.08521
 Alpha virt. eigenvalues --    0.08736   0.08900   0.09813   0.10346   0.10719
 Alpha virt. eigenvalues --    0.11307   0.11569   0.11659   0.12616   0.13110

  Beta  occ. eigenvalues --  -19.07577 -19.01215 -18.99046 -10.20637 -10.13215
  Beta  occ. eigenvalues --  -10.09323 -10.07202 -10.07013 -10.06718 -10.06690
  Beta  occ. eigenvalues --  -10.06649 -10.06586 -10.06498 -10.06496 -10.06495
  Beta  occ. eigenvalues --  -10.06052  -1.01403  -0.92517  -0.92022  -0.72859
  Beta  occ. eigenvalues --   -0.71132  -0.69546  -0.65667  -0.63420  -0.58782
  Beta  occ. eigenvalues --   -0.57496  -0.53720  -0.51508  -0.49392  -0.47506
  Beta  occ. eigenvalues --   -0.45471  -0.41237  -0.40193  -0.39356  -0.38452
  Beta  occ. eigenvalues --   -0.38144  -0.36372  -0.35271  -0.34913  -0.34243
  Beta  occ. eigenvalues --   -0.32920  -0.31993  -0.31376  -0.30831  -0.29513
  Beta  occ. eigenvalues --   -0.28660  -0.28122  -0.27663  -0.26964  -0.26213
  Beta  occ. eigenvalues --   -0.25167  -0.24433  -0.23818  -0.23507  -0.22705
  Beta  occ. eigenvalues --   -0.22384  -0.22083  -0.21457  -0.21254  -0.21197
  Beta  occ. eigenvalues --   -0.18013  -0.13467
  Beta virt. eigenvalues --    0.06504   0.06980   0.07530   0.07588   0.08653
  Beta virt. eigenvalues --    0.08848   0.09375   0.09588   0.10093   0.10549
  Beta virt. eigenvalues --    0.10998   0.11742   0.11843   0.12013   0.12822

 Mulliken charges and spin densities:
               1          2
     1  C    0.058794  -0.267191
     2  C   -0.275789   0.109039
     3  C   -0.233526  -0.290059
     4  C   -0.011485  -0.089993
     5  C    0.172136  -0.921780
     6  C    0.346804   0.472584
     7  C    0.522371  -1.265922
     8  C   -0.359130   0.678878
     9  O   -0.219312   0.041915
    10  C   -0.922936   0.388965
    11  C    1.089657  -1.207991
    12  C   -0.312970   0.131874
    13  C    0.253404  -0.802772
    14  C    0.003297  -0.281592
    15  O   -0.270191  -0.000300
    16  O   -0.141374  -0.001652
    17  H   -0.103052   0.275494
    18  H   -0.114801   0.254091
    19  H    0.159728  -0.043424
    20  H    0.050428   0.115977
    21  H    0.004343   0.117653
    22  H   -0.067823   0.231447
    23  H   -0.163938   0.337166
    24  H    0.170308  -0.116956
    25  H    0.142564   0.037548
    26  H    0.171460   0.025985
    27  H   -0.413816   0.654563
    28  H    0.111727   0.155588
    29  H    0.033742   0.124315
    30  H   -0.284524   0.459469
    31  H   -0.008278   0.183140
    32  H   -0.581663   0.792474
    33  H    0.066088  -0.004448
    34  H   -0.005119   0.126472
    35  H    0.094908   0.072330
    36  H    0.034616   0.100481
    37  H   -0.131022   0.268760
    38  H    0.134377   0.137871
 Sum of Mulliken charges =  -1.00000   1.00000

 Dipole moment (field-independent basis, Debye):
    X=              0.9875    Y=             -3.2318    Z=             -3.0529  Tot=              4.5541
 Quadrupole moment (field-independent basis, Debye-Ang):
   XX=           -163.6572   YY=           -150.7015   ZZ=           -131.7388
   XY=              2.0754   XZ=              0.9026   YZ=             -0.1599

 Summary of Natural Population Analysis:

                                       Natural Population
                Natural  -----------------------------------------------
    Atom  No    Charge         Core      Valence    Rydberg      Total
 -----------------------------------------------------------------------
      C    1   -0.19187      0.99962     2.18422    0.00803     3.19187
      C    2   -0.19294      0.99962     2.18533    0.00798     3.19294
      C    3   -0.18476      0.99963     2.17708    0.00805     3.18476
      C    4   -0.19123      0.99962     2.18372    0.00789     3.19123
      C    5   -0.19541      0.99961     2.18603    0.00978     3.19541
      C    6   -0.15087      0.99954     2.13907    0.01226     3.15087
      C    7   -0.24015      0.99957     2.23110    0.00948     3.24015
      C    8    0.31999      0.99966     1.65900    0.02135     2.68001
      O    9   -0.28445      0.99987     3.27886    0.00571     4.28445
      C   10   -0.23132      0.99958     2.22253    0.00921     3.23132
      C   11   -0.18562      0.99961     2.17730    0.00871     3.18562
      C   12   -0.19498      0.99962     2.18679    0.00857     3.19498
      C   13   -0.18577      0.99963     2.17768    0.00846     3.18577
      C   14    0.41916      0.99968     1.55400    0.02716     2.58084
      O   15   -0.31524      0.99987     3.30950    0.00587     4.31524
      O   16   -0.34492      0.99987     3.33918    0.00587     4.34492
      H   17    0.09629      0.00000     0.40265    0.00106     0.40371
      H   18    0.09365      0.00000     0.40470    0.00166     0.40635
      H   19    0.09561      0.00000     0.40294    0.00145     0.40439
      H   20    0.09475      0.00000     0.40443    0.00082     0.40525
      H   21    0.09394      0.00000     0.40512    0.00093     0.40606
      H   22    0.09536      0.00000     0.40370    0.00095     0.40464
      H   23    0.09671      0.00000     0.40208    0.00121     0.40329
      H   24    0.09353      0.00000     0.40470    0.00178     0.40647
      H   25    0.10648      0.00000     0.39191    0.00160     0.39352
      H   26    0.10324      0.00000     0.39542    0.00134     0.39676
      H   27    0.11580      0.00000     0.38233    0.00187     0.38420
      H   28    0.12713      0.00000     0.37152    0.00136     0.37287
      H   29    0.10703      0.00000     0.39184    0.00114     0.39297
      H   30    0.10654      0.00000     0.39185    0.00161     0.39346
      H   31    0.10530      0.00000     0.39361    0.00109     0.39470
      H   32    0.10205      0.00000     0.39498    0.00296     0.39795
      H   33    0.09258      0.00000     0.40550    0.00192     0.40742
      H   34    0.10031      0.00000     0.39801    0.00168     0.39969
      H   35    0.09658      0.00000     0.40249    0.00093     0.40342
      H   36    0.09279      0.00000     0.40634    0.00087     0.40721
      H   37    0.09690      0.00000     0.40203    0.00107     0.40310
      H   38    0.23783      0.00000     0.25864    0.00353     0.26217
 =======================================================================
   * Total *    0.00000     15.99460    45.80819    0.19721    62.00000

 Normal termination of Gaussian 16 at Fri Dec 11 02:00:57 2020.
