 Gaussian 16, Revision A.03,

 -----------------------------------------------------------
 # opt freq B3LYP/6-31G(d) empiricaldispersion=gd3bj scf=xqc
 -----------------------------------------------------------

 ------------------------------
 CID_64906984_JID_2196_neutraal
 ------------------------------
 Symbolic Z-matrix:
 Charge =  0 Multiplicity = 1

 SCF Done:  E(RB3LYP) =  -505.264084597     A.U. after   14 cycles
 SCF Done:  E(RB3LYP) =  -505.268571497     A.U. after   12 cycles
 SCF Done:  E(RB3LYP) =  -505.269004885     A.U. after   12 cycles
 SCF Done:  E(RB3LYP) =  -505.269082101     A.U. after   11 cycles
 SCF Done:  E(RB3LYP) =  -505.269124616     A.U. after   10 cycles
 SCF Done:  E(RB3LYP) =  -505.269134336     A.U. after   10 cycles
 SCF Done:  E(RB3LYP) =  -505.269148876     A.U. after    9 cycles
 SCF Done:  E(RB3LYP) =  -505.269154185     A.U. after    9 cycles
 SCF Done:  E(RB3LYP) =  -505.269157044     A.U. after    9 cycles
 SCF Done:  E(RB3LYP) =  -505.269158246     A.U. after    8 cycles
 SCF Done:  E(RB3LYP) =  -505.269158304     A.U. after    7 cycles
 SCF Done:  E(RB3LYP) =  -505.269158278     A.U. after    7 cycles
 Optimization completed.
    -- Stationary point found.
 Normal termination of Gaussian 16 at Wed Dec  9 16:53:14 2020.

 --------------------------------------------------------------------
 #N Geom=AllCheck Guess=TCheck SCRF=Check GenChk RB3LYP/6-31G(d) Freq
 --------------------------------------------------------------------

 Structure from the checkpoint file:  "JID_2196.chk"
 ------------------------------
 CID_64906984_JID_2196_neutraal
 ------------------------------
 Charge =  0 Multiplicity = 1

 SCF Done:  E(RB3LYP) =  -505.269158278     A.U. after    1 cycles

  Exact polarizability: 143.385   2.976 108.469   0.396   3.679  88.518
 Approx polarizability: 186.147  10.252 152.604  -0.418   5.014 135.306

                      1                      2                      3
                      A                      A                      A
 Frequencies --     35.8331                46.3745                64.1635
 Red. masses --      4.4618                 3.6996                 3.4517
 Frc consts  --      0.0034                 0.0047                 0.0084
 IR Inten    --      1.4794                 1.3656                 1.0780

                      4                      5                      6
                      A                      A                      A
 Frequencies --     79.3653               128.5718               167.8658
 Red. masses --      2.6036                 2.4900                 2.3939
 Frc consts  --      0.0097                 0.0243                 0.0397
 IR Inten    --      0.8465                 0.6964                 0.5991

                      7                      8                      9
                      A                      A                      A
 Frequencies --    205.9904               224.1593               263.2548
 Red. masses --      1.5701                 1.4652                 2.8119
 Frc consts  --      0.0393                 0.0434                 0.1148
 IR Inten    --      0.4203                 0.0479                 0.3155

                     10                     11                     12
                      A                      A                      A
 Frequencies --    271.2064               306.8654               352.4643
 Red. masses --      2.3442                 2.2585                 2.1016
 Frc consts  --      0.1016                 0.1253                 0.1538
 IR Inten    --      2.3008                 1.2853                 2.7707

                     13                     14                     15
                      A                      A                      A
 Frequencies --    413.3175               441.1235               467.0148
 Red. masses --      2.4344                 2.6464                 2.1095
 Frc consts  --      0.2450                 0.3034                 0.2711
 IR Inten    --      1.4648                 1.4411                 2.1667

                     16                     17                     18
                      A                      A                      A
 Frequencies --    497.9878               548.9103               556.9549
 Red. masses --      2.8217                 2.3744                 3.1213
 Frc consts  --      0.4123                 0.4215                 0.5705
 IR Inten    --      2.8297                 0.8398                 3.6117

                     19                     20                     21
                      A                      A                      A
 Frequencies --    634.7618               673.4175               723.1478
 Red. masses --      3.2216                 1.7456                 2.3861
 Frc consts  --      0.7648                 0.4664                 0.7352
 IR Inten    --      3.7866                 5.0634                 4.6347

                     22                     23                     24
                      A                      A                      A
 Frequencies --    759.5807               831.5229               850.7548
 Red. masses --      1.5116                 2.1418                 1.8039
 Frc consts  --      0.5139                 0.8725                 0.7693
 IR Inten    --      4.3078                 6.4778                 4.3132

                     25                     26                     27
                      A                      A                      A
 Frequencies --    865.0811               921.8046               940.3788
 Red. masses --      2.1282                 1.7821                 1.3519
 Frc consts  --      0.9384                 0.8922                 0.7044
 IR Inten    --      2.2068                 0.4555                35.3741

                     28                     29                     30
                      A                      A                      A
 Frequencies --    955.3993               968.2025               993.1640
 Red. masses --      1.5105                 1.9655                 1.4967
 Frc consts  --      0.8123                 1.0856                 0.8698
 IR Inten    --      0.5023                 6.7464                 2.6383

                     31                     32                     33
                      A                      A                      A
 Frequencies --   1011.9803              1020.0114              1039.4120
 Red. masses --      1.5527                 1.6132                 1.1675
 Frc consts  --      0.9369                 0.9889                 0.7432
 IR Inten    --      0.2741                 0.2920                 8.4332

                     34                     35                     36
                      A                      A                      A
 Frequencies --   1049.4094              1062.9953              1095.4541
 Red. masses --      1.7816                 2.3786                 1.8231
 Frc consts  --      1.1560                 1.5835                 1.2890
 IR Inten    --      4.4475                17.5058                13.2434

                     37                     38                     39
                      A                      A                      A
 Frequencies --   1122.5129              1131.7955              1153.9398
 Red. masses --      2.4585                 1.7866                 1.9637
 Frc consts  --      1.8252                 1.3484                 1.5406
 IR Inten    --      4.7369                 0.5922                 8.8576

                     40                     41                     42
                      A                      A                      A
 Frequencies --   1178.2467              1193.1823              1220.5031
 Red. masses --      2.3601                 1.6272                 1.3980
 Frc consts  --      1.9304                 1.3649                 1.2270
 IR Inten    --     42.3272                 5.6427                 0.8764

                     43                     44                     45
                      A                      A                      A
 Frequencies --   1243.6569              1255.5934              1290.3820
 Red. masses --      1.5847                 1.3786                 1.5104
 Frc consts  --      1.4441                 1.2805                 1.4818
 IR Inten    --      1.0394                 1.4942                 3.8716

                     46                     47                     48
                      A                      A                      A
 Frequencies --   1307.3014              1319.6771              1321.6705
 Red. masses --      1.2757                 1.3371                 1.4928
 Frc consts  --      1.2846                 1.3720                 1.5364
 IR Inten    --      0.3711                 1.5617                 8.3612

                     49                     50                     51
                      A                      A                      A
 Frequencies --   1337.6238              1346.1622              1361.7162
 Red. masses --      1.2552                 1.2514                 1.3256
 Frc consts  --      1.3232                 1.3361                 1.4482
 IR Inten    --      0.3255                 6.3715                 1.7795

                     52                     53                     54
                      A                      A                      A
 Frequencies --   1377.3680              1394.1133              1410.2112
 Red. masses --      1.3787                 1.4480                 1.4166
 Frc consts  --      1.5410                 1.6581                 1.6598
 IR Inten    --      1.6492                 7.0938                 6.3427

                     55                     56                     57
                      A                      A                      A
 Frequencies --   1423.3546              1434.1685              1477.4739
 Red. masses --      1.5238                 1.2241                 1.1862
 Frc consts  --      1.8189                 1.4835                 1.5256
 IR Inten    --      4.0243                 8.6691                 1.5932

                     58                     59                     60
                      A                      A                      A
 Frequencies --   1480.3689              1513.2263              1520.0899
 Red. masses --      1.0849                 1.0790                 1.0899
 Frc consts  --      1.4008                 1.4558                 1.4839
 IR Inten    --      7.9729                 0.0499                 5.0024

                     61                     62                     63
                      A                      A                      A
 Frequencies --   1524.5558              1527.2739              1530.4389
 Red. masses --      1.0990                 1.0502                 1.0928
 Frc consts  --      1.5050                 1.4433                 1.5081
 IR Inten    --      6.3769                 8.7855                 4.8686

                     64                     65                     66
                      A                      A                      A
 Frequencies --   1536.3256              1735.0519              1841.4928
 Red. masses --      1.0617                 4.4794                12.5755
 Frc consts  --      1.4765                 7.9449                25.1255
 IR Inten    --     13.5664                 5.8124               202.3427

                     67                     68                     69
                      A                      A                      A
 Frequencies --   2987.1220              3013.9277              3024.8480
 Red. masses --      1.0802                 1.0801                 1.0632
 Frc consts  --      5.6788                 5.7805                 5.7317
 IR Inten    --      5.7977                11.8284                22.5169

                     70                     71                     72
                      A                      A                      A
 Frequencies --   3039.3313              3041.7670              3045.1880
 Red. masses --      1.0618                 1.0720                 1.0650
 Frc consts  --      5.7787                 5.8438                 5.8189
 IR Inten    --     12.3715                 8.2191                18.8754

                     73                     74                     75
                      A                      A                      A
 Frequencies --   3047.8459              3057.6029              3059.6416
 Red. masses --      1.0648                 1.0464                 1.0908
 Frc consts  --      5.8280                 5.7638                 6.0163
 IR Inten    --     41.7011                16.1174                59.4333

                     76                     77                     78
                      A                      A                      A
 Frequencies --   3079.2251              3088.0928              3106.1608
 Red. masses --      1.0974                 1.1039                 1.0973
 Frc consts  --      6.1304                 6.2023                 6.2375
 IR Inten    --     28.6080                74.0626                31.9086

                     79                     80                     81
                      A                      A                      A
 Frequencies --   3119.5169              3125.5140              3144.1108
 Red. masses --      1.0955                 1.0975                 1.0783
 Frc consts  --      6.2811                 6.3168                 6.2802
 IR Inten    --     17.7794                26.8665                28.1483

                     82                     83                     84
                      A                      A                      A
 Frequencies --   3147.6341              3156.2875              3234.4173
 Red. masses --      1.1023                 1.0710                 1.1155
 Frc consts  --      6.4344                 6.2865                 6.8759
 IR Inten    --     20.6981                 4.8792                20.5451

 - Thermochemistry -
 -------------------
 Temperature   298.150 Kelvin.  Pressure   1.00000 Atm.
 Atom     1 has atomic number  6 and mass  12.00000

 Molecular mass:   166.13577 amu.
 Principal axes and moments of inertia in atomic units:
                           1         2         3
     Eigenvalues --  1002.848743974.559294378.11984
           X            0.99996  -0.00853   0.00250
           Y            0.00850   0.99992   0.00959
           Z           -0.00258  -0.00957   0.99995
 This molecule is an asymmetric top.
 Rotational symmetry number  1.
 Warning -- assumption of classical behavior for rotation
           may cause significant error
 Rotational temperatures (Kelvin)      0.08637     0.02179     0.01978
 Rotational constants (GHZ):           1.79961     0.45407     0.41222
 Zero-point vibrational energy     708761.2 (Joules/Mol)
                                  169.39798 (Kcal/Mol)
 Warning -- explicit consideration of  18 degrees of freedom as
           vibrations may cause significant error
 Vibrational temperatures:     51.56    66.72    92.32   114.19   184.99
          (Kelvin)            241.52   296.37   322.52   378.76   390.21
                              441.51   507.12   594.67   634.68   671.93
                              716.49   789.76   801.33   913.28   968.90
                             1040.45  1092.87  1196.38  1224.05  1244.66
                             1326.27  1353.00  1374.61  1393.03  1428.94
                             1456.01  1467.57  1495.48  1509.87  1529.41
                             1576.11  1615.05  1628.40  1660.26  1695.23
                             1716.72  1756.03  1789.34  1806.52  1856.57
                             1880.92  1898.72  1901.59  1924.54  1936.83
                             1959.21  1981.73  2005.82  2028.98  2047.89
                             2063.45  2125.76  2129.92  2177.20  2187.07
                             2193.50  2197.41  2201.96  2210.43  2496.35
                             2649.50  4297.80  4336.37  4352.08  4372.92
                             4376.42  4381.35  4385.17  4399.21  4402.14
                             4430.32  4443.08  4469.07  4488.29  4496.92
                             4523.67  4528.74  4541.19  4653.61

 Zero-point correction=                           0.269953 (Hartree/Particle)
 Thermal correction to Energy=                    0.282909
 Thermal correction to Enthalpy=                  0.283853
 Thermal correction to Gibbs Free Energy=         0.229657
 Sum of electronic and zero-point Energies=           -504.999205
 Sum of electronic and thermal Energies=              -504.986249
 Sum of electronic and thermal Enthalpies=            -504.985305
 Sum of electronic and thermal Free Energies=         -505.039501

                     E (Thermal)             CV                S
                      KCal/Mol        Cal/Mol-Kelvin    Cal/Mol-Kelvin
 Total                  177.528             48.672            114.066
 Electronic               0.000              0.000              0.000
 Translational            0.889              2.981             41.231
 Rotational               0.889              2.981             31.235
 Vibrational            175.751             42.711             41.600
 Vibration     1          0.594              1.982              5.477
 Vibration     2          0.595              1.979              4.966
 Vibration     3          0.597              1.971              4.325
 Vibration     4          0.600              1.963              3.907
 Vibration     5          0.611              1.925              2.967
 Vibration     6          0.625              1.882              2.459
 Vibration     7          0.640              1.831              2.079
 Vibration     8          0.649              1.804              1.925
 Vibration     9          0.670              1.740              1.640
 Vibration    10          0.675              1.726              1.589
 Vibration    11          0.697              1.661              1.379
 Vibration    12          0.729              1.570              1.155
 Vibration    13          0.777              1.441              0.915
 Vibration    14          0.801              1.380              0.823
 Vibration    15          0.824              1.323              0.746
 Vibration    16          0.853              1.254              0.663
 Vibration    17          0.904              1.142              0.546
 Vibration    18          0.912              1.124              0.530

 Optimization completed.
    -- Stationary point found.
 Normal termination of Gaussian 16 at Wed Dec  9 17:00:38 2020.

 ----------------------------------------------------------------------
 # B3LYP/6-311++G(d,p) empiricaldispersion=gd3bj scf=xqc pop=npa geom=c
 heck
 ----------------------------------------------------------------------

 --------------------------------------
 CID_64906984_JID_2196_Energie_neutraal
 --------------------------------------
 Structure from the checkpoint file:  "JID_2196.chk"
 Charge =  0 Multiplicity = 1

 SCF Done:  E(RB3LYP) =  -505.413051391     A.U. after   14 cycles
 Normal termination of Gaussian 16 at Wed Dec  9 17:04:05 2020.

 ----------------------------------------------------------------------
 # B3LYP/6-311++G(d,p) empiricaldispersion=gd3bj scf=xqc pop=npa geom=c
 heck
 ----------------------------------------------------------------------

 ------------------------------------
 CID_64906984_JID_2196_Energie_kation
 ------------------------------------
 Structure from the checkpoint file:  "JID_2196.chk"
 Charge =  1 Multiplicity = 2

 SCF Done:  E(UB3LYP) =  -505.095298345     A.U. after   24 cycles
 Normal termination of Gaussian 16 at Wed Dec  9 17:13:45 2020.
 Gaussian 16:  ES64L-G16RevA.03 25-Dec-2016

 ----------------------------------------------------------------------
 # B3LYP/6-311++G(d,p) empiricaldispersion=gd3bj scf=xqc pop=npa geom=c
 heck
 ----------------------------------------------------------------------

 -----------------------------------
 CID_64906984_JID_2196_Energie_anion
 -----------------------------------
 Structure from the checkpoint file:  "JID_2196.chk"
 Charge = -1 Multiplicity = 2

                         Standard orientation:
 ---------------------------------------------------------------------
 Center     Atomic      Atomic             Coordinates (Angstroms)
 Number     Number       Type             X           Y           Z
 ---------------------------------------------------------------------
      1          6           0        1.077205    1.997181   -0.284333
      2          6           0        1.409579    0.640213    0.337483
      3          6           0        0.385256   -0.505798    0.182450
      4          6           0        1.250715   -1.787665    0.258523
      5          6           0        2.551385   -1.433500   -0.469019
      6          6           0        2.712339    0.070374   -0.250755
      7          8           0        3.698265    0.723096   -0.515960
      8          6           0       -0.757778   -0.539198    1.202795
      9          6           0       -1.756702    0.626768    1.167659
     10          6           0       -2.448417    0.859456   -0.191790
     11          6           0       -3.162410   -0.355441   -0.716680
     12          6           0       -4.486170   -0.477990   -0.815540
     13          1           0        1.964380    2.636884   -0.260155
     14          1           0        0.265443    2.504387    0.242819
     15          1           0        0.779753    1.878607   -1.332937
     16          1           0        1.610398    0.778039    1.413918
     17          1           0       -0.033735   -0.444938   -0.833321
     18          1           0        0.736643   -2.655972   -0.165097
     19          1           0        1.460896   -2.017568    1.311755
     20          1           0        2.460278   -1.595034   -1.552586
     21          1           0        3.440170   -1.978849   -0.138601
     22          1           0       -1.307530   -1.480620    1.067706
     23          1           0       -0.317733   -0.591393    2.208868
     24          1           0       -2.531795    0.433811    1.920121
     25          1           0       -1.257260    1.554631    1.471429
     26          1           0       -3.163534    1.684292   -0.085618
     27          1           0       -1.700353    1.188551   -0.925669
     28          1           0       -2.533303   -1.192205   -1.022440
     29          1           0       -4.953699   -1.383730   -1.192172
     30          1           0       -5.155150    0.329933   -0.525109
 ---------------------------------------------------------------------

 SCF Done:  E(UB3LYP) =  -505.398592733     A.U. after   33 cycles
 SCF Done:  E(UB3LYP) =  -505.398592733     a.u. after    1 cycles

 The electronic state is 2-A.
 Alpha  occ. eigenvalues --  -18.99160 -10.12987 -10.07684 -10.07247 -10.06929
 Alpha  occ. eigenvalues --  -10.06888 -10.06831 -10.06787 -10.06452 -10.06229
 Alpha  occ. eigenvalues --  -10.06139 -10.05352  -0.92576  -0.74327  -0.70628
 Alpha  occ. eigenvalues --   -0.66015  -0.64804  -0.60723  -0.55556  -0.54360
 Alpha  occ. eigenvalues --   -0.49930  -0.46796  -0.44411  -0.41571  -0.38213
 Alpha  occ. eigenvalues --   -0.37775  -0.35207  -0.34948  -0.33618  -0.32774
 Alpha  occ. eigenvalues --   -0.31986  -0.30794  -0.30096  -0.28658  -0.27660
 Alpha  occ. eigenvalues --   -0.27386  -0.26350  -0.25105  -0.24381  -0.23612
 Alpha  occ. eigenvalues --   -0.22977  -0.21901  -0.21645  -0.20650  -0.16346
 Alpha  occ. eigenvalues --   -0.13073   0.04820
 Alpha virt. eigenvalues --    0.06579   0.07127   0.07947   0.08142   0.08860
 Alpha virt. eigenvalues --    0.09290   0.09747   0.10329   0.10434   0.10932
 Alpha virt. eigenvalues --    0.11296   0.12223   0.13006   0.13344   0.13771

  Beta  occ. eigenvalues --  -18.99028 -10.12800 -10.07677 -10.07243 -10.06921
  Beta  occ. eigenvalues --  -10.06895 -10.06838 -10.06773 -10.06417 -10.06206
  Beta  occ. eigenvalues --  -10.06118 -10.05322  -0.92297  -0.74249  -0.70582
  Beta  occ. eigenvalues --   -0.65958  -0.64758  -0.60650  -0.55483  -0.54217
  Beta  occ. eigenvalues --   -0.49861  -0.46707  -0.44342  -0.41347  -0.38130
  Beta  occ. eigenvalues --   -0.37716  -0.35053  -0.34826  -0.33574  -0.32712
  Beta  occ. eigenvalues --   -0.31870  -0.30707  -0.29908  -0.28568  -0.27533
  Beta  occ. eigenvalues --   -0.27275  -0.26306  -0.25001  -0.24325  -0.23484
  Beta  occ. eigenvalues --   -0.22716  -0.21745  -0.21586  -0.20593  -0.16277
  Beta  occ. eigenvalues --   -0.12964
  Beta virt. eigenvalues --    0.06882   0.07660   0.07842   0.08408   0.09057
  Beta virt. eigenvalues --    0.09356   0.09447   0.10247   0.10689   0.10868
  Beta virt. eigenvalues --    0.11299   0.11634   0.12365   0.13242   0.13655

 Mulliken charges and spin densities:
               1          2
     1  C    0.773278  -1.546166
     2  C   -0.633756   0.861414
     3  C   -0.158990   0.533387
     4  C    0.351351  -0.727990
     5  C   -0.128924  -0.241945
     6  C   -0.307671   0.172169
     7  O   -0.334605   0.052011
     8  C    0.104819  -0.550291
     9  C    1.050724  -1.282477
    10  C   -0.031407  -0.230138
    11  C   -1.157391   1.352412
    12  C    1.191708  -1.865476
    13  H    0.137413   0.038317
    14  H   -0.081318   0.215717
    15  H   -0.064012   0.215863
    16  H   -0.342416   0.558076
    17  H    0.068315   0.076777
    18  H   -0.000932   0.137948
    19  H   -0.030853   0.175080
    20  H    0.209248  -0.044412
    21  H   -0.101089   0.286861
    22  H    0.036468   0.104108
    23  H   -0.220254   0.379590
    24  H   -0.157547   0.321104
    25  H   -0.050084   0.196463
    26  H   -0.632967   0.831709
    27  H    0.017037   0.089080
    28  H   -0.136212   0.297619
    29  H   -0.214243   0.326212
    30  H   -0.155691   0.266976
 Sum of Mulliken charges =  -1.00000   1.00000

 Dipole moment (field-independent basis, Debye):
    X=              1.1627    Y=             -2.8673    Z=             -2.1722  Tot=              3.7804
 Quadrupole moment (field-independent basis, Debye-Ang):
   XX=           -159.6389   YY=           -111.7984   ZZ=           -107.2575
   XY=              0.0138   XZ=             -3.1840   YZ=             -0.1987

 Summary of Natural Population Analysis:

                                       Natural Population
                Natural  -----------------------------------------------
    Atom  No    Charge         Core      Valence    Rydberg      Total
 -----------------------------------------------------------------------
      C    1   -0.28355      0.99965     2.27665    0.00725     3.28355
      C    2   -0.15818      0.99954     2.14752    0.01112     3.15818
      C    3   -0.10773      0.99958     2.09836    0.00979     3.10773
      C    4   -0.18661      0.99963     2.17850    0.00849     3.18661
      C    5   -0.24130      0.99959     2.23353    0.00817     3.24130
      C    6    0.32749      0.99965     1.65023    0.02263     2.67251
      O    7   -0.28410      0.99987     3.27761    0.00662     4.28410
      C    8   -0.18762      0.99961     2.17806    0.00995     3.18762
      C    9   -0.18361      0.99962     2.17513    0.00886     3.18361
      C   10   -0.21156      0.99961     2.20173    0.01023     3.21156
      C   11   -0.08171      0.99956     2.07119    0.01096     3.08171
      C   12   -0.19058      0.99956     2.18443    0.00659     3.19058
      H   13    0.10778      0.00000     0.39127    0.00095     0.39222
      H   14    0.10088      0.00000     0.39785    0.00127     0.39912
      H   15    0.09499      0.00000     0.40400    0.00102     0.40501
      H   16    0.11356      0.00000     0.38370    0.00274     0.38644
      H   17    0.09171      0.00000     0.40608    0.00222     0.40829
      H   18    0.09760      0.00000     0.40154    0.00085     0.40240
      H   19    0.09685      0.00000     0.40171    0.00144     0.40315
      H   20    0.10768      0.00000     0.39134    0.00098     0.39232
      H   21    0.11082      0.00000     0.38764    0.00154     0.38918
      H   22    0.09508      0.00000     0.40353    0.00139     0.40492
      H   23    0.10047      0.00000     0.39817    0.00136     0.39953
      H   24    0.09718      0.00000     0.40151    0.00131     0.40282
      H   25    0.09975      0.00000     0.39845    0.00180     0.40025
      H   26    0.10161      0.00000     0.39688    0.00151     0.39839
      H   27    0.10119      0.00000     0.39718    0.00164     0.39881
      H   28    0.09002      0.00000     0.40869    0.00130     0.40998
      H   29    0.09159      0.00000     0.40723    0.00119     0.40841
      H   30    0.09032      0.00000     0.40816    0.00152     0.40968
 =======================================================================
   * Total *    0.00000     11.99546    33.85784    0.14671    46.00000

 Normal termination of Gaussian 16 at Wed Dec  9 17:25:48 2020.
