 Gaussian 16, Revision A.03,

 -----------------------------------------------------------
 # opt freq B3LYP/6-31G(d) empiricaldispersion=gd3bj scf=xqc
 -----------------------------------------------------------

 -----------------------------
 CID_20089290_JID_388_neutraal
 -----------------------------
 Symbolic Z-matrix:
 Charge =  0 Multiplicity = 1

 SCF Done:  E(RB3LYP) =  -481.049209016     A.U. after   13 cycles
 SCF Done:  E(RB3LYP) =  -481.050532239     A.U. after   11 cycles
 SCF Done:  E(RB3LYP) =  -481.050546473     A.U. after   11 cycles
 SCF Done:  E(RB3LYP) =  -481.050694312     A.U. after   10 cycles
 SCF Done:  E(RB3LYP) =  -481.050712550     A.U. after   10 cycles
 SCF Done:  E(RB3LYP) =  -481.050718376     A.U. after    9 cycles
 SCF Done:  E(RB3LYP) =  -481.050721308     A.U. after    8 cycles
 SCF Done:  E(RB3LYP) =  -481.050725941     A.U. after   10 cycles
 SCF Done:  E(RB3LYP) =  -481.050726982     A.U. after    8 cycles
 SCF Done:  E(RB3LYP) =  -481.050727172     A.U. after    8 cycles
 SCF Done:  E(RB3LYP) =  -481.050727209     A.U. after    7 cycles
 SCF Done:  E(RB3LYP) =  -481.050727219     A.U. after    6 cycles
 Optimization completed.
    -- Stationary point found.
 Normal termination of Gaussian 16 at Tue Dec  8 10:30:57 2020.

 --------------------------------------------------------------------
 #N Geom=AllCheck Guess=TCheck SCRF=Check GenChk RB3LYP/6-31G(d) Freq
 --------------------------------------------------------------------

 Structure from the checkpoint file:  "JID_388.chk"
 -----------------------------
 CID_20089290_JID_388_neutraal
 -----------------------------
 Charge =  0 Multiplicity = 1

 SCF Done:  E(RB3LYP) =  -481.050727219     A.U. after    1 cycles

  Exact polarizability: 100.348   3.766  82.819   3.411  -3.096  75.828
 Approx polarizability: 127.694   9.313 115.319   9.492  -6.369 110.183

                      1                      2                      3
                      A                      A                      A
 Frequencies --     49.1012                52.6418                63.7025
 Red. masses --      2.9714                 4.2066                 7.7452
 Frc consts  --      0.0042                 0.0069                 0.0185
 IR Inten    --      0.0274                 0.3879                 0.2048

                      4                      5                      6
                      A                      A                      A
 Frequencies --    100.6286               182.1357               198.7979
 Red. masses --      2.4393                 2.9003                 2.4942
 Frc consts  --      0.0146                 0.0567                 0.0581
 IR Inten    --      0.0129                 0.7942                 0.6495

                      7                      8                      9
                      A                      A                      A
 Frequencies --    236.0127               244.8803               266.2250
 Red. masses --      1.0616                 1.1594                 1.2924
 Frc consts  --      0.0348                 0.0410                 0.0540
 IR Inten    --      0.2031                 0.0528                 0.0478

                     10                     11                     12
                      A                      A                      A
 Frequencies --    314.3612               328.0491               394.2780
 Red. masses --      2.3606                 2.8336                 2.5618
 Frc consts  --      0.1374                 0.1797                 0.2346
 IR Inten    --      0.3748                 1.4208                 2.4725

                     13                     14                     15
                      A                      A                      A
 Frequencies --    423.2951               434.5605               483.5704
 Red. masses --      2.4380                 2.8613                 1.7728
 Frc consts  --      0.2574                 0.3184                 0.2442
 IR Inten    --      1.1939                 0.6407                 3.3031

                     16                     17                     18
                      A                      A                      A
 Frequencies --    503.9314               571.9388               589.2562
 Red. masses --      1.4277                 1.2276                 3.2607
 Frc consts  --      0.2136                 0.2366                 0.6671
 IR Inten    --     23.8662               131.5668                38.5077

                     19                     20                     21
                      A                      A                      A
 Frequencies --    629.9952               765.7898               832.9726
 Red. masses --      2.9115                10.2211                 2.5974
 Frc consts  --      0.6808                 3.5316                 1.0618
 IR Inten    --     51.3612                51.3779                 0.5842

                     22                     23                     24
                      A                      A                      A
 Frequencies --    852.0749               901.3208               918.7656
 Red. masses --      1.9202                 1.6563                 2.2691
 Frc consts  --      0.8214                 0.7927                 1.1285
 IR Inten    --      5.9224                 2.6621                 1.4612

                     25                     26                     27
                      A                      A                      A
 Frequencies --    944.3259               976.5453               983.7304
 Red. masses --      1.1796                 1.8550                 1.5300
 Frc consts  --      0.6198                 1.0423                 0.8724
 IR Inten    --      1.5167                 1.7116                 2.1435

                     28                     29                     30
                      A                      A                      A
 Frequencies --   1019.6977              1048.4957              1101.6911
 Red. masses --      2.1565                 1.3759                 2.8035
 Frc consts  --      1.3211                 0.8912                 2.0048
 IR Inten    --     26.7949                 3.9874                14.1013

                     31                     32                     33
                      A                      A                      A
 Frequencies --   1169.6400              1198.6297              1199.6366
 Red. masses --      2.2780                 2.1552                 2.0518
 Frc consts  --      1.8361                 1.8244                 1.7398
 IR Inten    --      5.3514                43.8668                56.6575

                     34                     35                     36
                      A                      A                      A
 Frequencies --   1210.2724              1233.7846              1288.1320
 Red. masses --      1.8453                 1.6268                 1.3670
 Frc consts  --      1.5926                 1.4591                 1.3364
 IR Inten    --      1.7003               178.9252                 1.8116

                     37                     38                     39
                      A                      A                      A
 Frequencies --   1330.9494              1363.2339              1379.4263
 Red. masses --      1.2499                 1.3067                 1.3608
 Frc consts  --      1.3045                 1.4307                 1.5256
 IR Inten    --      0.5786                 4.0061                 1.6408

                     40                     41                     42
                      A                      A                      A
 Frequencies --   1398.5183              1417.5407              1431.1175
 Red. masses --      1.2817                 1.4602                 1.2676
 Frc consts  --      1.4770                 1.7287                 1.5296
 IR Inten    --      4.6630                 8.3317                 4.0014

                     43                     44                     45
                      A                      A                      A
 Frequencies --   1441.4300              1450.7919              1461.0146
 Red. masses --      1.2599                 1.2415                 2.8230
 Frc consts  --      1.5424                 1.5395                 3.5503
 IR Inten    --      9.6513                11.4191               115.9948

                     46                     47                     48
                      A                      A                      A
 Frequencies --   1490.6493              1510.1258              1519.2252
 Red. masses --      1.5979                 1.0975                 1.0524
 Frc consts  --      2.0920                 1.4747                 1.4312
 IR Inten    --     42.3123                 5.1411                 0.8798

                     49                     50                     51
                      A                      A                      A
 Frequencies --   1524.8650              1528.7023              1532.6408
 Red. masses --      1.0531                 1.0497                 1.0764
 Frc consts  --      1.4427                 1.4453                 1.4898
 IR Inten    --      2.7498                 5.9716                 3.6562

                     52                     53                     54
                      A                      A                      A
 Frequencies --   1536.5609              1542.7043              1851.8530
 Red. masses --      1.0587                 1.0492                 7.5771
 Frc consts  --      1.4727                 1.4712                15.3098
 IR Inten    --      1.8718                13.8057               636.1409

                     55                     56                     57
                      A                      A                      A
 Frequencies --   3022.6146              3025.0471              3038.8692
 Red. masses --      1.0825                 1.0616                 1.0356
 Frc consts  --      5.8270                 5.7237                 5.6349
 IR Inten    --     14.9672                21.6336                35.6307

                     58                     59                     60
                      A                      A                      A
 Frequencies --   3044.8957              3046.8823              3072.4961
 Red. masses --      1.0372                 1.0430                 1.0990
 Frc consts  --      5.6656                 5.7049                 6.1126
 IR Inten    --     18.2863                17.8988                20.0976

                     61                     62                     63
                      A                      A                      A
 Frequencies --   3103.2577              3106.6528              3109.5434
 Red. masses --      1.1012                 1.0911                 1.1010
 Frc consts  --      6.2482                 6.2044                 6.2722
 IR Inten    --     10.3432                11.3952                52.5735

                     64                     65                     66
                      A                      A                      A
 Frequencies --   3112.3450              3115.2722              3126.5723
 Red. masses --      1.1014                 1.1002                 1.0924
 Frc consts  --      6.2858                 6.2910                 6.2915
 IR Inten    --     36.9950                47.3032                40.9002

                     67                     68                     69
                      A                      A                      A
 Frequencies --   3142.8055              3622.0275              3738.3990
 Red. masses --      1.1023                 1.0764                 1.0646
 Frc consts  --      6.4150                 8.3198                 8.7665
 IR Inten    --     26.2469                26.0151                76.7107

 - Thermochemistry -
 -------------------
 Temperature   298.150 Kelvin.  Pressure   1.00000 Atm.
 Atom     1 has atomic number  6 and mass  12.00000

 Molecular mass:   145.11028 amu.
 Principal axes and moments of inertia in atomic units:
                           1         2         3
     Eigenvalues --   868.884182710.970932975.48793
           X            0.99986  -0.01634  -0.00471
           Y            0.01637   0.99984   0.00660
           Z            0.00460  -0.00668   0.99997
 This molecule is an asymmetric top.
 Rotational symmetry number  1.
 Warning -- assumption of classical behavior for rotation
           may cause significant error
 Rotational temperatures (Kelvin)      0.09968     0.03195     0.02911
 Rotational constants (GHZ):           2.07708     0.66572     0.60654
 Zero-point vibrational energy     585284.3 (Joules/Mol)
                                  139.88631 (Kcal/Mol)
 Warning -- explicit consideration of  18 degrees of freedom as
           vibrations may cause significant error
 Vibrational temperatures:     70.65    75.74    91.65   144.78   262.05
          (Kelvin)            286.03   339.57   352.33   383.04   452.30
                              471.99   567.28   609.03   625.24   695.75
                              725.04   822.89   847.81   906.42  1101.80
                             1198.46  1225.95  1296.80  1321.90  1358.67
                             1405.03  1415.37  1467.12  1508.55  1585.09
                             1682.85  1724.56  1726.01  1741.31  1775.14
                             1853.33  1914.94  1961.39  1984.69  2012.16
                             2039.52  2059.06  2073.90  2087.37  2102.07
                             2144.71  2172.73  2185.83  2193.94  2199.46
                             2205.13  2210.77  2219.61  2664.40  4348.87
                             4352.37  4372.26  4380.93  4383.78  4420.64
                             4464.90  4469.78  4473.94  4477.97  4482.18
                             4498.44  4521.80  5211.29  5378.72

 Zero-point correction=                           0.222923 (Hartree/Particle)
 Thermal correction to Energy=                    0.234929
 Thermal correction to Enthalpy=                  0.235873
 Thermal correction to Gibbs Free Energy=         0.184513
 Sum of electronic and zero-point Energies=           -480.827804
 Sum of electronic and thermal Energies=              -480.815798
 Sum of electronic and thermal Enthalpies=            -480.814854
 Sum of electronic and thermal Free Energies=         -480.866214

                     E (Thermal)             CV                S
                      KCal/Mol        Cal/Mol-Kelvin    Cal/Mol-Kelvin
 Total                  147.420             43.774            108.096
 Electronic               0.000              0.000              0.000
 Translational            0.889              2.981             40.828
 Rotational               0.889              2.981             30.328
 Vibrational            145.643             37.813             36.940
 Vibration     1          0.595              1.978              4.853
 Vibration     2          0.596              1.977              4.716
 Vibration     3          0.597              1.972              4.339
 Vibration     4          0.604              1.949              3.442
 Vibration     5          0.630              1.864              2.306
 Vibration     6          0.637              1.842              2.144
 Vibration     7          0.655              1.786              1.833
 Vibration     8          0.660              1.771              1.767
 Vibration     9          0.672              1.735              1.621
 Vibration    10          0.702              1.646              1.339
 Vibration    11          0.711              1.619              1.270
 Vibration    12          0.761              1.482              0.984
 Vibration    13          0.785              1.420              0.881
 Vibration    14          0.795              1.395              0.844
 Vibration    15          0.840              1.286              0.701
 Vibration    16          0.859              1.241              0.648
 Vibration    17          0.928              1.092              0.501
 Vibration    18          0.947              1.055              0.469

 Optimization completed.
    -- Stationary point found.
 Normal termination of Gaussian 16 at Tue Dec  8 10:35:22 2020.

 ----------------------------------------------------------------------
 # B3LYP/6-311++G(d,p) empiricaldispersion=gd3bj scf=xqc pop=npa geom=c
 heck
 ----------------------------------------------------------------------

 -------------------------------------
 CID_20089290_JID_388_Energie_neutraal
 -------------------------------------
 Structure from the checkpoint file:  "JID_388.chk"
 Charge =  0 Multiplicity = 1

 SCF Done:  E(RB3LYP) =  -481.206349120     A.U. after   13 cycles
 Normal termination of Gaussian 16 at Tue Dec  8 10:39:39 2020.

 ----------------------------------------------------------------------
 # B3LYP/6-311++G(d,p) empiricaldispersion=gd3bj scf=xqc pop=npa geom=c
 heck
 ----------------------------------------------------------------------

 -----------------------------------
 CID_20089290_JID_388_Energie_kation
 -----------------------------------
 Structure from the checkpoint file:  "JID_388.chk"
 Charge =  1 Multiplicity = 2

 SCF Done:  E(UB3LYP) =  -480.866155899     A.U. after   22 cycles
 Normal termination of Gaussian 16 at Tue Dec  8 10:44:27 2020.
 Gaussian 16:  ES64L-G16RevA.03 25-Dec-2016

 ----------------------------------------------------------------------
 # B3LYP/6-311++G(d,p) empiricaldispersion=gd3bj scf=xqc pop=npa geom=c
 heck
 ----------------------------------------------------------------------

 ----------------------------------
 CID_20089290_JID_388_Energie_anion
 ----------------------------------
 Structure from the checkpoint file:  "JID_388.chk"
 Charge = -1 Multiplicity = 2

                         Standard orientation:
 ---------------------------------------------------------------------
 Center     Atomic      Atomic             Coordinates (Angstroms)
 Number     Number       Type             X           Y           Z
 ---------------------------------------------------------------------
      1          6           0        2.389478   -0.500296    1.322175
      2          6           0        2.248898   -0.047052   -0.137199
      3          6           0        3.091113   -0.935728   -1.061624
      4          6           0        0.783459   -0.048276   -0.606180
      5          6           0       -0.192880    0.808366    0.220191
      6          6           0        0.172951    2.292744    0.235268
      7          7           0       -1.562034    0.672539   -0.287381
      8          6           0       -2.389292   -0.385323   -0.073507
      9          8           0       -3.449403   -0.579123   -0.642133
     10          8           0       -1.906876   -1.221625    0.895154
     11          1           0        1.947514   -1.494778    1.463172
     12          1           0        1.893931    0.184850    2.018478
     13          1           0        3.444735   -0.558314    1.612198
     14          1           0        2.639652    0.977450   -0.216587
     15          1           0        2.753297   -1.978644   -1.011439
     16          1           0        3.015452   -0.610600   -2.105812
     17          1           0        4.149081   -0.913418   -0.776187
     18          1           0        0.738662    0.291464   -1.651075
     19          1           0        0.411329   -1.081071   -0.595655
     20          1           0       -0.213644    0.438231    1.247718
     21          1           0        0.213890    2.696327   -0.785069
     22          1           0       -0.565664    2.866345    0.803469
     23          1           0        1.154650    2.448032    0.691271
     24          1           0       -1.831111    1.234215   -1.083856
     25          1           0       -2.589667   -1.908500    0.982133
 ---------------------------------------------------------------------

 SCF Done:  E(UB3LYP) =  -481.192407459     A.U. after   28 cycles

 The electronic state is 2-A.
 Alpha  occ. eigenvalues --  -19.06424 -18.99566 -14.23626 -10.22015 -10.11064
 Alpha  occ. eigenvalues --  -10.07074 -10.06095 -10.06053 -10.05444 -10.05290
 Alpha  occ. eigenvalues --   -1.00817  -0.91224  -0.83288  -0.71170  -0.66119
 Alpha  occ. eigenvalues --   -0.58471  -0.58067  -0.54029  -0.51681  -0.45524
 Alpha  occ. eigenvalues --   -0.42798  -0.38788  -0.37507  -0.36736  -0.35906
 Alpha  occ. eigenvalues --   -0.33510  -0.32291  -0.32036  -0.30815  -0.28920
 Alpha  occ. eigenvalues --   -0.28464  -0.27371  -0.25636  -0.24941  -0.23890
 Alpha  occ. eigenvalues --   -0.22428  -0.22349  -0.21728  -0.18327  -0.15854
 Alpha  occ. eigenvalues --    0.04562
 Alpha virt. eigenvalues --    0.06849   0.07354   0.08107   0.09522   0.09798
 Alpha virt. eigenvalues --    0.10209   0.10784   0.11729   0.12591   0.12808
 Alpha virt. eigenvalues --    0.13255   0.13828   0.14461   0.14607   0.15395

  Beta  occ. eigenvalues --  -19.06388 -18.99559 -14.23605 -10.22010 -10.11053
  Beta  occ. eigenvalues --  -10.07058 -10.06047 -10.06034 -10.05415 -10.05258
  Beta  occ. eigenvalues --   -1.00767  -0.91187  -0.83251  -0.71132  -0.66072
  Beta  occ. eigenvalues --   -0.58404  -0.58003  -0.53958  -0.51608  -0.45451
  Beta  occ. eigenvalues --   -0.42759  -0.38752  -0.37465  -0.36692  -0.35865
  Beta  occ. eigenvalues --   -0.33471  -0.32249  -0.31989  -0.30774  -0.28875
  Beta  occ. eigenvalues --   -0.28427  -0.27329  -0.25593  -0.24891  -0.23851
  Beta  occ. eigenvalues --   -0.22390  -0.22307  -0.21682  -0.18301  -0.15834
  Beta virt. eigenvalues --    0.06922   0.07919   0.08240   0.08849   0.10177
  Beta virt. eigenvalues --    0.10326   0.10808   0.11259   0.12188   0.13069
  Beta virt. eigenvalues --    0.13231   0.13503   0.14071   0.14719   0.14926

 Mulliken charges and spin densities:
               1          2
     1  C    0.809124  -1.515691
     2  C   -1.992929   2.346061
     3  C    0.940619  -1.534450
     4  C    1.556107  -1.329663
     5  C   -1.374398   0.456067
     6  C    1.358941  -1.998461
     7  N   -0.015142  -0.010067
     8  C    0.274891  -0.016799
     9  O   -0.366339   0.013618
    10  O   -0.198777   0.000558
    11  H   -0.129597   0.282422
    12  H   -0.037199   0.166310
    13  H   -0.253987   0.400085
    14  H   -0.075176   0.220992
    15  H   -0.015534   0.144995
    16  H   -0.347415   0.482027
    17  H   -0.323022   0.464935
    18  H    0.071800   0.056687
    19  H    0.083276   0.071155
    20  H    0.171536   0.065357
    21  H   -0.476618   0.632559
    22  H   -0.325540   0.479006
    23  H   -0.412425   0.586029
    24  H    0.175700   0.136048
    25  H   -0.097896   0.400221
 Sum of Mulliken charges =  -1.00000   1.00000

 Dipole moment (field-independent basis, Debye):
    X=             -1.8578    Y=             -1.3846    Z=              0.1965  Tot=              2.3253
 Quadrupole moment (field-independent basis, Debye-Ang):
   XX=           -130.9440   YY=           -104.2854   ZZ=            -96.6770
   XY=             -2.9673   XZ=             -1.6515   YZ=              0.7352

 Summary of Natural Population Analysis:

                                       Natural Population
                Natural  -----------------------------------------------
    Atom  No    Charge         Core      Valence    Rydberg      Total
 -----------------------------------------------------------------------
      C    1   -0.28673      0.99965     2.28068    0.00640     3.28673
      C    2   -0.11685      0.99962     2.10707    0.01016     3.11685
      C    3   -0.27958      0.99965     2.27472    0.00521     3.27958
      C    4   -0.18920      0.99959     2.18128    0.00833     3.18920
      C    5   -0.01383      0.99959     2.00202    0.01223     3.01383
      C    6   -0.28920      0.99964     2.28315    0.00640     3.28920
      N    7   -0.32615      0.99965     2.81542    0.01108     3.82615
      C    8    0.45867      0.99972     1.51763    0.02397     2.54133
      O    9   -0.34035      0.99987     3.33454    0.00594     4.34035
      O   10   -0.35407      0.99988     3.34797    0.00621     4.35407
      H   11    0.09770      0.00000     0.40120    0.00110     0.40230
      H   12    0.09919      0.00000     0.39966    0.00115     0.40081
      H   13    0.10007      0.00000     0.39887    0.00106     0.39993
      H   14    0.09416      0.00000     0.40346    0.00238     0.40584
      H   15    0.09487      0.00000     0.40393    0.00121     0.40513
      H   16    0.09907      0.00000     0.39959    0.00134     0.40093
      H   17    0.09901      0.00000     0.39973    0.00126     0.40099
      H   18    0.09786      0.00000     0.40065    0.00149     0.40214
      H   19    0.10106      0.00000     0.39717    0.00177     0.39894
      H   20    0.10404      0.00000     0.39333    0.00263     0.39596
      H   21    0.09886      0.00000     0.39940    0.00175     0.40114
      H   22    0.10368      0.00000     0.39500    0.00133     0.39632
      H   23    0.10629      0.00000     0.39218    0.00153     0.39371
      H   24    0.19721      0.00000     0.30069    0.00211     0.30279
      H   25    0.24422      0.00000     0.25045    0.00534     0.25578
 =======================================================================
   * Total *   -0.00000      9.99687    29.87977    0.12336    40.00000

 Normal termination of Gaussian 16 at Tue Dec  8 10:51:04 2020.
