 Gaussian 16, Revision A.03,

 -----------------------------------------------------------
 # opt freq B3LYP/6-31G(d) empiricaldispersion=gd3bj scf=xqc
 -----------------------------------------------------------

 --------------------------------
 CID_114362173_JID_10974_neutraal
 --------------------------------
 Symbolic Z-matrix:
 Charge =  0 Multiplicity = 1

 SCF Done:  E(RB3LYP) =  -1205.93694329     A.U. after   15 cycles
 SCF Done:  E(RB3LYP) =  -1205.94362502     A.U. after   12 cycles
 SCF Done:  E(RB3LYP) =  -1205.94519762     A.U. after   12 cycles
 SCF Done:  E(RB3LYP) =  -1205.94595339     A.U. after   12 cycles
 SCF Done:  E(RB3LYP) =  -1205.94648486     A.U. after   12 cycles
 SCF Done:  E(RB3LYP) =  -1205.94683371     A.U. after   12 cycles
 SCF Done:  E(RB3LYP) =  -1205.94701729     A.U. after   12 cycles
 SCF Done:  E(RB3LYP) =  -1205.94710432     A.U. after   11 cycles
 SCF Done:  E(RB3LYP) =  -1205.94738367     A.U. after   11 cycles
 SCF Done:  E(RB3LYP) =  -1205.94754253     A.U. after   12 cycles
 SCF Done:  E(RB3LYP) =  -1205.94756380     A.U. after    8 cycles
 SCF Done:  E(RB3LYP) =  -1205.94756392     A.U. after    8 cycles
 SCF Done:  E(RB3LYP) =  -1205.94756391     A.U. after    7 cycles
 SCF Done:  E(RB3LYP) =  -1205.94756390     A.U. after    7 cycles
 SCF Done:  E(RB3LYP) =  -1205.94756390     A.U. after    6 cycles
 Optimization completed.
    -- Stationary point found.
 Normal termination of Gaussian 16 at Sat Dec 12 16:43:32 2020.

 --------------------------------------------------------------------
 #N Geom=AllCheck Guess=TCheck SCRF=Check GenChk RB3LYP/6-31G(d) Freq
 --------------------------------------------------------------------

 Structure from the checkpoint file:  "JID_10974.chk"
 --------------------------------
 CID_114362173_JID_10974_neutraal
 --------------------------------
 Charge =  0 Multiplicity = 1

 SCF Done:  E(RB3LYP) =  -1205.94756390     A.U. after    1 cycles

  Exact polarizability: 220.003   1.835 219.902 -14.634  -6.806 150.697
 Approx polarizability: 293.892  15.368 347.340 -31.717 -25.492 257.802

                      1                      2                      3
                      A                      A                      A
 Frequencies --     13.1568                23.4821                31.4967
 Red. masses --      4.6434                 3.6999                 3.0011
 Frc consts  --      0.0005                 0.0012                 0.0018
 IR Inten    --      0.2125                 0.0886                 0.1581

                      4                      5                      6
                      A                      A                      A
 Frequencies --     37.9034                54.6428                67.8711
 Red. masses --      4.2743                 3.0199                 3.2206
 Frc consts  --      0.0036                 0.0053                 0.0087
 IR Inten    --      0.9465                 0.0496                 4.0687

                      7                      8                      9
                      A                      A                      A
 Frequencies --     88.2793                97.2960               115.5961
 Red. masses --      4.5840                 3.4312                 4.5985
 Frc consts  --      0.0210                 0.0191                 0.0362
 IR Inten    --      2.0540                 4.0288                 1.3139

                     10                     11                     12
                      A                      A                      A
 Frequencies --    147.2011               165.8256               214.8650
 Red. masses --      4.1118                 3.7170                 1.9308
 Frc consts  --      0.0525                 0.0602                 0.0525
 IR Inten    --      2.5248                 3.3569                 2.4790

                     13                     14                     15
                      A                      A                      A
 Frequencies --    228.6078               239.3403               249.0668
 Red. masses --      1.3416                 1.3381                 2.2825
 Frc consts  --      0.0413                 0.0452                 0.0834
 IR Inten    --      0.4781                 3.0438                 4.0160

                     16                     17                     18
                      A                      A                      A
 Frequencies --    261.6487               266.9301               276.7888
 Red. masses --      2.0691                 1.6270                 2.5547
 Frc consts  --      0.0835                 0.0683                 0.1153
 IR Inten    --      1.9319                14.4716                 1.2888

                     19                     20                     21
                      A                      A                      A
 Frequencies --    301.2111               317.4757               324.9981
 Red. masses --      2.8223                 2.8534                 1.6559
 Frc consts  --      0.1509                 0.1694                 0.1030
 IR Inten    --      0.1618                 0.2984                34.1959

                     22                     23                     24
                      A                      A                      A
 Frequencies --    357.9279               373.4657               409.7364
 Red. masses --      2.1488                 3.3602                 2.6258
 Frc consts  --      0.1622                 0.2761                 0.2597
 IR Inten    --     10.4343                 0.9093                 2.4334

                     25                     26                     27
                      A                      A                      A
 Frequencies --    425.0886               450.3844               476.1797
 Red. masses --      1.9673                 3.6289                 3.7307
 Frc consts  --      0.2095                 0.4337                 0.4984
 IR Inten    --      0.4776                 1.7667                 1.6155

                     28                     29                     30
                      A                      A                      A
 Frequencies --    497.3679               518.6978               549.4864
 Red. masses --      3.5569                 5.7637                 4.0318
 Frc consts  --      0.5184                 0.9137                 0.7172
 IR Inten    --      1.5455                 5.9129                 0.3645

                     31                     32                     33
                      A                      A                      A
 Frequencies --    586.5743               597.2461               627.6510
 Red. masses --      5.3471                 5.3620                 5.1417
 Frc consts  --      1.0840                 1.1269                 1.1934
 IR Inten    --      3.7413                 6.0066                 3.1814

                     34                     35                     36
                      A                      A                      A
 Frequencies --    641.9897               672.0240               686.1148
 Red. masses --      5.3060                 5.1720                 5.0617
 Frc consts  --      1.2885                 1.3762                 1.4039
 IR Inten    --      2.5597                 9.7050                 4.6434

                     37                     38                     39
                      A                      A                      A
 Frequencies --    730.1983               764.3978               767.5567
 Red. masses --      5.4225                 1.4632                 3.7068
 Frc consts  --      1.7035                 0.5037                 1.2867
 IR Inten    --      3.2776                52.0038                 1.7847

                     40                     41                     42
                      A                      A                      A
 Frequencies --    785.5155               830.3330               845.5915
 Red. masses --      3.8571                 2.7899                 2.9944
 Frc consts  --      1.4023                 1.1333                 1.2615
 IR Inten    --      6.4828                 0.3957                 3.0765

                     43                     44                     45
                      A                      A                      A
 Frequencies --    865.1454               870.4797               898.3089
 Red. masses --      1.8236                 1.2780                 1.5452
 Frc consts  --      0.8042                 0.5706                 0.7346
 IR Inten    --      2.5653               108.1152                 2.6654

                     46                     47                     48
                      A                      A                      A
 Frequencies --    926.6000               933.2562               943.5181
 Red. masses --      2.3343                 1.3876                 1.1977
 Frc consts  --      1.1808                 0.7121                 0.6282
 IR Inten    --     22.1568                 2.0082                 0.7516

                     49                     50                     51
                      A                      A                      A
 Frequencies --    960.4485               967.4313               969.7075
 Red. masses --      1.9250                 1.9119                 1.2547
 Frc consts  --      1.0462                 1.0543                 0.6951
 IR Inten    --      1.5087                 3.9735                 0.0719

                     52                     53                     54
                      A                      A                      A
 Frequencies --    981.1378              1058.5528              1060.3421
 Red. masses --      1.5310                 2.3410                 3.3119
 Frc consts  --      0.8683                 1.5455                 2.1939
 IR Inten    --      0.3815                 7.0836                 9.4297

                     55                     56                     57
                      A                      A                      A
 Frequencies --   1070.2666              1085.7427              1110.4534
 Red. masses --      3.9866                 2.7556                 2.0162
 Frc consts  --      2.6905                 1.9139                 1.4648
 IR Inten    --     30.8912                22.5955                 3.4682

                     58                     59                     60
                      A                      A                      A
 Frequencies --   1136.5205              1151.0386              1161.8566
 Red. masses --      2.0533                 2.1288                 1.9111
 Frc consts  --      1.5626                 1.6618                 1.5200
 IR Inten    --      8.9846                 1.5837                42.6301

                     61                     62                     63
                      A                      A                      A
 Frequencies --   1182.9612              1187.1537              1197.8061
 Red. masses --      1.4404                 1.2719                 1.1023
 Frc consts  --      1.1877                 1.0561                 0.9318
 IR Inten    --     15.7977                 0.7404                 4.3288

                     64                     65                     66
                      A                      A                      A
 Frequencies --   1204.3543              1209.4142              1217.4842
 Red. masses --      1.7787                 2.1181                 2.2692
 Frc consts  --      1.5201                 1.8254                 1.9818
 IR Inten    --     10.1255                10.6574                 2.0596

                     67                     68                     69
                      A                      A                      A
 Frequencies --   1227.0180              1253.7278              1269.9067
 Red. masses --      1.5798                 1.5531                 1.5677
 Frc consts  --      1.4014                 1.4383                 1.4896
 IR Inten    --      1.0284                 8.8650                 4.6024

                     70                     71                     72
                      A                      A                      A
 Frequencies --   1296.4805              1319.0669              1330.8401
 Red. masses --      4.0432                 1.2857                 1.3209
 Frc consts  --      4.0041                 1.3180                 1.3784
 IR Inten    --    159.5718                 8.8419                 8.9920

                     73                     74                     75
                      A                      A                      A
 Frequencies --   1333.5363              1346.0647              1365.3880
 Red. masses --      1.4507                 1.5283                 2.5626
 Frc consts  --      1.5200                 1.6316                 2.8148
 IR Inten    --      5.4668                 1.5308                 3.5470

                     76                     77                     78
                      A                      A                      A
 Frequencies --   1379.1636              1386.1592              1395.7598
 Red. masses --      3.9830                 1.3927                 1.6992
 Frc consts  --      4.4637                 1.5766                 1.9504
 IR Inten    --     21.5190                 2.0168                 8.3633

                     79                     80                     81
                      A                      A                      A
 Frequencies --   1430.9092              1435.1098              1450.6392
 Red. masses --      1.2719                 1.4742                 1.2365
 Frc consts  --      1.5343                 1.7888                 1.5331
 IR Inten    --      3.7620                29.8226                 3.1295

                     82                     83                     84
                      A                      A                      A
 Frequencies --   1492.5581              1497.5251              1502.9978
 Red. masses --      1.4214                 1.0995                 1.1169
 Frc consts  --      1.8657                 1.4527                 1.4865
 IR Inten    --     22.2637                 6.2381                 4.1457

                     85                     86                     87
                      A                      A                      A
 Frequencies --   1511.2079              1516.6008              1520.1395
 Red. masses --      1.8140                 1.0533                 1.0484
 Frc consts  --      2.4409                 1.4275                 1.4274
 IR Inten    --      1.9275                 3.6721                 5.6300

                     88                     89                     90
                      A                      A                      A
 Frequencies --   1523.3255              1532.4030              1533.5209
 Red. masses --      1.0576                 1.1437                 1.0715
 Frc consts  --      1.4460                 1.5824                 1.4846
 IR Inten    --      3.7250                47.7656                 1.8441

                     91                     92                     93
                      A                      A                      A
 Frequencies --   1534.4051              1538.0188              1545.0510
 Red. masses --      1.0602                 1.0743                 3.6552
 Frc consts  --      1.4706                 1.4972                 5.1409
 IR Inten    --      1.2070                 9.2998                25.7393

                     94                     95                     96
                      A                      A                      A
 Frequencies --   1554.0114              1605.6432              1651.2170
 Red. masses --      2.7607                 8.4035                 6.4311
 Frc consts  --      3.9280                12.7646                10.3310
 IR Inten    --     48.9274                23.2342                 6.2248

                     97                     98                     99
                      A                      A                      A
 Frequencies --   1662.6936              1691.0723              2971.0380
 Red. masses --      5.9088                 1.0919                 1.0715
 Frc consts  --      9.6244                 1.8398                 5.5728
 IR Inten    --     24.6223                34.4921                68.6159

                    100                    101                    102
                      A                      A                      A
 Frequencies --   3012.2820              3030.6219              3035.6908
 Red. masses --      1.0832                 1.0347                 1.0386
 Frc consts  --      5.7909                 5.5991                 5.6390
 IR Inten    --     13.6756                57.3780                14.2677

                    103                    104                    105
                      A                      A                      A
 Frequencies --   3039.4332              3040.7460              3046.4430
 Red. masses --      1.0872                 1.0551                 1.0414
 Frc consts  --      5.9178                 5.7480                 5.6947
 IR Inten    --     22.7479                61.5528                27.7858

                    106                    107                    108
                      A                      A                      A
 Frequencies --   3083.0170              3087.4480              3092.3151
 Red. masses --      1.0588                 1.1018                 1.1064
 Frc consts  --      5.9295                 6.1879                 6.2336
 IR Inten    --     14.0297                 8.9944                38.8931

                    109                    110                    111
                      A                      A                      A
 Frequencies --   3100.1636              3105.4961              3110.0133
 Red. masses --      1.1020                 1.1021                 1.1016
 Frc consts  --      6.2401                 6.2624                 6.2777
 IR Inten    --     19.7000                35.8499                64.3249

                    112                    113                    114
                      A                      A                      A
 Frequencies --   3133.7870              3134.5986              3164.0751
 Red. masses --      1.1053                 1.0997                 1.1003
 Frc consts  --      6.3957                 6.3661                 6.4899
 IR Inten    --      4.0060                29.5037                18.3331

                    115                    116                    117
                      A                      A                      A
 Frequencies --   3184.9778              3192.7087              3210.6710
 Red. masses --      1.0858                 1.0901                 1.0953
 Frc consts  --      6.4896                 6.5466                 6.6524
 IR Inten    --      0.5684                15.9944                27.2739

                    118                    119                    120
                      A                      A                      A
 Frequencies --   3227.6615              3469.8766              3559.8646
 Red. masses --      1.0922                 1.0494                 1.0934
 Frc consts  --      6.7041                 7.4444                 8.1635
 IR Inten    --     12.0875                 2.1541                 0.7596

 - Thermochemistry -
 -------------------
 Temperature   298.150 Kelvin.  Pressure   1.00000 Atm.
 Atom     1 has atomic number  6 and mass  12.00000

 Molecular mass:   290.14529 amu.
 Principal axes and moments of inertia in atomic units:
                           1         2         3
     Eigenvalues --  4110.305938935.82939**********
           X            0.99974   0.02265   0.00138
           Y           -0.02264   0.99974  -0.00378
           Z           -0.00147   0.00374   0.99999
 This molecule is an asymmetric top.
 Rotational symmetry number  1.
 Warning -- assumption of classical behavior for rotation
           may cause significant error
 Rotational temperatures (Kelvin)      0.02107     0.00969     0.00751
 Rotational constants (GHZ):           0.43908     0.20197     0.15654
 Zero-point vibrational energy     939859.8 (Joules/Mol)
                                  224.63187 (Kcal/Mol)
 Warning -- explicit consideration of  32 degrees of freedom as
           vibrations may cause significant error
 Vibrational temperatures:     18.93    33.79    45.32    54.53    78.62
          (Kelvin)             97.65   127.01   139.99   166.32   211.79
                              238.59   309.14   328.92   344.36   358.35
                              376.45   384.05   398.24   433.38   456.78
                              467.60   514.98   537.33   589.52   611.61
                              648.00   685.12   715.60   746.29   790.59
                              843.95   859.30   903.05   923.68   966.89
                              987.17  1050.59  1099.80  1104.34  1130.18
                             1194.66  1216.62  1244.75  1252.43  1292.47
                             1333.17  1342.75  1357.51  1381.87  1391.92
                             1395.19  1411.64  1523.02  1525.60  1539.87
                             1562.14  1597.69  1635.20  1656.09  1671.65
                             1702.02  1708.05  1723.38  1732.80  1740.08
                             1751.69  1765.41  1803.83  1827.11  1865.35
                             1897.84  1914.78  1918.66  1936.69  1964.49
                             1984.31  1994.37  2008.19  2058.76  2064.80
                             2087.15  2147.46  2154.60  2162.48  2174.29
                             2182.05  2187.14  2191.73  2204.79  2206.39
                             2207.67  2212.87  2222.98  2235.88  2310.16
                             2375.73  2392.25  2433.08  4274.66  4334.00
                             4360.39  4367.68  4373.07  4374.96  4383.15
                             4435.77  4442.15  4449.15  4460.44  4468.12
                             4474.62  4508.82  4509.99  4552.40  4582.47
                             4593.60  4619.44  4643.89  4992.38  5121.85

 Zero-point correction=                           0.357974 (Hartree/Particle)
 Thermal correction to Energy=                    0.378827
 Thermal correction to Enthalpy=                  0.379771
 Thermal correction to Gibbs Free Energy=         0.305452
 Sum of electronic and zero-point Energies=          -1205.589590
 Sum of electronic and thermal Energies=             -1205.568737
 Sum of electronic and thermal Enthalpies=           -1205.567793
 Sum of electronic and thermal Free Energies=        -1205.642112

                     E (Thermal)             CV                S
                      KCal/Mol        Cal/Mol-Kelvin    Cal/Mol-Kelvin
 Total                  237.718             77.858            156.417
 Electronic               0.000              0.000              0.000
 Translational            0.889              2.981             42.893
 Rotational               0.889              2.981             34.403
 Vibrational            235.940             71.897             79.121
 Vibration     1          0.593              1.987              7.466
 Vibration     2          0.593              1.985              6.316
 Vibration     3          0.594              1.983              5.733
 Vibration     4          0.594              1.982              5.366
 Vibration     5          0.596              1.976              4.642
 Vibration     6          0.598              1.970              4.214
 Vibration     7          0.601              1.957              3.698
 Vibration     8          0.603              1.951              3.508
 Vibration     9          0.608              1.936              3.173
 Vibration    10          0.617              1.906              2.708
 Vibration    11          0.624              1.884              2.482
 Vibration    12          0.645              1.818              2.002
 Vibration    13          0.651              1.797              1.890
 Vibration    14          0.657              1.780              1.808
 Vibration    15          0.662              1.764              1.737
 Vibration    16          0.669              1.743              1.651
 Vibration    17          0.672              1.734              1.616
 Vibration    18          0.678              1.716              1.553
 Vibration    19          0.693              1.671              1.410
 Vibration    20          0.704              1.640              1.323
 Vibration    21          0.709              1.625              1.285
 Vibration    22          0.733              1.559              1.131
 Vibration    23          0.745              1.527              1.066
 Vibration    24          0.774              1.449              0.928
 Vibration    25          0.787              1.416              0.875
 Vibration    26          0.809              1.360              0.795
 Vibration    27          0.833              1.303              0.720
 Vibration    28          0.853              1.256              0.665
 Vibration    29          0.874              1.209              0.613
 Vibration    30          0.905              1.141              0.545
 Vibration    31          0.944              1.060              0.473
 Vibration    32          0.955              1.038              0.454

 Optimization completed.
    -- Stationary point found.
 Normal termination of Gaussian 16 at Sat Dec 12 17:03:02 2020.

 ----------------------------------------------------------------------
 # B3LYP/6-311++G(d,p) empiricaldispersion=gd3bj scf=xqc pop=npa geom=c
 heck
 ----------------------------------------------------------------------

 ----------------------------------------
 CID_114362173_JID_10974_Energie_neutraal
 ----------------------------------------
 Structure from the checkpoint file:  "JID_10974.chk"
 Charge =  0 Multiplicity = 1

 SCF Done:  E(RB3LYP) =  -1206.19675232     A.U. after   17 cycles
 Normal termination of Gaussian 16 at Sat Dec 12 17:12:37 2020.

 ----------------------------------------------------------------------
 # B3LYP/6-311++G(d,p) empiricaldispersion=gd3bj scf=xqc pop=npa geom=c
 heck
 ----------------------------------------------------------------------

 --------------------------------------
 CID_114362173_JID_10974_Energie_kation
 --------------------------------------
 Structure from the checkpoint file:  "JID_10974.chk"
 Charge =  1 Multiplicity = 2

 SCF Done:  E(UB3LYP) =  -1205.92128349     A.U. after   25 cycles
 Normal termination of Gaussian 16 at Sat Dec 12 17:31:25 2020.
 Gaussian 16:  ES64L-G16RevA.03 25-Dec-2016

 ----------------------------------------------------------------------
 # B3LYP/6-311++G(d,p) empiricaldispersion=gd3bj scf=xqc pop=npa geom=c
 heck
 ----------------------------------------------------------------------

 -------------------------------------
 CID_114362173_JID_10974_Energie_anion
 -------------------------------------
 Structure from the checkpoint file:  "JID_10974.chk"
 Charge = -1 Multiplicity = 2

                         Standard orientation:
 ---------------------------------------------------------------------
 Center     Atomic      Atomic             Coordinates (Angstroms)
 Number     Number       Type             X           Y           Z
 ---------------------------------------------------------------------
      1          6           0       -2.550338   -2.572001   -0.646511
      2          6           0       -3.606833   -1.463350   -0.585666
      3          6           0       -5.022782   -2.049482   -0.577611
      4          6           0       -3.401758   -0.543118    0.640217
      5          6           0       -2.070280    0.152897    0.653109
      6          6           0       -1.757103    1.309848   -0.013046
      7         16           0       -0.069327    1.699312    0.228788
      8          6           0        0.082707    0.252105    1.212408
      9          7           0       -1.018691   -0.432177    1.340040
     10          6           0        1.393364   -0.186483    1.809315
     11          6           0        2.297009   -0.808613    0.764044
     12          6           0        2.294161   -2.181464    0.529570
     13          6           0        3.093186   -2.749985   -0.465669
     14          6           0        3.904974   -1.927361   -1.241056
     15          6           0        3.922592   -0.545681   -1.031075
     16          6           0        3.117916    0.010023   -0.033762
     17          8           0        3.053630    1.348647    0.244760
     18          6           0        3.751023    2.245887   -0.602792
     19          6           0       -2.625871    2.172328   -0.875791
     20          7           0       -2.290958    3.589733   -0.695700
     21          1           0       -2.616911   -3.216374    0.239092
     22          1           0       -1.536384   -2.163001   -0.677169
     23          1           0       -2.696897   -3.200189   -1.532999
     24          1           0       -3.498485   -0.838559   -1.484979
     25          1           0       -5.178644   -2.674205    0.311244
     26          1           0       -5.784432   -1.260360   -0.568655
     27          1           0       -5.196687   -2.676925   -1.459392
     28          1           0       -4.212881    0.196109    0.663056
     29          1           0       -3.484188   -1.141234    1.555623
     30          1           0        1.896644    0.659301    2.286407
     31          1           0        1.153534   -0.925193    2.578648
     32          1           0        1.645758   -2.809864    1.134554
     33          1           0        3.077218   -3.822803   -0.631599
     34          1           0        4.532450   -2.352896   -2.019203
     35          1           0        4.557412    0.082355   -1.644876
     36          1           0        3.509660    3.246443   -0.241285
     37          1           0        4.836044    2.088764   -0.547122
     38          1           0        3.422333    2.144739   -1.644579
     39          1           0       -2.457301    1.934218   -1.935121
     40          1           0       -3.679600    1.919096   -0.665938
     41          1           0       -2.859750    4.162819   -1.316182
     42          1           0       -2.512964    3.873401    0.257283
 ---------------------------------------------------------------------

 SCF Done:  E(UB3LYP) =  -1206.18798295     A.U. after   33 cycles
 SCF Done:  E(UB3LYP) =  -1206.18798295     a.u. after    1 cycles

 The electronic state is 2-A.
 Alpha  occ. eigenvalues --  -88.76143 -19.06823 -14.19802 -14.19300 -10.14565
 Alpha  occ. eigenvalues --  -10.13611 -10.12172 -10.10034 -10.09132 -10.09070
 Alpha  occ. eigenvalues --  -10.08946 -10.08753 -10.08743 -10.08549 -10.08547
 Alpha  occ. eigenvalues --  -10.08269 -10.08146 -10.07137 -10.06977 -10.05990
 Alpha  occ. eigenvalues --   -7.84753  -5.81024  -5.80665  -5.80370  -0.98400
 Alpha  occ. eigenvalues --   -0.85178  -0.78534  -0.77084  -0.72059  -0.69997
 Alpha  occ. eigenvalues --   -0.68406  -0.66607  -0.65476  -0.62104  -0.60220
 Alpha  occ. eigenvalues --   -0.59162  -0.58559  -0.54110  -0.51456  -0.50255
 Alpha  occ. eigenvalues --   -0.47517  -0.45548  -0.44379  -0.43182  -0.40402
 Alpha  occ. eigenvalues --   -0.39390  -0.39221  -0.38385  -0.37096  -0.36600
 Alpha  occ. eigenvalues --   -0.36083  -0.34922  -0.34492  -0.33875  -0.33135
 Alpha  occ. eigenvalues --   -0.32271  -0.31441  -0.30335  -0.29956  -0.29521
 Alpha  occ. eigenvalues --   -0.29259  -0.28633  -0.27331  -0.27262  -0.26985
 Alpha  occ. eigenvalues --   -0.25990  -0.25423  -0.24437  -0.23900  -0.23659
 Alpha  occ. eigenvalues --   -0.23276  -0.22594  -0.17223  -0.16706  -0.16289
 Alpha  occ. eigenvalues --   -0.14340  -0.13897  -0.12156   0.03978
 Alpha virt. eigenvalues --    0.05433   0.06279   0.06565   0.07045   0.07926
 Alpha virt. eigenvalues --    0.08052   0.08448   0.08759   0.09097   0.09260
 Alpha virt. eigenvalues --    0.09366   0.09689   0.09851   0.10378   0.11060

  Beta  occ. eigenvalues --  -88.76130 -19.06819 -14.19807 -14.19248 -10.14561
  Beta  occ. eigenvalues --  -10.13580 -10.12059 -10.10009 -10.09116 -10.09033
  Beta  occ. eigenvalues --  -10.08954 -10.08712 -10.08695 -10.08536 -10.08534
  Beta  occ. eigenvalues --  -10.08273 -10.08143 -10.07131 -10.06963 -10.05981
  Beta  occ. eigenvalues --   -7.84740  -5.81018  -5.80659  -5.80331  -0.98389
  Beta  occ. eigenvalues --   -0.85105  -0.78438  -0.77038  -0.72024  -0.69936
  Beta  occ. eigenvalues --   -0.68325  -0.66571  -0.65395  -0.62064  -0.60170
  Beta  occ. eigenvalues --   -0.59135  -0.58465  -0.54030  -0.51414  -0.50210
  Beta  occ. eigenvalues --   -0.47477  -0.45471  -0.44328  -0.43104  -0.40361
  Beta  occ. eigenvalues --   -0.39348  -0.39167  -0.38343  -0.37064  -0.36528
  Beta  occ. eigenvalues --   -0.36048  -0.34860  -0.34428  -0.33815  -0.33077
  Beta  occ. eigenvalues --   -0.32215  -0.31383  -0.30305  -0.29866  -0.29491
  Beta  occ. eigenvalues --   -0.29207  -0.28566  -0.27293  -0.27207  -0.26907
  Beta  occ. eigenvalues --   -0.25955  -0.25375  -0.24403  -0.23844  -0.23617
  Beta  occ. eigenvalues --   -0.23250  -0.22554  -0.17117  -0.16568  -0.16190
  Beta  occ. eigenvalues --   -0.14268  -0.13788  -0.11835
  Beta virt. eigenvalues --    0.05881   0.06282   0.06685   0.06906   0.07442
  Beta virt. eigenvalues --    0.08040   0.08291   0.08610   0.08945   0.09298
  Beta virt. eigenvalues --    0.09396   0.09640   0.10041   0.10165   0.10590

 Mulliken charges and spin densities:
               1          2
     1  C   -0.560956  -0.152705
     2  C   -0.085472   0.575358
     3  C   -0.078968  -0.585756
     4  C   -0.017370  -0.977627
     5  C   -1.326562   1.215684
     6  C    0.554991   0.286664
     7  S   -0.151673  -0.619279
     8  C   -0.183610   0.251135
     9  N    0.206334  -0.019748
    10  C   -0.279101   0.096166
    11  C    1.159235   0.194206
    12  C   -0.142498   0.185678
    13  C   -0.333985  -0.178146
    14  C    0.052463  -0.243461
    15  C    0.187383  -0.334380
    16  C   -1.042084   0.096489
    17  O   -0.161274   0.023512
    18  C    0.417590  -0.721415
    19  C    1.195045  -1.811239
    20  N   -0.397478   0.088953
    21  H    0.070296   0.053543
    22  H    0.205862  -0.039795
    23  H    0.033551   0.085391
    24  H    0.169728  -0.010668
    25  H    0.106739   0.015338
    26  H   -0.074606   0.211109
    27  H    0.011898   0.120780
    28  H    0.039181   0.119448
    29  H    0.163297   0.016329
    30  H    0.223100   0.009305
    31  H    0.169942   0.005082
    32  H    0.153763   0.000232
    33  H    0.128381   0.018910
    34  H   -0.079281   0.228691
    35  H   -0.230653   0.397404
    36  H    0.036015   0.127486
    37  H   -0.096723   0.232911
    38  H   -0.167470   0.332141
    39  H   -0.380743   0.609323
    40  H   -0.300687   0.443912
    41  H   -0.196993   0.443213
    42  H    0.003391   0.209826
 Sum of Mulliken charges =  -1.00000   1.00000

 Dipole moment (field-independent basis, Debye):
    X=              3.1083    Y=             -5.1435    Z=              3.9228  Tot=              7.1767
 Quadrupole moment (field-independent basis, Debye-Ang):
   XX=           -211.9255   YY=           -180.2448   ZZ=           -159.7722
   XY=             11.5423   XZ=             -1.0310   YZ=             10.0856

 Summary of Natural Population Analysis:

                                       Natural Population
                Natural  -----------------------------------------------
    Atom  No    Charge         Core      Valence    Rydberg      Total
 -----------------------------------------------------------------------
      C    1   -0.28524      0.99965     2.28058    0.00502     3.28524
      C    2   -0.11127      0.99961     2.10245    0.00920     3.11127
      C    3   -0.28213      0.99965     2.27786    0.00462     3.28213
      C    4   -0.20004      0.99958     2.18919    0.01127     3.20004
      C    5    0.06005      0.99941     1.92510    0.01544     2.93995
      C    6   -0.10414      0.99941     2.09188    0.01285     3.10414
      S    7    0.21168      4.99939     2.76990    0.01904     7.78832
      C    8    0.05686      0.99960     1.92538    0.01816     2.94314
      N    9   -0.25800      0.99964     2.74774    0.01062     3.75800
      C   10   -0.21867      0.99955     2.20937    0.00976     3.21867
      C   11   -0.02379      0.99946     2.01354    0.01079     3.02379
      C   12   -0.08975      0.99952     2.08182    0.00840     3.08975
      C   13   -0.11805      0.99957     2.10916    0.00933     3.11805
      C   14   -0.09138      0.99958     2.08121    0.01059     3.09138
      C   15   -0.14167      0.99952     2.13341    0.00874     3.14167
      C   16    0.16454      0.99933     1.82334    0.01279     2.83546
      O   17   -0.27490      0.99986     3.26589    0.00915     4.27490
      C   18   -0.10083      0.99960     2.09214    0.00909     3.10083
      C   19   -0.10215      0.99957     2.08952    0.01306     3.10215
      N   20   -0.41824      0.99978     2.90785    0.01060     3.91824
      H   21    0.09440      0.00000     0.40473    0.00087     0.40560
      H   22    0.10902      0.00000     0.39002    0.00096     0.39098
      H   23    0.09405      0.00000     0.40514    0.00082     0.40595
      H   24    0.09365      0.00000     0.40432    0.00203     0.40635
      H   25    0.09361      0.00000     0.40548    0.00092     0.40639
      H   26    0.09928      0.00000     0.39971    0.00102     0.40072
      H   27    0.09688      0.00000     0.40229    0.00083     0.40312
      H   28    0.10367      0.00000     0.39510    0.00123     0.39633
      H   29    0.10275      0.00000     0.39603    0.00122     0.39725
      H   30    0.11435      0.00000     0.38458    0.00108     0.38565
      H   31    0.11205      0.00000     0.38672    0.00123     0.38795
      H   32    0.10147      0.00000     0.39755    0.00097     0.39853
      H   33    0.09874      0.00000     0.40050    0.00076     0.40126
      H   34    0.09876      0.00000     0.40046    0.00078     0.40124
      H   35    0.10594      0.00000     0.39276    0.00130     0.39406
      H   36    0.09513      0.00000     0.40411    0.00077     0.40487
      H   37    0.08234      0.00000     0.41642    0.00124     0.41766
      H   38    0.08995      0.00000     0.40862    0.00143     0.41005
      H   39    0.09967      0.00000     0.39819    0.00213     0.40033
      H   40    0.08931      0.00000     0.40821    0.00248     0.41069
      H   41    0.17877      0.00000     0.31706    0.00417     0.32123
      H   42    0.17332      0.00000     0.32479    0.00188     0.32668
 =======================================================================
   * Total *    0.00000     23.99126    53.76011    0.24863    78.00000

 Normal termination of Gaussian 16 at Sat Dec 12 17:56:48 2020.
