 Gaussian 16, Revision A.03,

 -----------------------------------------------------------
 # opt freq B3LYP/6-31G(d) empiricaldispersion=gd3bj scf=xqc
 -----------------------------------------------------------

 -------------------------------
 CID_135179378_JID_1308_neutraal
 -------------------------------
 Symbolic Z-matrix:
 Charge =  0 Multiplicity = 1

 SCF Done:  E(RB3LYP) =  -484.397847219     A.U. after   13 cycles
 SCF Done:  E(RB3LYP) =  -484.400801496     A.U. after   12 cycles
 SCF Done:  E(RB3LYP) =  -484.401076829     A.U. after   12 cycles
 SCF Done:  E(RB3LYP) =  -484.402020102     A.U. after   12 cycles
 SCF Done:  E(RB3LYP) =  -484.402701301     A.U. after   12 cycles
 SCF Done:  E(RB3LYP) =  -484.402985122     A.U. after   11 cycles
 SCF Done:  E(RB3LYP) =  -484.403020413     A.U. after   11 cycles
 SCF Done:  E(RB3LYP) =  -484.403100678     A.U. after   10 cycles
 SCF Done:  E(RB3LYP) =  -484.403118047     A.U. after    9 cycles
 SCF Done:  E(RB3LYP) =  -484.403125023     A.U. after    9 cycles
 SCF Done:  E(RB3LYP) =  -484.403127291     A.U. after    8 cycles
 SCF Done:  E(RB3LYP) =  -484.403129016     A.U. after    8 cycles
 SCF Done:  E(RB3LYP) =  -484.403129256     A.U. after    7 cycles
 SCF Done:  E(RB3LYP) =  -484.403129291     A.U. after    7 cycles
 Optimization completed.
    -- Stationary point found.
 Normal termination of Gaussian 16 at Tue Dec  8 19:42:42 2020.

 --------------------------------------------------------------------
 #N Geom=AllCheck Guess=TCheck SCRF=Check GenChk RB3LYP/6-31G(d) Freq
 --------------------------------------------------------------------

 Structure from the checkpoint file:  "JID_1308.chk"
 -------------------------------
 CID_135179378_JID_1308_neutraal
 -------------------------------
 Charge =  0 Multiplicity = 1

 SCF Done:  E(RB3LYP) =  -484.403129291     A.U. after    1 cycles

  Exact polarizability: 119.927  -6.051 107.213   1.708   1.566  89.957
 Approx polarizability: 156.214 -11.852 144.505   6.357   1.103 134.047

                      1                      2                      3
                      A                      A                      A
 Frequencies --     38.4776                50.9398                72.2663
 Red. masses --      3.4249                 2.8280                 2.3570
 Frc consts  --      0.0030                 0.0043                 0.0073
 IR Inten    --      0.3296                 0.1399                 0.1291

                      4                      5                      6
                      A                      A                      A
 Frequencies --     73.0339               101.7149               135.5251
 Red. masses --      3.9220                 2.4283                 3.3379
 Frc consts  --      0.0123                 0.0148                 0.0361
 IR Inten    --      2.7206                 1.3221                 0.2676

                      7                      8                      9
                      A                      A                      A
 Frequencies --    148.6940               179.3472               217.7404
 Red. masses --      3.7497                 1.6382                 1.1475
 Frc consts  --      0.0488                 0.0310                 0.0321
 IR Inten    --      0.6764                 0.3165                 0.2196

                     10                     11                     12
                      A                      A                      A
 Frequencies --    246.4813               269.8402               317.4291
 Red. masses --      2.6167                 1.4724                 2.2815
 Frc consts  --      0.0937                 0.0632                 0.1354
 IR Inten    --      1.4443                 1.3639                 0.6125

                     13                     14                     15
                      A                      A                      A
 Frequencies --    325.9624               380.1528               388.1428
 Red. masses --      1.4028                 1.8289                 1.7387
 Frc consts  --      0.0878                 0.1557                 0.1543
 IR Inten    --     66.1424                14.6535                71.7512

                     16                     17                     18
                      A                      A                      A
 Frequencies --    420.9583               483.7351               517.3328
 Red. masses --      1.9620                 2.2480                 2.8317
 Frc consts  --      0.2048                 0.3099                 0.4465
 IR Inten    --     14.7103                 0.6113                 2.7856

                     19                     20                     21
                      A                      A                      A
 Frequencies --    580.6086               696.8683               725.4426
 Red. masses --      4.1819                 3.0390                 1.4850
 Frc consts  --      0.8306                 0.8695                 0.4605
 IR Inten    --     35.3295                 5.6377                 6.4458

                     22                     23                     24
                      A                      A                      A
 Frequencies --    773.6117               786.8447               816.7785
 Red. masses --      1.8479                 1.8492                 1.4154
 Frc consts  --      0.6516                 0.6745                 0.5563
 IR Inten    --      1.3790                 0.8541                 5.6714

                     25                     26                     27
                      A                      A                      A
 Frequencies --    858.4184               899.9184               944.0692
 Red. masses --      1.5433                 2.0964                 1.6436
 Frc consts  --      0.6700                 1.0003                 0.8631
 IR Inten    --      0.9083                 4.8895                 2.6158

                     28                     29                     30
                      A                      A                      A
 Frequencies --    970.3744              1002.2838              1017.8281
 Red. masses --      1.9618                 1.8364                 2.0103
 Frc consts  --      1.0884                 1.0869                 1.2271
 IR Inten    --      4.3111                 0.9387                23.2520

                     31                     32                     33
                      A                      A                      A
 Frequencies --   1026.4838              1056.4328              1078.0243
 Red. masses --      2.0995                 2.3002                 1.6448
 Frc consts  --      1.3034                 1.5125                 1.1262
 IR Inten    --     10.1127                95.0675                 7.2827

                     34                     35                     36
                      A                      A                      A
 Frequencies --   1079.0952              1096.5274              1108.3658
 Red. masses --      2.3752                 2.1553                 1.4974
 Frc consts  --      1.6296                 1.5269                 1.0838
 IR Inten    --     27.4675                 3.6705                 4.4244

                     37                     38                     39
                      A                      A                      A
 Frequencies --   1141.4768              1160.6495              1211.4206
 Red. masses --      2.1030                 1.9035                 1.7930
 Frc consts  --      1.6145                 1.5108                 1.5503
 IR Inten    --      3.8061                 7.6282                 7.9253

                     40                     41                     42
                      A                      A                      A
 Frequencies --   1231.1865              1241.5126              1280.1666
 Red. masses --      1.2414                 1.2906                 1.4849
 Frc consts  --      1.1087                 1.1721                 1.4338
 IR Inten    --      6.5427                 5.1120                14.7675

                     43                     44                     45
                      A                      A                      A
 Frequencies --   1302.3541              1306.0206              1340.6781
 Red. masses --      1.2784                 1.2007                 1.2099
 Frc consts  --      1.2776                 1.2067                 1.2813
 IR Inten    --      2.5877                 2.0954                 6.1983

                     46                     47                     48
                      A                      A                      A
 Frequencies --   1363.7419              1374.4829              1383.8371
 Red. masses --      1.4123                 1.2387                 1.5119
 Frc consts  --      1.5475                 1.3788                 1.7059
 IR Inten    --      2.2271                 8.2404                 7.0465

                     49                     50                     51
                      A                      A                      A
 Frequencies --   1389.6831              1413.3887              1420.2306
 Red. masses --      1.3776                 1.4187                 1.3544
 Frc consts  --      1.5675                 1.6699                 1.6096
 IR Inten    --      9.0684                 0.6560                 7.6979

                     52                     53                     54
                      A                      A                      A
 Frequencies --   1435.7131              1443.1958              1445.5981
 Red. masses --      1.2189                 1.2623                 1.2148
 Frc consts  --      1.4804                 1.5490                 1.4957
 IR Inten    --      1.6347                 4.5582                94.2117

                     55                     56                     57
                      A                      A                      A
 Frequencies --   1508.0712              1513.3195              1520.3632
 Red. masses --      1.0814                 1.0697                 1.0729
 Frc consts  --      1.4490                 1.4434                 1.4611
 IR Inten    --      3.8950                 0.3948                 1.9803

                     58                     59                     60
                      A                      A                      A
 Frequencies --   1526.3767              1529.7008              1531.8273
 Red. masses --      1.0844                 1.0414                 1.0631
 Frc consts  --      1.4886                 1.4358                 1.4698
 IR Inten    --      6.0108                 5.5340                 8.5892

                     61                     62                     63
                      A                      A                      A
 Frequencies --   1536.2132              1538.1987              1544.5143
 Red. masses --      1.0669                 1.0662                 1.0801
 Frc consts  --      1.4835                 1.4863                 1.5181
 IR Inten    --      6.2627                 3.4309                 6.5508

                     64                     65                     66
                      A                      A                      A
 Frequencies --   1569.8719              1737.1452              3013.4044
 Red. masses --      1.1011                 8.7134                 1.0657
 Frc consts  --      1.5988                15.4921                 5.7018
 IR Inten    --      7.4638               111.9369                97.3608

                     67                     68                     69
                      A                      A                      A
 Frequencies --   3031.5395              3037.2433              3044.9225
 Red. masses --      1.0614                 1.0638                 1.0392
 Frc consts  --      5.7470                 5.7818                 5.6765
 IR Inten    --     21.1034                20.3687                14.9566

                     70                     71                     72
                      A                      A                      A
 Frequencies --   3052.1406              3052.7524              3055.6438
 Red. masses --      1.0430                 1.0640                 1.0616
 Frc consts  --      5.7247                 5.8421                 5.8399
 IR Inten    --     17.2773                 8.6054                40.1159

                     73                     74                     75
                      A                      A                      A
 Frequencies --   3062.9444              3066.0196              3074.2561
 Red. masses --      1.0854                 1.0826                 1.0956
 Frc consts  --      5.9995                 5.9962                 6.1008
 IR Inten    --     17.1229                17.1604                73.4990

                     76                     77                     78
                      A                      A                      A
 Frequencies --   3077.1638              3098.9556              3108.6849
 Red. masses --      1.0854                 1.1027                 1.0999
 Frc consts  --      6.0553                 6.2392                 6.2625
 IR Inten    --     61.9062                25.5870                 1.3300

                     79                     80                     81
                      A                      A                      A
 Frequencies --   3110.6697              3114.7817              3118.5489
 Red. masses --      1.1017                 1.1001                 1.1005
 Frc consts  --      6.2806                 6.2884                 6.3060
 IR Inten    --     46.1905                58.8729                13.4270

                     82                     83                     84
                      A                      A                      A
 Frequencies --   3125.1830              3131.2155              3714.8611
 Red. masses --      1.1011                 1.1033                 1.0652
 Frc consts  --      6.3364                 6.3737                 8.6608
 IR Inten    --     34.2113                43.8085                16.5767

 - Thermochemistry -
 -------------------
 Temperature   298.150 Kelvin.  Pressure   1.00000 Atm.
 Atom     1 has atomic number  6 and mass  12.00000

 Molecular mass:   157.14666 amu.
 Principal axes and moments of inertia in atomic units:
                           1         2         3
     Eigenvalues --  1495.076842616.525973629.83259
           X            0.99973   0.02331  -0.00161
           Y           -0.02330   0.99972   0.00444
           Z            0.00172  -0.00440   0.99999
 This molecule is an asymmetric top.
 Rotational symmetry number  1.
 Warning -- assumption of classical behavior for rotation
           may cause significant error
 Rotational temperatures (Kelvin)      0.05793     0.03310     0.02386
 Rotational constants (GHZ):           1.20712     0.68975     0.49720
 Zero-point vibrational energy     723248.0 (Joules/Mol)
                                  172.86042 (Kcal/Mol)
 Warning -- explicit consideration of  19 degrees of freedom as
           vibrations may cause significant error
 Vibrational temperatures:     55.36    73.29   103.98   105.08   146.35
          (Kelvin)            194.99   213.94   258.04   313.28   354.63
                              388.24   456.71   468.99   546.96   558.45
                              605.67   695.99   744.33   835.37  1002.64
                             1043.75  1113.05  1132.09  1175.16  1235.07
                             1294.78  1358.31  1396.15  1442.06  1464.43
                             1476.88  1519.97  1551.04  1552.58  1577.66
                             1594.69  1642.33  1669.92  1742.96  1771.40
                             1786.26  1841.87  1873.80  1879.07  1928.94
                             1962.12  1977.57  1991.03  1999.44  2033.55
                             2043.40  2065.67  2076.44  2079.89  2169.78
                             2177.33  2187.46  2196.12  2200.90  2203.96
                             2210.27  2213.12  2222.21  2258.70  2499.36
                             4335.62  4361.71  4369.92  4380.96  4391.35
                             4392.23  4396.39  4406.89  4411.32  4423.17
                             4427.35  4458.71  4472.70  4475.56  4481.48
                             4486.90  4496.44  4505.12  5344.86

 Zero-point correction=                           0.275471 (Hartree/Particle)
 Thermal correction to Energy=                    0.289182
 Thermal correction to Enthalpy=                  0.290126
 Thermal correction to Gibbs Free Energy=         0.234398
 Sum of electronic and zero-point Energies=           -484.127659
 Sum of electronic and thermal Energies=              -484.113947
 Sum of electronic and thermal Enthalpies=            -484.113003
 Sum of electronic and thermal Free Energies=         -484.168731

                     E (Thermal)             CV                S
                      KCal/Mol        Cal/Mol-Kelvin    Cal/Mol-Kelvin
 Total                  181.465             49.403            117.290
 Electronic               0.000              0.000              0.000
 Translational            0.889              2.981             41.065
 Rotational               0.889              2.981             31.030
 Vibrational            179.687             43.442             45.195
 Vibration     1          0.594              1.982              5.336
 Vibration     2          0.595              1.977              4.781
 Vibration     3          0.598              1.967              4.091
 Vibration     4          0.599              1.967              4.070
 Vibration     5          0.604              1.948              3.421
 Vibration     6          0.613              1.918              2.866
 Vibration     7          0.618              1.904              2.689
 Vibration     8          0.629              1.868              2.335
 Vibration     9          0.646              1.814              1.978
 Vibration    10          0.661              1.769              1.756
 Vibration    11          0.674              1.729              1.597
 Vibration    12          0.704              1.640              1.323
 Vibration    13          0.710              1.624              1.280
 Vibration    14          0.750              1.512              1.039
 Vibration    15          0.756              1.496              1.007
 Vibration    16          0.783              1.425              0.889
 Vibration    17          0.840              1.286              0.700
 Vibration    18          0.872              1.212              0.616
 Vibration    19          0.937              1.073              0.484

                           ! Non-Optimized Parameters !
 Normal termination of Gaussian 16 at Tue Dec  8 19:50:12 2020.

 ----------------------------------------------------------------------
 # B3LYP/6-311++G(d,p) empiricaldispersion=gd3bj scf=xqc pop=npa geom=c
 heck
 ----------------------------------------------------------------------

 ---------------------------------------
 CID_135179378_JID_1308_Energie_neutraal
 ---------------------------------------
 Structure from the checkpoint file:  "JID_1308.chk"
 Charge =  0 Multiplicity = 1

 SCF Done:  E(RB3LYP) =  -484.551589721     A.U. after   13 cycles
 Normal termination of Gaussian 16 at Tue Dec  8 19:53:57 2020.

 ----------------------------------------------------------------------
 # B3LYP/6-311++G(d,p) empiricaldispersion=gd3bj scf=xqc pop=npa geom=c
 heck
 ----------------------------------------------------------------------

 -------------------------------------
 CID_135179378_JID_1308_Energie_kation
 -------------------------------------
 Structure from the checkpoint file:  "JID_1308.chk"
 Charge =  1 Multiplicity = 2

 SCF Done:  E(UB3LYP) =  -484.224867047     A.U. after   23 cycles
 Normal termination of Gaussian 16 at Tue Dec  8 20:01:40 2020.
 Gaussian 16:  ES64L-G16RevA.03 25-Dec-2016

 ----------------------------------------------------------------------
 # B3LYP/6-311++G(d,p) empiricaldispersion=gd3bj scf=xqc pop=npa geom=c
 heck
 ----------------------------------------------------------------------

 ------------------------------------
 CID_135179378_JID_1308_Energie_anion
 ------------------------------------
 Structure from the checkpoint file:  "JID_1308.chk"
 Charge = -1 Multiplicity = 2

                         Standard orientation:
 ---------------------------------------------------------------------
 Center     Atomic      Atomic             Coordinates (Angstroms)
 Number     Number       Type             X           Y           Z
 ---------------------------------------------------------------------
      1          6           0       -3.765173   -0.513066   -0.432293
      2          6           0       -2.749540   -0.055621    0.619004
      3          6           0       -1.545870   -0.998204    0.774522
      4          6           0       -0.696799   -1.205372   -0.488434
      5          6           0       -0.023655    0.077400   -1.029932
      6          6           0        0.986583    0.656203   -0.047991
      7          7           0        2.144224    0.178941    0.216864
      8          6           0        2.622161   -1.025584   -0.438616
      9          8           0        2.499560   -2.131164    0.443015
     10          6           0        0.574819    1.908956    0.694713
     11          6           0        0.589445    3.149151   -0.214518
     12          1           0       -3.335472   -0.511680   -1.440213
     13          1           0       -4.641208    0.144707   -0.447708
     14          1           0       -4.114856   -1.531749   -0.223885
     15          1           0       -2.407381    0.958147    0.372207
     16          1           0       -3.250750    0.028015    1.592124
     17          1           0       -0.900844   -0.632816    1.584819
     18          1           0       -1.912227   -1.980649    1.102318
     19          1           0        0.079716   -1.942397   -0.261744
     20          1           0       -1.317288   -1.629911   -1.287009
     21          1           0        0.464684   -0.154051   -1.982843
     22          1           0       -0.785318    0.831549   -1.253251
     23          1           0        2.079594   -1.315476   -1.345821
     24          1           0        3.674543   -0.850716   -0.707590
     25          1           0        2.787817   -1.805943    1.312582
     26          1           0       -0.433250    1.775461    1.107702
     27          1           0        1.268456    2.049819    1.528364
     28          1           0       -0.096591    3.040039   -1.062177
     29          1           0        0.287795    4.040788    0.345027
     30          1           0        1.594715    3.320416   -0.613796
 ---------------------------------------------------------------------

 SCF Done:  E(UB3LYP) =  -484.536546639     A.U. after   33 cycles
 SCF Done:  E(UB3LYP) =  -484.536546639     a.u. after    1 cycles

 The electronic state is 2-A.
 Alpha  occ. eigenvalues --  -19.02631 -14.19122 -10.13836 -10.11242 -10.07363
 Alpha  occ. eigenvalues --  -10.06727 -10.06344 -10.06310 -10.06142 -10.05736
 Alpha  occ. eigenvalues --  -10.05671  -0.93344  -0.81022  -0.70716  -0.67350
 Alpha  occ. eigenvalues --   -0.64989  -0.59516  -0.58055  -0.53234  -0.51707
 Alpha  occ. eigenvalues --   -0.46326  -0.44672  -0.38926  -0.38619  -0.37976
 Alpha  occ. eigenvalues --   -0.35726  -0.34975  -0.32927  -0.32832  -0.31278
 Alpha  occ. eigenvalues --   -0.30259  -0.28896  -0.28010  -0.27611  -0.26439
 Alpha  occ. eigenvalues --   -0.25955  -0.24967  -0.24072  -0.22758  -0.21904
 Alpha  occ. eigenvalues --   -0.21628  -0.18782  -0.18362  -0.14451   0.04643
 Alpha virt. eigenvalues --    0.06559   0.07296   0.07431   0.08804   0.09167
 Alpha virt. eigenvalues --    0.09613   0.09701   0.10161   0.10704   0.11521
 Alpha virt. eigenvalues --    0.12212   0.12570   0.12809   0.13349   0.13538

  Beta  occ. eigenvalues --  -19.02602 -14.19075 -10.13826 -10.11161 -10.07349
  Beta  occ. eigenvalues --  -10.06710 -10.06340 -10.06305 -10.06117 -10.05680
  Beta  occ. eigenvalues --  -10.05641  -0.93271  -0.80900  -0.70674  -0.67270
  Beta  occ. eigenvalues --   -0.64942  -0.59439  -0.58001  -0.53158  -0.51633
  Beta  occ. eigenvalues --   -0.46256  -0.44610  -0.38851  -0.38551  -0.37924
  Beta  occ. eigenvalues --   -0.35673  -0.34939  -0.32872  -0.32754  -0.31236
  Beta  occ. eigenvalues --   -0.30221  -0.28799  -0.27950  -0.27554  -0.26385
  Beta  occ. eigenvalues --   -0.25914  -0.24898  -0.24030  -0.22725  -0.21871
  Beta  occ. eigenvalues --   -0.21587  -0.18633  -0.18225  -0.14358
  Beta virt. eigenvalues --    0.06820   0.07209   0.07806   0.08109   0.09334
  Beta virt. eigenvalues --    0.09537   0.09952   0.10021   0.10646   0.11173
  Beta virt. eigenvalues --    0.11940   0.12546   0.12787   0.13109   0.13725

 Mulliken charges and spin densities:
               1          2
     1  C    1.061428  -1.708132
     2  C   -0.348939   0.172231
     3  C   -0.108804  -0.124756
     4  C   -0.292118   0.082175
     5  C    0.768288  -0.992047
     6  C   -0.406114   0.239605
     7  N   -0.168857   0.132872
     8  C    0.391688  -0.710427
     9  O   -0.239113  -0.003326
    10  C   -1.435672   1.218350
    11  C    1.546815  -2.094174
    12  H   -0.240446   0.376048
    13  H   -0.439587   0.586358
    14  H   -0.030657   0.160126
    15  H    0.266264  -0.132222
    16  H   -0.577218   0.737186
    17  H    0.084407   0.085762
    18  H   -0.068417   0.225645
    19  H    0.275396  -0.065257
    20  H    0.082122   0.059571
    21  H    0.204274  -0.036954
    22  H    0.342387  -0.190008
    23  H   -0.030044   0.179298
    24  H   -0.087201   0.225836
    25  H    0.024691   0.230614
    26  H   -0.273811   0.434551
    27  H   -0.194630   0.356676
    28  H   -0.539856   0.677209
    29  H   -0.582252   0.745374
    30  H    0.015977   0.131815
 Sum of Mulliken charges =  -1.00000   1.00000

 Dipole moment (field-independent basis, Debye):
    X=              3.1385    Y=             -4.1735    Z=             -1.9998  Tot=              5.5918
 Quadrupole moment (field-independent basis, Debye-Ang):
   XX=           -139.8508   YY=           -128.8047   ZZ=            -99.3844
   XY=              6.5000   XZ=              0.3048   YZ=              0.3553

 Summary of Natural Population Analysis:

                                       Natural Population
                Natural  -----------------------------------------------
    Atom  No    Charge         Core      Valence    Rydberg      Total
 -----------------------------------------------------------------------
      C    1   -0.28687      0.99967     2.28119    0.00601     3.28687
      C    2   -0.19345      0.99964     2.18540    0.00841     3.19345
      C    3   -0.19109      0.99962     2.18256    0.00891     3.19109
      C    4   -0.18854      0.99961     2.18130    0.00763     3.18854
      C    5   -0.23105      0.99957     2.22253    0.00895     3.23105
      C    6    0.18989      0.99957     1.79415    0.01639     2.81011
      N    7   -0.26672      0.99963     2.75491    0.01218     3.76672
      C    8    0.06962      0.99962     1.91637    0.01438     2.93038
      O    9   -0.36929      0.99990     3.36307    0.00632     4.36929
      C   10   -0.21590      0.99958     2.20603    0.01028     3.21590
      C   11   -0.27987      0.99965     2.27530    0.00491     3.27987
      H   12    0.09432      0.00000     0.40461    0.00107     0.40568
      H   13    0.10151      0.00000     0.39728    0.00121     0.39849
      H   14    0.09368      0.00000     0.40530    0.00101     0.40632
      H   15    0.09472      0.00000     0.40342    0.00187     0.40528
      H   16    0.09722      0.00000     0.40135    0.00143     0.40278
      H   17    0.09828      0.00000     0.40043    0.00128     0.40172
      H   18    0.09551      0.00000     0.40349    0.00100     0.40449
      H   19    0.10701      0.00000     0.39108    0.00191     0.39299
      H   20    0.09379      0.00000     0.40508    0.00113     0.40621
      H   21    0.10385      0.00000     0.39487    0.00128     0.39615
      H   22    0.10545      0.00000     0.39297    0.00158     0.39455
      H   23    0.07107      0.00000     0.42694    0.00199     0.42893
      H   24    0.07224      0.00000     0.42585    0.00191     0.42776
      H   25    0.23017      0.00000     0.26609    0.00374     0.26983
      H   26    0.10243      0.00000     0.39526    0.00231     0.39757
      H   27    0.10498      0.00000     0.39305    0.00197     0.39502
      H   28    0.09653      0.00000     0.40214    0.00133     0.40347
      H   29    0.10381      0.00000     0.39401    0.00219     0.39619
      H   30    0.09669      0.00000     0.40223    0.00107     0.40331
 =======================================================================
   * Total *   -0.00000     10.99608    32.86827    0.13565    44.00000

 Normal termination of Gaussian 16 at Tue Dec  8 20:13:37 2020.
