 Gaussian 16, Revision A.03,

 -----------------------------------------------------------
 # opt freq B3LYP/6-31G(d) empiricaldispersion=gd3bj scf=xqc
 -----------------------------------------------------------

 ------------------------------
 CID_11986967_JID_1123_neutraal
 ------------------------------
 Symbolic Z-matrix:
 Charge =  0 Multiplicity = 1

 SCF Done:  E(RB3LYP) =  -514.245291838     A.U. after   15 cycles
 SCF Done:  E(RB3LYP) =  -514.248232995     A.U. after   13 cycles
 SCF Done:  E(RB3LYP) =  -514.246849446     A.U. after   13 cycles
 SCF Done:  E(RB3LYP) =  -514.248585764     A.U. after   12 cycles
 SCF Done:  E(RB3LYP) =  -514.248604536     A.U. after   11 cycles
 SCF Done:  E(RB3LYP) =  -514.248611086     A.U. after   10 cycles
 SCF Done:  E(RB3LYP) =  -514.248613470     A.U. after   10 cycles
 SCF Done:  E(RB3LYP) =  -514.248614680     A.U. after   10 cycles
 SCF Done:  E(RB3LYP) =  -514.248615293     A.U. after   10 cycles
 SCF Done:  E(RB3LYP) =  -514.248615508     A.U. after    9 cycles
 SCF Done:  E(RB3LYP) =  -514.248615545     A.U. after    8 cycles
 Optimization completed.
    -- Stationary point found.
 Normal termination of Gaussian 16 at Tue Dec  8 19:12:52 2020.

 --------------------------------------------------------------------
 #N Geom=AllCheck Guess=TCheck SCRF=Check GenChk RB3LYP/6-31G(d) Freq
 --------------------------------------------------------------------

 Structure from the checkpoint file:  "JID_1123.chk"
 ------------------------------
 CID_11986967_JID_1123_neutraal
 ------------------------------
 Charge =  0 Multiplicity = 1

 SCF Done:  E(RB3LYP) =  -514.248615545     A.U. after    1 cycles

  Exact polarizability: 103.383  15.323 106.743   8.757  -2.919  53.737
 Approx polarizability: 151.176  35.763 187.464  19.485  -0.416  88.146

                      1                      2                      3
                      A                      A                      A
 Frequencies --     29.6080                78.1533                92.2371
 Red. masses --      6.6412                 5.1567                 3.8111
 Frc consts  --      0.0034                 0.0186                 0.0191
 IR Inten    --      2.8421                 4.4833                 2.8393

                      4                      5                      6
                      A                      A                      A
 Frequencies --    124.4733               159.7789               183.7616
 Red. masses --      1.1198                 5.4356                 5.1567
 Frc consts  --      0.0102                 0.0818                 0.1026
 IR Inten    --      0.0215                 0.9274                 2.2302

                      7                      8                      9
                      A                      A                      A
 Frequencies --    216.5720               299.3747               377.1450
 Red. masses --      4.6153                 4.4490                 5.0043
 Frc consts  --      0.1275                 0.2349                 0.4194
 IR Inten    --      7.6004                 9.1273                 1.0901

                     10                     11                     12
                      A                      A                      A
 Frequencies --    396.2775               511.2757               537.7515
 Red. masses --      7.0875                 4.1486                 5.9352
 Frc consts  --      0.6558                 0.6389                 1.0112
 IR Inten    --      6.9371                 1.3853                 2.8480

                     13                     14                     15
                      A                      A                      A
 Frequencies --    576.1393               577.4156               669.6646
 Red. masses --      5.5356                 6.0964                 2.7205
 Frc consts  --      1.0826                 1.1976                 0.7188
 IR Inten    --      4.6161                 6.9096                 0.2801

                     16                     17                     18
                      A                      A                      A
 Frequencies --    734.1402               796.3090               827.5485
 Red. masses --      1.9056                 4.2645                 5.6539
 Frc consts  --      0.6051                 1.5933                 2.2813
 IR Inten    --     35.2163                37.4829                 9.5069

                     19                     20                     21
                      A                      A                      A
 Frequencies --    895.2467               923.9199               956.4135
 Red. masses --      4.4600                 1.3976                 4.0303
 Frc consts  --      2.1060                 0.7029                 2.1721
 IR Inten    --      5.5548                14.0026                 2.6257

                     22                     23                     24
                      A                      A                      A
 Frequencies --    963.8592               998.1350              1035.7190
 Red. masses --      1.3909                 2.5147                 2.0564
 Frc consts  --      0.7614                 1.4761                 1.2997
 IR Inten    --      0.8507                14.5867                 7.4526

                     25                     26                     27
                      A                      A                      A
 Frequencies --   1064.6583              1136.8237              1182.1238
 Red. masses --      2.0149                 1.1900                 1.8031
 Frc consts  --      1.3456                 0.9061                 1.4846
 IR Inten    --      9.9056                 0.8265                47.2006

                     28                     29                     30
                      A                      A                      A
 Frequencies --   1186.3569              1204.6492              1227.4928
 Red. masses --      1.2784                 2.0947                 1.7214
 Frc consts  --      1.0601                 1.7910                 1.5282
 IR Inten    --      1.7779                82.0469                53.5939

                     31                     32                     33
                      A                      A                      A
 Frequencies --   1253.9148              1287.7107              1323.1243
 Red. masses --      2.7682                 1.9512                 3.2798
 Frc consts  --      2.5644                 1.9063                 3.3829
 IR Inten    --     18.2171               102.2770               203.2827

                     34                     35                     36
                      A                      A                      A
 Frequencies --   1401.1305              1492.3639              1513.3111
 Red. masses --      1.9968                 1.2018                 1.0475
 Frc consts  --      2.3097                 1.5770                 1.4134
 IR Inten    --      3.0511                10.7623                 6.7240

                     37                     38                     39
                      A                      A                      A
 Frequencies --   1522.2521              1572.1075              1660.2497
 Red. masses --      1.0477                 7.9419                 5.7119
 Frc consts  --      1.4304                11.5648                 9.2764
 IR Inten    --      8.1501                18.7146                 0.2076

                     40                     41                     42
                      A                      A                      A
 Frequencies --   1833.6882              2338.3197              3045.5863
 Red. masses --     11.3511                12.6649                 1.0811
 Frc consts  --     22.4873                40.8000                 5.9084
 IR Inten    --    210.8842                41.0098                 0.0998

                     43                     44                     45
                      A                      A                      A
 Frequencies --   3081.3150              3158.1632              3195.2307
 Red. masses --      1.0298                 1.1079                 1.1071
 Frc consts  --      5.7606                 6.5104                 6.6598
 IR Inten    --     27.1829                17.3656                10.6639

                     46                     47                     48
                      A                      A                      A
 Frequencies --   3235.5403              3248.1195              3265.0672
 Red. masses --      1.0895                 1.0948                 1.1029
 Frc consts  --      6.7203                 6.8050                 6.9273
 IR Inten    --      6.9375                 3.3803                 3.0920

 - Thermochemistry -
 -------------------
 Temperature   298.150 Kelvin.  Pressure   1.00000 Atm.
 Atom     1 has atomic number  6 and mass  12.00000

 Molecular mass:   149.04768 amu.
 Principal axes and moments of inertia in atomic units:
                           1         2         3
     Eigenvalues --  1177.576991706.018012685.62888
           X            0.99946   0.03275   0.00062
           Y           -0.03275   0.99942  -0.00971
           Z           -0.00094   0.00969   0.99995
 This molecule is an asymmetric top.
 Rotational symmetry number  1.
 Warning -- assumption of classical behavior for rotation
           may cause significant error
 Rotational temperatures (Kelvin)      0.07355     0.05077     0.03225
 Rotational constants (GHZ):           1.53259     1.05787     0.67200
 Zero-point vibrational energy     355232.4 (Joules/Mol)
                                   84.90258 (Kcal/Mol)
 Warning -- explicit consideration of  14 degrees of freedom as
           vibrations may cause significant error
 Vibrational temperatures:     42.60   112.45   132.71   179.09   229.89
          (Kelvin)            264.39   311.60   430.73   542.63   570.15
                              735.61   773.70   828.94   830.77   963.50
                             1056.26  1145.71  1190.66  1288.06  1329.31
                             1376.07  1386.78  1436.09  1490.17  1531.81
                             1635.64  1700.81  1706.90  1733.22  1766.09
                             1804.10  1852.73  1903.68  2015.91  2147.18
                             2177.32  2190.18  2261.91  2388.73  2638.27
                             3364.32  4381.92  4433.33  4543.89  4597.22
                             4655.22  4673.32  4697.70

 Zero-point correction=                           0.135301 (Hartree/Particle)
 Thermal correction to Energy=                    0.145619
 Thermal correction to Enthalpy=                  0.146563
 Thermal correction to Gibbs Free Energy=         0.098104
 Sum of electronic and zero-point Energies=           -514.113315
 Sum of electronic and thermal Energies=              -514.102997
 Sum of electronic and thermal Enthalpies=            -514.102053
 Sum of electronic and thermal Free Energies=         -514.150512

                     E (Thermal)             CV                S
                      KCal/Mol        Cal/Mol-Kelvin    Cal/Mol-Kelvin
 Total                   91.377             36.340            101.991
 Electronic               0.000              0.000              0.000
 Translational            0.889              2.981             40.908
 Rotational               0.889              2.981             30.068
 Vibrational             89.600             30.378             31.015
 Vibration     1          0.593              1.984              5.856
 Vibration     2          0.599              1.964              3.937
 Vibration     3          0.602              1.955              3.612
 Vibration     4          0.610              1.929              3.030
 Vibration     5          0.622              1.892              2.552
 Vibration     6          0.631              1.862              2.290
 Vibration     7          0.645              1.816              1.988
 Vibration     8          0.692              1.675              1.420
 Vibration     9          0.748              1.519              1.051
 Vibration    10          0.763              1.478              0.976
 Vibration    11          0.866              1.225              0.631
 Vibration    12          0.893              1.167              0.570
 Vibration    13          0.933              1.083              0.493
 Vibration    14          0.934              1.080              0.490

 Optimization completed.
    -- Stationary point found.
 Normal termination of Gaussian 16 at Tue Dec  8 19:16:13 2020.

 ----------------------------------------------------------------------
 # B3LYP/6-311++G(d,p) empiricaldispersion=gd3bj scf=xqc pop=npa geom=c
 heck
 ----------------------------------------------------------------------

 --------------------------------------
 CID_11986967_JID_1123_Energie_neutraal
 --------------------------------------
 Structure from the checkpoint file:  "JID_1123.chk"
 Charge =  0 Multiplicity = 1

 SCF Done:  E(RB3LYP) =  -514.394804745     A.U. after   15 cycles
 Normal termination of Gaussian 16 at Tue Dec  8 19:17:24 2020.

 ----------------------------------------------------------------------
 # B3LYP/6-311++G(d,p) empiricaldispersion=gd3bj scf=xqc pop=npa geom=c
 heck
 ----------------------------------------------------------------------

 ------------------------------------
 CID_11986967_JID_1123_Energie_kation
 ------------------------------------
 Structure from the checkpoint file:  "JID_1123.chk"
 Charge =  1 Multiplicity = 2

 SCF Done:  E(UB3LYP) =  -514.065280851     A.U. after   22 cycles
 Normal termination of Gaussian 16 at Tue Dec  8 19:20:16 2020.
 Gaussian 16:  ES64L-G16RevA.03 25-Dec-2016

 ----------------------------------------------------------------------
 # B3LYP/6-311++G(d,p) empiricaldispersion=gd3bj scf=xqc pop=npa geom=c
 heck
 ----------------------------------------------------------------------

 -----------------------------------
 CID_11986967_JID_1123_Energie_anion
 -----------------------------------
 Structure from the checkpoint file:  "JID_1123.chk"
 Charge = -1 Multiplicity = 2

                         Standard orientation:
 ---------------------------------------------------------------------
 Center     Atomic      Atomic             Coordinates (Angstroms)
 Number     Number       Type             X           Y           Z
 ---------------------------------------------------------------------
      1          6           0        3.125758   -0.051105   -0.156412
      2          8           0        1.819945    0.079650    0.433748
      3          6           0        0.909916   -0.825279    0.034726
      4          8           0        1.136563   -1.748238   -0.711992
      5          6           0       -0.446297   -0.496112    0.656780
      6          6           0       -1.495254   -1.549402    0.443105
      7          6           0       -2.568101   -1.007647   -0.168772
      8          6           0       -2.318030    0.407621   -0.425046
      9          6           0       -1.084329    0.742645    0.033634
     10          6           0       -0.472856    2.018033   -0.016997
     11          7           0        0.033978    3.066113   -0.059119
     12          1           0        3.709099    0.775068    0.248132
     13          1           0        3.057205    0.020181   -1.244412
     14          1           0        3.569851   -1.012188    0.114478
     15          1           0       -0.279870   -0.312076    1.728368
     16          1           0       -1.358212   -2.582679    0.734123
     17          1           0       -3.480640   -1.523296   -0.443450
     18          1           0       -3.012196    1.088382   -0.903571
 ---------------------------------------------------------------------

 SCF Done:  E(UB3LYP) =  -514.413980638     A.U. after   24 cycles

 The electronic state is 2-A.
 Alpha  occ. eigenvalues --  -19.04590 -18.98226 -14.12815 -10.16609 -10.11714
 Alpha  occ. eigenvalues --  -10.04617 -10.03429 -10.01568 -10.01142 -10.00563
 Alpha  occ. eigenvalues --   -9.99902  -0.98511  -0.89549  -0.73444  -0.70757
 Alpha  occ. eigenvalues --   -0.63020  -0.57240  -0.56474  -0.46557  -0.43869
 Alpha  occ. eigenvalues --   -0.40079  -0.38423  -0.37132  -0.35346  -0.34877
 Alpha  occ. eigenvalues --   -0.30914  -0.28194  -0.26891  -0.24886  -0.23552
 Alpha  occ. eigenvalues --   -0.22650  -0.21403  -0.20309  -0.19699  -0.18975
 Alpha  occ. eigenvalues --   -0.16285  -0.15642  -0.14497  -0.07492   0.04721
 Alpha virt. eigenvalues --    0.08277   0.10055   0.11196   0.11874   0.12298
 Alpha virt. eigenvalues --    0.12644   0.13349   0.13955   0.14671   0.16256
 Alpha virt. eigenvalues --    0.17518   0.18216   0.18511   0.18671   0.19088

  Beta  occ. eigenvalues --  -19.04588 -18.98214 -14.12557 -10.16485 -10.11709
  Beta  occ. eigenvalues --  -10.04693 -10.03441 -10.01274 -10.01211 -10.00196
  Beta  occ. eigenvalues --   -9.99389  -0.98469  -0.89521  -0.73022  -0.70231
  Beta  occ. eigenvalues --   -0.62872  -0.56501  -0.56065  -0.46055  -0.43377
  Beta  occ. eigenvalues --   -0.39840  -0.38005  -0.36945  -0.35203  -0.34640
  Beta  occ. eigenvalues --   -0.30646  -0.28020  -0.26604  -0.24718  -0.23241
  Beta  occ. eigenvalues --   -0.22401  -0.21062  -0.19312  -0.19134  -0.18879
  Beta  occ. eigenvalues --   -0.15743  -0.15243  -0.13452  -0.05069
  Beta virt. eigenvalues --    0.08205   0.10017   0.11090   0.11351   0.12032
  Beta virt. eigenvalues --    0.12254   0.12613   0.13495   0.14073   0.14667
  Beta virt. eigenvalues --    0.16217   0.18188   0.18426   0.18565   0.18918

 Mulliken charges and spin densities:
               1          2
     1  C   -0.220768  -0.019979
     2  O   -0.031999   0.009259
     3  C   -0.432742   0.036912
     4  O   -0.301157   0.004669
     5  C    0.595476  -0.174321
     6  C   -0.522947   0.386148
     7  C   -0.118499  -0.009103
     8  C   -0.422606   0.375578
     9  C    1.238006   0.215597
    10  C   -1.288156  -0.054682
    11  N   -0.368110   0.138740
    12  H    0.127597   0.007451
    13  H    0.170379   0.005377
    14  H    0.141351   0.007317
    15  H    0.114097   0.115222
    16  H    0.121531  -0.024607
    17  H    0.093501   0.002827
    18  H    0.105049  -0.022405
 Sum of Mulliken charges =  -1.00000   1.00000

 Dipole moment (field-independent basis, Debye):
    X=              3.5709    Y=             -3.6299    Z=              0.7780  Tot=              5.1510
 Quadrupole moment (field-independent basis, Debye-Ang):
   XX=            -74.2276   YY=            -99.9057   ZZ=            -72.2385
   XY=             -0.5361   XZ=              1.5038   YZ=             -3.3389

 Summary of Natural Population Analysis:

                                       Natural Population
                Natural  -----------------------------------------------
    Atom  No    Charge         Core      Valence    Rydberg      Total
 -----------------------------------------------------------------------
      C    1   -0.10523      0.99961     2.09749    0.00813     3.10523
      O    2   -0.27602      0.99986     3.26759    0.00858     4.27602
      C    3    0.43362      0.99967     1.54065    0.02606     2.56638
      O    4   -0.31286      0.99987     3.30745    0.00555     4.31286
      C    5   -0.17762      0.99953     2.16521    0.01288     3.17762
      C    6    0.02474      0.99955     1.96700    0.00871     2.97526
      C    7   -0.14415      0.99954     2.13568    0.00893     3.14415
      C    8   -0.00211      0.99950     1.99241    0.01019     3.00211
      C    9   -0.05782      0.99938     2.04743    0.01101     3.05782
      C   10    0.14753      0.99963     1.83529    0.01755     2.85247
      N   11   -0.19067      0.99979     2.67907    0.01182     3.69067
      H   12    0.08887      0.00000     0.41039    0.00075     0.41113
      H   13    0.09056      0.00000     0.40839    0.00105     0.40944
      H   14    0.08486      0.00000     0.41401    0.00112     0.41514
      H   15    0.12934      0.00000     0.36895    0.00171     0.37066
      H   16    0.08605      0.00000     0.41301    0.00094     0.41395
      H   17    0.09065      0.00000     0.40844    0.00091     0.40935
      H   18    0.09026      0.00000     0.40900    0.00074     0.40974
 =======================================================================
   * Total *    0.00000     10.99591    27.86745    0.13663    39.00000

 Normal termination of Gaussian 16 at Tue Dec  8 19:23:20 2020.
