 Gaussian 16, Revision A.03,

 -----------------------------------------------------------
 # opt freq B3LYP/6-31G(d) empiricaldispersion=gd3bj scf=xqc
 -----------------------------------------------------------

 -----------------------------
 CID_11217319_JID_602_neutraal
 -----------------------------
 Symbolic Z-matrix:
 Charge =  0 Multiplicity = 1

 SCF Done:  E(RB3LYP) =  -565.161345855     A.U. after   16 cycles
 SCF Done:  E(RB3LYP) =  -565.156286404     A.U. after   14 cycles
 SCF Done:  E(RB3LYP) =  -565.171433519     A.U. after   13 cycles
 SCF Done:  E(RB3LYP) =  -565.174497925     A.U. after   13 cycles
 SCF Done:  E(RB3LYP) =  -565.176072089     A.U. after   12 cycles
 SCF Done:  E(RB3LYP) =  -565.176141012     A.U. after   10 cycles
 SCF Done:  E(RB3LYP) =  -565.176184990     A.U. after   12 cycles
 SCF Done:  E(RB3LYP) =  -565.133961073     A.U. after   16 cycles
 SCF Done:  E(RB3LYP) =  -565.105443860     A.U. after   15 cycles
 SCF Done:  E(RB3LYP) =  -565.027305554     A.U. after   16 cycles
 SCF Done:  E(RB3LYP) =  -565.222337063     A.U. after   12 cycles
 SCF Done:  E(RB3LYP) =  -565.222388458     A.U. after   10 cycles
 SCF Done:  E(RB3LYP) =  -565.222392412     A.U. after    9 cycles
 SCF Done:  E(RB3LYP) =  -565.222394710     A.U. after    9 cycles
 SCF Done:  E(RB3LYP) =  -565.222395408     A.U. after    9 cycles
 SCF Done:  E(RB3LYP) =  -565.222395501     A.U. after    8 cycles
 Optimization completed.
    -- Stationary point found.
 Normal termination of Gaussian 16 at Tue Dec  8 13:17:42 2020.

 --------------------------------------------------------------------
 #N Geom=AllCheck Guess=TCheck SCRF=Check GenChk RB3LYP/6-31G(d) Freq
 --------------------------------------------------------------------

 Structure from the checkpoint file:  "JID_602.chk"
 -----------------------------
 CID_11217319_JID_602_neutraal
 -----------------------------
 Charge =  0 Multiplicity = 1

 SCF Done:  E(RB3LYP) =  -565.222395501     A.U. after    1 cycles

  Exact polarizability:  73.318  -0.002  62.072  -0.370   0.001  54.355
 Approx polarizability: 112.909  -0.015 105.695  -6.563  -0.011  81.252

                      1                      2                      3
                      A                      A                      A
 Frequencies --     33.6532                78.6413                93.4295
 Red. masses --     11.0050                12.9340                12.9711
 Frc consts  --      0.0073                 0.0471                 0.0667
 IR Inten    --      0.1037                 0.0959                 2.1808

                      4                      5                      6
                      A                      A                      A
 Frequencies --    183.2811               197.7695               226.3114
 Red. masses --      6.4436                 3.5442                 2.4302
 Frc consts  --      0.1275                 0.0817                 0.0733
 IR Inten    --     15.5032                12.6517                11.1069

                      7                      8                      9
                      A                      A                      A
 Frequencies --    232.5807               266.0736               288.7944
 Red. masses --      2.8326                 8.3529                 2.2563
 Frc consts  --      0.0903                 0.3484                 0.1109
 IR Inten    --     20.0594                28.8652                 0.5892

                     10                     11                     12
                      A                      A                      A
 Frequencies --    413.5307               436.0883               524.9157
 Red. masses --      6.5123                 7.1450                10.2822
 Frc consts  --      0.6561                 0.8006                 1.6692
 IR Inten    --      1.4594                11.9569                 0.7064

                     13                     14                     15
                      A                      A                      A
 Frequencies --    559.4639               738.6892               804.8196
 Red. masses --      7.6532                 6.7439                 6.5139
 Frc consts  --      1.4114                 2.1681                 2.4859
 IR Inten    --     20.9921                71.4201               139.8674

                     16                     17                     18
                      A                      A                      A
 Frequencies --    840.4163              1012.0706              1014.1151
 Red. masses --      4.7289                 1.6138                 1.6341
 Frc consts  --      1.9679                 0.9739                 0.9902
 IR Inten    --     21.7586                 0.1112                 0.1032

                     19                     20                     21
                      A                      A                      A
 Frequencies --   1016.3997              1034.2695              1178.2056
 Red. masses --      1.6741                 1.6014                 6.3661
 Frc consts  --      1.0190                 1.0093                 5.2067
 IR Inten    --      1.1340                 1.5409               139.6617

                     22                     23                     24
                      A                      A                      A
 Frequencies --   1195.5399              1275.2157              1355.8865
 Red. masses --      4.4247                 5.8097                 3.8389
 Frc consts  --      3.7261                 5.5664                 4.1582
 IR Inten    --    216.4369               369.5311                26.4708

                     25                     26                     27
                      A                      A                      A
 Frequencies --   1410.7252              1426.3297              1436.8442
 Red. masses --      1.3270                 1.3204                 1.3027
 Frc consts  --      1.5560                 1.5827                 1.5846
 IR Inten    --      9.1330                16.6739                 5.3067

                     28                     29                     30
                      A                      A                      A
 Frequencies --   1458.1729              1825.7776              1826.0846
 Red. masses --      1.2929                 9.3036                 9.0705
 Frc consts  --      1.6197                18.2724                17.8206
 IR Inten    --      3.3221               566.1357               329.8903

                     31                     32                     33
                      A                      A                      A
 Frequencies --   1845.4947              1880.8819              3024.0454
 Red. masses --      9.2626                 9.1905                 1.0888
 Frc consts  --     18.5869                19.1564                 5.8664
 IR Inten    --    163.9154                23.9864                 0.3898

                     34                     35                     36
                      A                      A                      A
 Frequencies --   3031.2852              3045.5846              3111.5893
 Red. masses --      1.0916                 1.0928                 1.0943
 Frc consts  --      5.9097                 5.9724                 6.2425
 IR Inten    --     46.5180                96.7391                12.5802

 - Thermochemistry -
 -------------------
 Temperature   298.150 Kelvin.  Pressure   1.00000 Atm.
 Atom     1 has atomic number  6 and mass  12.00000

 Molecular mass:   144.01711 amu.
 Principal axes and moments of inertia in atomic units:
                           1         2         3
     Eigenvalues --  1239.715881429.193161674.67904
           X            0.99939   0.00012   0.03479
           Y           -0.00013   1.00000   0.00012
           Z           -0.03479  -0.00012   0.99939
 This molecule is an asymmetric top.
 Rotational symmetry number  1.
 Warning -- assumption of classical behavior for rotation
           may cause significant error
 Rotational temperatures (Kelvin)      0.06987     0.06060     0.05172
 Rotational constants (GHZ):           1.45577     1.26277     1.07766
 Zero-point vibrational energy     241185.0 (Joules/Mol)
                                   57.64459 (Kcal/Mol)
 Warning -- explicit consideration of  13 degrees of freedom as
           vibrations may cause significant error
 Vibrational temperatures:     48.42   113.15   134.42   263.70   284.55
          (Kelvin)            325.61   334.63   382.82   415.51   594.98
                              627.43   755.24   804.94  1062.81  1157.96
                             1209.17  1456.14  1459.09  1462.37  1488.08
                             1695.18  1720.12  1834.75  1950.82  2029.72
                             2052.17  2067.30  2097.99  2626.89  2627.33
                             2655.26  2706.17  4350.93  4361.34  4381.92
                             4476.88

 Zero-point correction=                           0.091862 (Hartree/Particle)
 Thermal correction to Energy=                    0.101600
 Thermal correction to Enthalpy=                  0.102544
 Thermal correction to Gibbs Free Energy=         0.055605
 Sum of electronic and zero-point Energies=           -565.130533
 Sum of electronic and thermal Energies=              -565.120796
 Sum of electronic and thermal Enthalpies=            -565.119852
 Sum of electronic and thermal Free Energies=         -565.166790

                     E (Thermal)             CV                S
                      KCal/Mol        Cal/Mol-Kelvin    Cal/Mol-Kelvin
 Total                   63.755             32.325             98.790
 Electronic               0.000              0.000              0.000
 Translational            0.889              2.981             40.805
 Rotational               0.889              2.981             29.474
 Vibrational             61.977             26.363             28.511
 Vibration     1          0.594              1.983              5.602
 Vibration     2          0.600              1.964              3.925
 Vibration     3          0.602              1.954              3.587
 Vibration     4          0.631              1.863              2.295
 Vibration     5          0.637              1.843              2.154
 Vibration     6          0.650              1.801              1.908
 Vibration     7          0.653              1.791              1.859
 Vibration     8          0.672              1.735              1.622
 Vibration     9          0.685              1.695              1.481
 Vibration    10          0.777              1.441              0.914
 Vibration    11          0.797              1.392              0.839
 Vibration    12          0.880              1.195              0.599
 Vibration    13          0.915              1.119              0.525

                           ! Non-Optimized Parameters !
 Normal termination of Gaussian 16 at Tue Dec  8 13:26:51 2020.

 ----------------------------------------------------------------------
 # B3LYP/6-311++G(d,p) empiricaldispersion=gd3bj scf=xqc pop=npa geom=c
 heck
 ----------------------------------------------------------------------

 -------------------------------------
 CID_11217319_JID_602_Energie_neutraal
 -------------------------------------
 Structure from the checkpoint file:  "JID_602.chk"
 Charge =  0 Multiplicity = 1

 SCF Done:  E(RB3LYP) =  -565.398521750     A.U. after   14 cycles
 Normal termination of Gaussian 16 at Tue Dec  8 13:27:46 2020.

 ----------------------------------------------------------------------
 # B3LYP/6-311++G(d,p) empiricaldispersion=gd3bj scf=xqc pop=npa geom=c
 heck
 ----------------------------------------------------------------------

 -----------------------------------
 CID_11217319_JID_602_Energie_kation
 -----------------------------------
 Structure from the checkpoint file:  "JID_602.chk"
 Charge =  1 Multiplicity = 2

 SCF Done:  E(UB3LYP) =  -565.017431264     A.U. after   30 cycles
 Normal termination of Gaussian 16 at Tue Dec  8 13:30:34 2020.
 Gaussian 16:  ES64L-G16RevA.03 25-Dec-2016

 ----------------------------------------------------------------------
 # B3LYP/6-311++G(d,p) empiricaldispersion=gd3bj scf=xqc pop=npa geom=c
 heck
 ----------------------------------------------------------------------

 ----------------------------------
 CID_11217319_JID_602_Energie_anion
 ----------------------------------
 Structure from the checkpoint file:  "JID_602.chk"
 Charge = -1 Multiplicity = 2

                         Standard orientation:
 ---------------------------------------------------------------------
 Center     Atomic      Atomic             Coordinates (Angstroms)
 Number     Number       Type             X           Y           Z
 ---------------------------------------------------------------------
      1          6           0        1.439967   -1.236493    0.463994
      2          8           0        0.887890   -2.295998    0.323257
      3          7           0        0.776393    0.000634    0.388168
      4          6           0        1.439844    1.237954    0.461368
      5          8           0        0.887732    2.297139    0.318387
      6          7           0       -0.544177    0.000030   -0.020598
      7          6           0       -1.553489    0.001278    0.953077
      8          8           0       -2.729633    0.001050    0.690802
      9          6           0       -0.791708   -0.002167   -1.407828
     10          8           0        0.096311   -0.003439   -2.222352
     11          1           0        2.512301   -1.110487    0.687582
     12          1           0        2.512186    1.112502    0.685282
     13          1           0       -1.128247    0.002422    1.971009
     14          1           0       -1.867842   -0.002542   -1.621288
 ---------------------------------------------------------------------

 SCF Done:  E(UB3LYP) =  -565.409118537     A.U. after   23 cycles

 The electronic state is 2-A.
 Alpha  occ. eigenvalues --  -18.96664 -18.96663 -18.95833 -18.95686 -14.26141
 Alpha  occ. eigenvalues --  -14.24858 -10.13531 -10.13530 -10.12148 -10.12059
 Alpha  occ. eigenvalues --   -0.95489  -0.91375  -0.91274  -0.90132  -0.85840
 Alpha  occ. eigenvalues --   -0.72616  -0.54385  -0.52932  -0.52542  -0.40594
 Alpha  occ. eigenvalues --   -0.40478  -0.37817  -0.36222  -0.31631  -0.30402
 Alpha  occ. eigenvalues --   -0.30026  -0.29398  -0.28782  -0.28729  -0.26167
 Alpha  occ. eigenvalues --   -0.24295  -0.16431  -0.16242  -0.15034  -0.14798
 Alpha  occ. eigenvalues --   -0.12821  -0.11542   0.05809
 Alpha virt. eigenvalues --    0.08851   0.09356   0.11549   0.12436   0.12585
 Alpha virt. eigenvalues --    0.12887   0.15274   0.16424   0.17110   0.18427
 Alpha virt. eigenvalues --    0.18674   0.19558   0.20178   0.20861   0.21411

  Beta  occ. eigenvalues --  -18.96318 -18.96318 -18.95572 -18.95383 -14.26263
  Beta  occ. eigenvalues --  -14.24973 -10.13272 -10.13271 -10.11814 -10.11808
  Beta  occ. eigenvalues --   -0.95235  -0.90763  -0.90722  -0.89592  -0.85582
  Beta  occ. eigenvalues --   -0.72395  -0.53810  -0.52301  -0.52102  -0.40268
  Beta  occ. eigenvalues --   -0.40193  -0.37424  -0.35963  -0.31151  -0.29593
  Beta  occ. eigenvalues --   -0.29478  -0.29005  -0.28118  -0.27696  -0.24325
  Beta  occ. eigenvalues --   -0.22499  -0.16137  -0.15501  -0.14737  -0.14147
  Beta  occ. eigenvalues --   -0.12493  -0.11269
  Beta virt. eigenvalues --    0.09303   0.11667   0.11788   0.11953   0.12585
  Beta virt. eigenvalues --    0.12744   0.13570   0.16190   0.16433   0.17168
  Beta virt. eigenvalues --    0.18874   0.19437   0.19881   0.20180   0.20986

 Mulliken charges and spin densities:
               1          2
     1  C    0.089108   0.170801
     2  O   -0.365828   0.090894
     3  N   -0.288521  -0.008450
     4  C    0.089102   0.170868
     5  O   -0.365849   0.090906
     6  N    0.236888  -0.070176
     7  C    0.046989   0.242765
     8  O   -0.380705   0.092515
     9  C    0.053143   0.170641
    10  O   -0.391887   0.091464
    11  H    0.035095  -0.003755
    12  H    0.035191  -0.003858
    13  H    0.097232  -0.020472
    14  H    0.110042  -0.014142
 Sum of Mulliken charges =  -1.00000   1.00000

 Dipole moment (field-independent basis, Debye):
    X=              2.9000    Y=              0.0025    Z=              2.0074  Tot=              3.5270
 Quadrupole moment (field-independent basis, Debye-Ang):
   XX=            -71.8811   YY=            -82.4869   ZZ=            -69.1569
   XY=              0.0107   XZ=              5.9202   YZ=              0.0100

 Summary of Natural Population Analysis:

                                       Natural Population
                Natural  -----------------------------------------------
    Atom  No    Charge         Core      Valence    Rydberg      Total
 -----------------------------------------------------------------------
      C    1    0.30940      0.99975     1.66936    0.02149     2.69060
      O    2   -0.26094      0.99988     3.25394    0.00712     4.26094
      N    3   -0.19273      0.99966     2.67806    0.01501     3.69273
      C    4    0.30939      0.99975     1.66937    0.02149     2.69061
      O    5   -0.26095      0.99988     3.25395    0.00712     4.26095
      N    6   -0.19138      0.99966     2.67664    0.01509     3.69138
      C    7    0.33476      0.99975     1.64403    0.02147     2.66524
      O    8   -0.28451      0.99988     3.27784    0.00680     4.28451
      C    9    0.31189      0.99975     1.66700    0.02136     2.68811
      O   10   -0.27143      0.99988     3.26507    0.00649     4.27143
      H   11    0.04380      0.00000     0.45443    0.00177     0.45620
      H   12    0.04380      0.00000     0.45443    0.00177     0.45620
      H   13    0.04567      0.00000     0.45284    0.00149     0.45433
      H   14    0.06324      0.00000     0.43521    0.00155     0.43676
 =======================================================================
   * Total *   -0.00000      9.99783    26.85213    0.15003    37.00000

 Normal termination of Gaussian 16 at Tue Dec  8 13:34:26 2020.
