 Gaussian 16, Revision A.03,

 -----------------------------------------------------------
 # opt freq B3LYP/6-31G(d) empiricaldispersion=gd3bj scf=xqc
 -----------------------------------------------------------

 ------------------------------
 CID_43546410_JID_3772_neutraal
 ------------------------------
 Symbolic Z-matrix:
 Charge =  0 Multiplicity = 1

 SCF Done:  E(RB3LYP) =  -950.379617619     A.U. after   15 cycles
 SCF Done:  E(RB3LYP) =  -950.385152404     A.U. after   12 cycles
 SCF Done:  E(RB3LYP) =  -950.384238249     A.U. after   13 cycles
 SCF Done:  E(RB3LYP) =  -950.387470081     A.U. after   12 cycles
 SCF Done:  E(RB3LYP) =  -950.389674622     A.U. after   12 cycles
 SCF Done:  E(RB3LYP) =  -950.395350165     A.U. after   15 cycles
 SCF Done:  E(RB3LYP) =  -950.397226429     A.U. after   13 cycles
 SCF Done:  E(RB3LYP) =  -950.397276982     A.U. after   14 cycles
 SCF Done:  E(RB3LYP) =  -950.398651945     A.U. after   14 cycles
 SCF Done:  E(RB3LYP) =  -950.399415515     A.U. after   12 cycles
 SCF Done:  E(RB3LYP) =  -950.399932354     A.U. after   10 cycles
 SCF Done:  E(RB3LYP) =  -950.399933463     A.U. after    9 cycles
 SCF Done:  E(RB3LYP) =  -950.399933914     A.U. after    8 cycles
 SCF Done:  E(RB3LYP) =  -950.399934017     A.U. after    7 cycles
 SCF Done:  E(RB3LYP) =  -950.399934047     A.U. after    7 cycles
 Optimization completed.
    -- Stationary point found.
 Normal termination of Gaussian 16 at Sun Dec 13 16:12:39 2020.

 --------------------------------------------------------------------
 #N Geom=AllCheck Guess=TCheck SCRF=Check GenChk RB3LYP/6-31G(d) Freq
 --------------------------------------------------------------------

 Structure from the checkpoint file:  "JID_3772.chk"
 ------------------------------
 CID_43546410_JID_3772_neutraal
 ------------------------------
 Charge =  0 Multiplicity = 1

 SCF Done:  E(RB3LYP) =  -950.399934047     A.U. after    1 cycles

  Exact polarizability: 135.646   0.806 125.777  10.836  -0.994  90.482
 Approx polarizability: 191.062  10.383 195.067  27.765   5.773 142.733

                      1                      2                      3
                      A                      A                      A
 Frequencies --     31.3541                43.3175                58.3558
 Red. masses --      4.9441                 2.0657                 3.3085
 Frc consts  --      0.0029                 0.0023                 0.0066
 IR Inten    --      0.5207                 0.1452                 1.7504

                      4                      5                      6
                      A                      A                      A
 Frequencies --     68.1621                74.5552                88.3163
 Red. masses --      1.6019                 2.5320                 1.2952
 Frc consts  --      0.0044                 0.0083                 0.0060
 IR Inten    --      0.1301                 0.2913                 1.3518

                      7                      8                      9
                      A                      A                      A
 Frequencies --    121.6772               154.0635               157.6218
 Red. masses --      2.3107                 1.4135                 3.0851
 Frc consts  --      0.0202                 0.0198                 0.0452
 IR Inten    --      2.5086                 4.2958                 0.6770

                     10                     11                     12
                      A                      A                      A
 Frequencies --    184.9681               244.2728               260.5991
 Red. masses --      4.1146                 2.7826                 4.0761
 Frc consts  --      0.0829                 0.0978                 0.1631
 IR Inten    --      0.0858                 1.9115                 2.7204

                     13                     14                     15
                      A                      A                      A
 Frequencies --    276.5279               328.4464               363.1855
 Red. masses --      3.5852                 3.9616                 3.0228
 Frc consts  --      0.1615                 0.2518                 0.2349
 IR Inten    --      0.8260                 0.0787                10.6783

                     16                     17                     18
                      A                      A                      A
 Frequencies --    443.1837               485.9120               502.5718
 Red. masses --      6.4518                 1.6247                 2.2229
 Frc consts  --      0.7466                 0.2260                 0.3308
 IR Inten    --      5.1468                31.6154                47.6420

                     19                     20                     21
                      A                      A                      A
 Frequencies --    511.9824               532.2147               606.1000
 Red. masses --      3.5876                 1.3795                 3.9132
 Frc consts  --      0.5541                 0.2302                 0.8470
 IR Inten    --      6.3543                54.7853                 2.8741

                     22                     23                     24
                      A                      A                      A
 Frequencies --    641.9290               680.5078               705.0516
 Red. masses --      4.3930                 2.7675                 5.2403
 Frc consts  --      1.0666                 0.7551                 1.5348
 IR Inten    --     33.9920                13.5604                 7.0836

                     25                     26                     27
                      A                      A                      A
 Frequencies --    713.7953               783.1445               789.7028
 Red. masses --      5.3561                 5.1088                 5.2155
 Frc consts  --      1.6079                 1.8461                 1.9163
 IR Inten    --     15.8783                 5.1788                 4.0468

                     28                     29                     30
                      A                      A                      A
 Frequencies --    826.5434               899.5855               925.4036
 Red. masses --      5.9478                 1.7339                 3.1319
 Frc consts  --      2.3941                 0.8267                 1.5802
 IR Inten    --      5.3634                 1.6348                 3.2961

                     31                     32                     33
                      A                      A                      A
 Frequencies --   1000.3663              1004.1712              1024.7248
 Red. masses --      1.6142                 1.1940                 1.6839
 Frc consts  --      0.9518                 0.7094                 1.0418
 IR Inten    --      6.6815                 3.9862                 9.6552

                     34                     35                     36
                      A                      A                      A
 Frequencies --   1028.1027              1061.8771              1077.5683
 Red. masses --      1.4401                 4.2017                 1.4582
 Frc consts  --      0.8969                 2.7914                 0.9976
 IR Inten    --      7.9424                10.8202                 0.7357

                     37                     38                     39
                      A                      A                      A
 Frequencies --   1080.3040              1171.1098              1181.4674
 Red. masses --      1.5033                 3.3455                 1.2676
 Frc consts  --      1.0337                 2.7034                 1.0425
 IR Inten    --      2.7918                 6.4847                43.0730

                     40                     41                     42
                      A                      A                      A
 Frequencies --   1272.2301              1275.3583              1331.7190
 Red. masses --      3.0073                 1.2674                 2.3514
 Frc consts  --      2.8679                 1.2146                 2.4570
 IR Inten    --     23.1097                13.8589                21.6262

                     43                     44                     45
                      A                      A                      A
 Frequencies --   1380.3054              1393.3008              1426.7648
 Red. masses --      2.7616                 1.1872                 1.6823
 Frc consts  --      3.1000                 1.3578                 2.0177
 IR Inten    --    186.0693                12.2890                 0.6196

                     46                     47                     48
                      A                      A                      A
 Frequencies --   1438.6575              1450.2962              1455.9311
 Red. masses --      1.4059                 1.5181                 1.9014
 Frc consts  --      1.7144                 1.8814                 2.3747
 IR Inten    --      7.7832                13.6766                16.7476

                     49                     50                     51
                      A                      A                      A
 Frequencies --   1479.2470              1494.9529              1497.4984
 Red. masses --      1.1270                 1.0869                 1.4912
 Frc consts  --      1.4529                 1.4312                 1.9702
 IR Inten    --     22.7862                 7.8981                12.9108

                     52                     53                     54
                      A                      A                      A
 Frequencies --   1507.9251              1511.1690              1517.3283
 Red. masses --      1.0488                 1.0454                 1.1571
 Frc consts  --      1.4051                 1.4065                 1.5695
 IR Inten    --     15.0913                 6.9243                 6.8946

                     55                     56                     57
                      A                      A                      A
 Frequencies --   1517.7561              1542.7883              1548.3792
 Red. masses --      1.1204                 2.3826                 4.0174
 Frc consts  --      1.5206                 3.3413                 5.6748
 IR Inten    --      7.7650                 3.7025                16.9711

                     58                     59                     60
                      A                      A                      A
 Frequencies --   1645.2544              1782.9202              3050.4160
 Red. masses --      5.2398                 8.2941                 1.0394
 Frc consts  --      8.3567                15.5340                 5.6981
 IR Inten    --     19.0596               352.3074                44.4240

                     61                     62                     63
                      A                      A                      A
 Frequencies --   3050.9103              3068.2086              3100.4482
 Red. masses --      1.0402                 1.0305                 1.1002
 Frc consts  --      5.7048                 5.7158                 6.2312
 IR Inten    --      4.2080                25.1604                18.1939

                     64                     65                     66
                      A                      A                      A
 Frequencies --   3103.2221              3108.0464              3150.7632
 Red. masses --      1.0583                 1.1001                 1.1002
 Frc consts  --      6.0044                 6.2609                 6.4350
 IR Inten    --      7.3111                15.0526                10.3287

                     67                     68                     69
                      A                      A                      A
 Frequencies --   3151.6926              3157.9099              3166.1360
 Red. masses --      1.1055                 1.0980                 1.1080
 Frc consts  --      6.4698                 6.4514                 6.5440
 IR Inten    --     10.0084                 5.2380                 3.5838

                     70                     71                     72
                      A                      A                      A
 Frequencies --   3172.8879              3564.3554              3661.1352
 Red. masses --      1.1065                 1.0751                 1.0813
 Frc consts  --      6.5629                 8.0475                 8.5391
 IR Inten    --      2.1024                24.2108                70.8629

 - Thermochemistry -
 -------------------
 Temperature   298.150 Kelvin.  Pressure   1.00000 Atm.
 Atom     1 has atomic number  6 and mass  12.00000

 Molecular mass:   199.07793 amu.
 Principal axes and moments of inertia in atomic units:
                           1         2         3
     Eigenvalues --  1709.691693627.324274351.94738
           X            0.99982  -0.01919   0.00083
           Y            0.01920   0.99740  -0.06945
           Z            0.00050   0.06945   0.99759
 This molecule is an asymmetric top.
 Rotational symmetry number  1.
 Warning -- assumption of classical behavior for rotation
           may cause significant error
 Rotational temperatures (Kelvin)      0.05066     0.02388     0.01990
 Rotational constants (GHZ):           1.05559     0.49754     0.41470
 Zero-point vibrational energy     556913.4 (Joules/Mol)
                                  133.10551 (Kcal/Mol)
 Warning -- explicit consideration of  21 degrees of freedom as
           vibrations may cause significant error
 Vibrational temperatures:     45.11    62.32    83.96    98.07   107.27
          (Kelvin)            127.07   175.07   221.66   226.78   266.13
                              351.45   374.94   397.86   472.56   522.54
                              637.64   699.12   723.09   736.63   765.74
                              872.04   923.59   979.10  1014.41  1026.99
                             1126.77  1136.21  1189.21  1294.30  1331.45
                             1439.30  1444.78  1474.35  1479.21  1527.80
                             1550.38  1554.32  1684.97  1699.87  1830.46
                             1834.96  1916.05  1985.95  2004.65  2052.80
                             2069.91  2086.65  2094.76  2128.31  2150.90
                             2154.57  2169.57  2174.24  2183.10  2183.71
                             2219.73  2227.77  2367.15  2565.22  4388.87
                             4389.58  4414.47  4460.85  4464.84  4471.79
                             4533.25  4534.58  4543.53  4555.36  4565.08
                             5128.31  5267.56

 Zero-point correction=                           0.212117 (Hartree/Particle)
 Thermal correction to Energy=                    0.227021
 Thermal correction to Enthalpy=                  0.227966
 Thermal correction to Gibbs Free Energy=         0.168294
 Sum of electronic and zero-point Energies=           -950.187817
 Sum of electronic and thermal Energies=              -950.172913
 Sum of electronic and thermal Enthalpies=            -950.171968
 Sum of electronic and thermal Free Energies=         -950.231640

                     E (Thermal)             CV                S
                      KCal/Mol        Cal/Mol-Kelvin    Cal/Mol-Kelvin
 Total                  142.458             52.017            125.590
 Electronic               0.000              0.000              0.000
 Translational            0.889              2.981             41.770
 Rotational               0.889              2.981             31.668
 Vibrational            140.681             46.055             52.152
 Vibration     1          0.594              1.983              5.742
 Vibration     2          0.595              1.980              5.101
 Vibration     3          0.596              1.974              4.512
 Vibration     4          0.598              1.969              4.206
 Vibration     5          0.599              1.966              4.029
 Vibration     6          0.601              1.957              3.697
 Vibration     7          0.609              1.931              3.074
 Vibration     8          0.620              1.898              2.621
 Vibration     9          0.621              1.894              2.578
 Vibration    10          0.631              1.860              2.278
 Vibration    11          0.660              1.772              1.772
 Vibration    12          0.669              1.745              1.658
 Vibration    13          0.678              1.717              1.555
 Vibration    14          0.712              1.619              1.268
 Vibration    15          0.737              1.548              1.108
 Vibration    16          0.803              1.376              0.817
 Vibration    17          0.842              1.281              0.694
 Vibration    18          0.858              1.244              0.652
 Vibration    19          0.867              1.223              0.629
 Vibration    20          0.887              1.179              0.582
 Vibration    21          0.965              1.019              0.439

 Optimization completed.
    -- Stationary point found.
 Normal termination of Gaussian 16 at Sun Dec 13 16:19:16 2020.

 ----------------------------------------------------------------------
 # B3LYP/6-311++G(d,p) empiricaldispersion=gd3bj scf=xqc pop=npa geom=c
 heck
 ----------------------------------------------------------------------

 --------------------------------------
 CID_43546410_JID_3772_Energie_neutraal
 --------------------------------------
 Structure from the checkpoint file:  "JID_3772.chk"
 Charge =  0 Multiplicity = 1

 SCF Done:  E(RB3LYP) =  -950.587686300     A.U. after   15 cycles
 Normal termination of Gaussian 16 at Sun Dec 13 16:21:46 2020.

 ----------------------------------------------------------------------
 # B3LYP/6-311++G(d,p) empiricaldispersion=gd3bj scf=xqc pop=npa geom=c
 heck
 ----------------------------------------------------------------------

 ------------------------------------
 CID_43546410_JID_3772_Energie_kation
 ------------------------------------
 Structure from the checkpoint file:  "JID_3772.chk"
 Charge =  1 Multiplicity = 2

 SCF Done:  E(UB3LYP) =  -950.289179444     A.U. after   28 cycles
 Normal termination of Gaussian 16 at Sun Dec 13 16:27:54 2020.
 Gaussian 16:  ES64L-G16RevA.03 25-Dec-2016

 ----------------------------------------------------------------------
 # B3LYP/6-311++G(d,p) empiricaldispersion=gd3bj scf=xqc pop=npa geom=c
 heck
 ----------------------------------------------------------------------

 -----------------------------------
 CID_43546410_JID_3772_Energie_anion
 -----------------------------------
 Structure from the checkpoint file:  "JID_3772.chk"
 Charge = -1 Multiplicity = 2

                         Standard orientation:
 ---------------------------------------------------------------------
 Center     Atomic      Atomic             Coordinates (Angstroms)
 Number     Number       Type             X           Y           Z
 ---------------------------------------------------------------------
      1          6           0       -0.603292   -2.340996    1.123075
      2          6           0       -1.381673   -1.242972    0.482438
      3          6           0       -1.189169    0.133161    0.486524
      4          6           0       -2.247467    0.681404   -0.291658
      5          7           0       -3.041646   -0.283434   -0.749194
      6          7           0       -2.498473   -1.431900   -0.264234
      7          6           0       -2.497427    2.120185   -0.611482
      8          7           0       -0.147117    0.837079    1.129090
      9          6           0        1.052033    1.217962    0.575898
     10          8           0        1.893688    1.824028    1.228196
     11          6           0        1.299569    0.810310   -0.866461
     12         16           0        2.089548   -0.846783   -0.955452
     13          6           0        3.707334   -0.452507   -0.200357
     14          1           0        0.265549   -1.916340    1.629980
     15          1           0       -1.205174   -2.889822    1.857872
     16          1           0       -0.230702   -3.055569    0.381023
     17          1           0       -2.942740   -2.308728   -0.491238
     18          1           0       -2.616282    2.716254    0.300701
     19          1           0       -1.662342    2.556590   -1.172974
     20          1           0       -3.404996    2.214782   -1.212401
     21          1           0       -0.250435    1.114234    2.099070
     22          1           0        0.378315    0.729944   -1.445954
     23          1           0        1.958840    1.552743   -1.321354
     24          1           0        4.282486    0.217625   -0.845560
     25          1           0        3.572062    0.011420    0.778354
     26          1           0        4.244362   -1.398344   -0.093340
 ---------------------------------------------------------------------

 SCF Done:  E(UB3LYP) =  -950.575632403     A.U. after   33 cycles
 SCF Done:  E(UB3LYP) =  -950.575632403     a.u. after    1 cycles

 The electronic state is 2-A.
 Alpha  occ. eigenvalues --  -88.75280 -18.99982 -14.28152 -14.25029 -14.23047
 Alpha  occ. eigenvalues --  -10.18601 -10.11982 -10.11424 -10.10268 -10.10152
 Alpha  occ. eigenvalues --  -10.09899 -10.08059 -10.07220  -7.83848  -5.80266
 Alpha  occ. eigenvalues --   -5.79894  -5.79171  -0.95173  -0.94600  -0.83647
 Alpha  occ. eigenvalues --   -0.73994  -0.71446  -0.69050  -0.63419  -0.62543
 Alpha  occ. eigenvalues --   -0.60938  -0.53833  -0.52145  -0.47745  -0.47288
 Alpha  occ. eigenvalues --   -0.43368  -0.39993  -0.39725  -0.35972  -0.35745
 Alpha  occ. eigenvalues --   -0.34707  -0.33885  -0.32701  -0.32680  -0.31867
 Alpha  occ. eigenvalues --   -0.31576  -0.30589  -0.29849  -0.29571  -0.28098
 Alpha  occ. eigenvalues --   -0.26946  -0.23089  -0.20815  -0.17988  -0.17006
 Alpha  occ. eigenvalues --   -0.15660  -0.14889  -0.13132   0.04400
 Alpha virt. eigenvalues --    0.06468   0.06617   0.07697   0.08172   0.08559
 Alpha virt. eigenvalues --    0.09285   0.09591   0.10465   0.10963   0.11022
 Alpha virt. eigenvalues --    0.11884   0.12315   0.12721   0.13332   0.14063

  Beta  occ. eigenvalues --  -88.75275 -18.99968 -14.28108 -14.25009 -14.23038
  Beta  occ. eigenvalues --  -10.18594 -10.11984 -10.11411 -10.10267 -10.10146
  Beta  occ. eigenvalues --  -10.09877 -10.08044 -10.07161  -7.83841  -5.80259
  Beta  occ. eigenvalues --   -5.79887  -5.79166  -0.95147  -0.94568  -0.83616
  Beta  occ. eigenvalues --   -0.73954  -0.71422  -0.69014  -0.63380  -0.62495
  Beta  occ. eigenvalues --   -0.60863  -0.53790  -0.52098  -0.47687  -0.47247
  Beta  occ. eigenvalues --   -0.43317  -0.39964  -0.39673  -0.35933  -0.35714
  Beta  occ. eigenvalues --   -0.34681  -0.33835  -0.32674  -0.32648  -0.31843
  Beta  occ. eigenvalues --   -0.31542  -0.30552  -0.29807  -0.29527  -0.28057
  Beta  occ. eigenvalues --   -0.26905  -0.23057  -0.20770  -0.17968  -0.16962
  Beta  occ. eigenvalues --   -0.15637  -0.14872  -0.13115
  Beta virt. eigenvalues --    0.06456   0.06935   0.07885   0.08091   0.08570
  Beta virt. eigenvalues --    0.08949   0.09980   0.10010   0.10869   0.11113
  Beta virt. eigenvalues --    0.11210   0.12339   0.12481   0.12839   0.13612

 Mulliken charges and spin densities:
               1          2
     1  C    1.561604  -1.918695
     2  C   -0.260498   0.586760
     3  C    1.057297  -1.455197
     4  C   -0.547713   0.671528
     5  N   -0.346665   0.328162
     6  N   -0.103887  -0.116384
     7  C    0.539893  -1.211302
     8  N   -0.379294   0.222070
     9  C   -0.573688   0.180149
    10  O   -0.332046   0.022470
    11  C   -0.062218  -0.145024
    12  S    0.532493  -0.161130
    13  C   -0.264706  -0.506832
    14  H   -0.161588   0.334075
    15  H   -0.885778   1.061498
    16  H   -0.377727   0.556264
    17  H   -0.448264   0.802512
    18  H   -0.050989   0.208554
    19  H    0.035603   0.095660
    20  H    0.001869   0.154851
    21  H   -0.028730   0.342241
    22  H    0.174935   0.074594
    23  H   -0.050939   0.314864
    24  H    0.011281   0.140576
    25  H    0.129885   0.085465
    26  H   -0.170127   0.332272
 Sum of Mulliken charges =  -1.00000   1.00000

 Dipole moment (field-independent basis, Debye):
    X=              2.6865    Y=              5.6230    Z=             -2.2455  Tot=              6.6240
 Quadrupole moment (field-independent basis, Debye-Ang):
   XX=           -144.0713   YY=           -142.1056   ZZ=           -120.7084
   XY=            -14.2826   XZ=             -1.5599   YZ=              1.3438

 Summary of Natural Population Analysis:

                                       Natural Population
                Natural  -----------------------------------------------
    Atom  No    Charge         Core      Valence    Rydberg      Total
 -----------------------------------------------------------------------
      C    1   -0.30441      0.99963     2.29786    0.00691     3.30441
      C    2    0.09632      0.99948     1.89141    0.01279     2.90368
      C    3   -0.00168      0.99934     1.98779    0.01455     3.00168
      C    4    0.07303      0.99954     1.91321    0.01422     2.92697
      N    5   -0.16118      0.99970     2.64843    0.01305     3.66118
      N    6   -0.16489      0.99965     2.65266    0.01258     3.66489
      C    7   -0.29793      0.99963     2.29355    0.00475     3.29793
      N    8   -0.31507      0.99964     2.80402    0.01142     3.81507
      C    9    0.34016      0.99965     1.63779    0.02240     2.65984
      O   10   -0.32556      0.99988     3.31912    0.00657     4.32556
      C   11   -0.29164      0.99955     2.28327    0.00882     3.29164
      S   12    0.09952      4.99966     2.88107    0.01975     7.90048
      C   13   -0.35087      0.99962     2.34518    0.00606     3.35087
      H   14    0.11380      0.00000     0.38411    0.00209     0.38620
      H   15    0.11230      0.00000     0.38402    0.00368     0.38770
      H   16    0.11344      0.00000     0.38395    0.00262     0.38656
      H   17    0.20422      0.00000     0.28604    0.00975     0.29578
      H   18    0.10499      0.00000     0.39368    0.00133     0.39501
      H   19    0.10179      0.00000     0.39688    0.00133     0.39821
      H   20    0.10893      0.00000     0.38993    0.00114     0.39107
      H   21    0.19856      0.00000     0.29887    0.00257     0.30144
      H   22    0.11790      0.00000     0.38028    0.00182     0.38210
      H   23    0.11144      0.00000     0.38719    0.00138     0.38856
      H   24    0.09814      0.00000     0.40000    0.00187     0.40186
      H   25    0.11276      0.00000     0.38556    0.00168     0.38724
      H   26    0.10594      0.00000     0.39260    0.00146     0.39406
 =======================================================================
   * Total *    0.00000     16.99495    35.81846    0.18659    53.00000

 Normal termination of Gaussian 16 at Sun Dec 13 16:35:10 2020.
