 Gaussian 16, Revision A.03,

 -----------------------------------------------------------
 # opt freq B3LYP/6-31G(d) empiricaldispersion=gd3bj scf=xqc
 -----------------------------------------------------------

 ------------------------------
 CID_86025533_JID_2021_neutraal
 ------------------------------
 Symbolic Z-matrix:
 Charge =  0 Multiplicity = 1

 SCF Done:  E(RB3LYP) =  -590.642353862     A.U. after   16 cycles
 SCF Done:  E(RB3LYP) =  -590.653443763     A.U. after   13 cycles
 SCF Done:  E(RB3LYP) =  -590.654710866     A.U. after   14 cycles
 SCF Done:  E(RB3LYP) =  -590.655435236     A.U. after   14 cycles
 SCF Done:  E(RB3LYP) =  -590.658954208     A.U. after   16 cycles
 SCF Done:  E(RB3LYP) =  -590.648915273     A.U. after   16 cycles
 SCF Done:  E(RB3LYP) =  -590.666863415     A.U. after   15 cycles
 SCF Done:  E(RB3LYP) =  -590.669108190     A.U. after   14 cycles
 SCF Done:  E(RB3LYP) =  -590.668595801     A.U. after   14 cycles
 SCF Done:  E(RB3LYP) =  -590.668782132     A.U. after   14 cycles
 SCF Done:  E(RB3LYP) =  -590.671738628     A.U. after   12 cycles
 SCF Done:  E(RB3LYP) =  -590.671745444     A.U. after   11 cycles
 SCF Done:  E(RB3LYP) =  -590.671734935     A.U. after   11 cycles
 SCF Done:  E(RB3LYP) =  -590.671746423     A.U. after   11 cycles
 SCF Done:  E(RB3LYP) =  -590.671745965     A.U. after   10 cycles
 SCF Done:  E(RB3LYP) =  -590.671746627     A.U. after   10 cycles
 Optimization completed.
    -- Stationary point found.
 Normal termination of Gaussian 16 at Wed Dec  9 17:00:07 2020.

 --------------------------------------------------------------------
 #N Geom=AllCheck Guess=TCheck SCRF=Check GenChk RB3LYP/6-31G(d) Freq
 --------------------------------------------------------------------

 Structure from the checkpoint file:  "JID_2021.chk"
 ------------------------------
 CID_86025533_JID_2021_neutraal
 ------------------------------
 Charge =  0 Multiplicity = 1

 SCF Done:  E(RB3LYP) =  -590.671746627     A.U. after    1 cycles

  Exact polarizability: 116.616   0.139  98.836   7.763  -3.545  65.092
 Approx polarizability: 168.055  -1.172 181.266  21.139 -10.808 100.676

                      1                      2                      3
                      A                      A                      A
 Frequencies --     33.3700                68.9659               108.4789
 Red. masses --      3.5570                 5.9184                 3.6120
 Frc consts  --      0.0023                 0.0166                 0.0250
 IR Inten    --      0.5787                 0.0904                 3.4308

                      4                      5                      6
                      A                      A                      A
 Frequencies --    127.7636               200.4956               242.8642
 Red. masses --      6.3809                 6.1542                 2.5587
 Frc consts  --      0.0614                 0.1458                 0.0889
 IR Inten    --      0.8304                 7.7604                 1.7555

                      7                      8                      9
                      A                      A                      A
 Frequencies --    253.7794               297.4890               344.0971
 Red. masses --      8.9589                 4.9996                 3.4488
 Frc consts  --      0.3400                 0.2607                 0.2406
 IR Inten    --      1.4266                 4.9218                 3.6786

                     10                     11                     12
                      A                      A                      A
 Frequencies --    390.8302               492.1487               577.2700
 Red. masses --      5.3046                 5.9465                 2.1237
 Frc consts  --      0.4774                 0.8486                 0.4170
 IR Inten    --      8.1936                 5.4216                 2.4329

                     13                     14                     15
                      A                      A                      A
 Frequencies --    589.7823               640.3665               667.3071
 Red. masses --      8.9270                 5.3347                 5.3571
 Frc consts  --      1.8295                 1.2889                 1.4055
 IR Inten    --      1.4432                 8.9116                 5.0759

                     16                     17                     18
                      A                      A                      A
 Frequencies --    715.7250               773.2349               782.4576
 Red. masses --      2.9565                 6.6670                 9.8584
 Frc consts  --      0.8923                 2.3486                 3.5561
 IR Inten    --     15.1292                 3.4527                 2.3766

                     19                     20                     21
                      A                      A                      A
 Frequencies --    867.5629               875.3013               877.5903
 Red. masses --      2.7640                 2.8317                 1.8857
 Frc consts  --      1.2257                 1.2782                 0.8557
 IR Inten    --     12.6772                 5.5951                 4.6999

                     22                     23                     24
                      A                      A                      A
 Frequencies --    885.0845               926.5083               959.3354
 Red. masses --      2.3000                 2.5633                 4.8208
 Frc consts  --      1.0616                 1.2964                 2.6140
 IR Inten    --      6.6725                 5.5487                36.0716

                     25                     26                     27
                      A                      A                      A
 Frequencies --    967.4405               998.2055              1034.8268
 Red. masses --      1.6541                 1.9100                 1.1917
 Frc consts  --      0.9121                 1.1213                 0.7519
 IR Inten    --     11.7455                29.6006                84.6245

                     28                     29                     30
                      A                      A                      A
 Frequencies --   1052.4687              1084.2385              1113.0165
 Red. masses --      1.9424                 2.8688                 2.1148
 Frc consts  --      1.2677                 1.9870                 1.5435
 IR Inten    --      2.5707                27.8473                 5.8652

                     31                     32                     33
                      A                      A                      A
 Frequencies --   1176.1845              1200.6578              1212.2920
 Red. masses --      4.6349                 1.2428                 1.5103
 Frc consts  --      3.7778                 1.0556                 1.3078
 IR Inten    --     19.3473                13.8725                 2.7803

                     34                     35                     36
                      A                      A                      A
 Frequencies --   1267.3456              1284.9604              1327.1489
 Red. masses --      1.2284                 1.3049                 1.4623
 Frc consts  --      1.1625                 1.2695                 1.5175
 IR Inten    --      1.9619                 4.2776                77.9704

                     37                     38                     39
                      A                      A                      A
 Frequencies --   1338.5946              1367.9046              1380.0118
 Red. masses --      1.3991                 1.3597                 1.5477
 Frc consts  --      1.4770                 1.4990                 1.7366
 IR Inten    --      2.5951                23.6968                70.6134

                     40                     41                     42
                      A                      A                      A
 Frequencies --   1405.2111              1446.0342              1519.5304
 Red. masses --      1.8312                 1.4407                 1.0908
 Frc consts  --      2.1304                 1.7749                 1.4840
 IR Inten    --     94.9061                27.4280                 8.6824

                     43                     44                     45
                      A                      A                      A
 Frequencies --   1522.2849              1529.2169              1554.4620
 Red. masses --      1.5213                 1.1969                 1.1102
 Frc consts  --      2.0771                 1.6492                 1.5805
 IR Inten    --     40.0482                16.2212                 3.0263

                     46                     47                     48
                      A                      A                      A
 Frequencies --   1670.2662              1876.6598              1893.6852
 Red. masses --      8.7566                12.8684                12.9715
 Frc consts  --     14.3932                26.7022                27.4066
 IR Inten    --    399.5186               194.8653               405.9786

                     49                     50                     51
                      A                      A                      A
 Frequencies --   3040.7739              3054.9984              3062.5456
 Red. masses --      1.0666                 1.0816                 1.0652
 Frc consts  --      5.8104                 5.9477                 5.8862
 IR Inten    --    197.7551                13.4638               402.0680

                     52                     53                     54
                      A                      A                      A
 Frequencies --   3069.6792              3075.2965              3104.7291
 Red. masses --      1.0730                 1.0639                 1.0977
 Frc consts  --      5.9569                 5.9284                 6.2344
 IR Inten    --     13.5869                40.4836                31.5250

                     55                     56                     57
                      A                      A                      A
 Frequencies --   3132.0501              3140.9175              3537.9728
 Red. masses --      1.1003                 1.1021                 1.0761
 Frc consts  --      6.3597                 6.4059                 7.9361
 IR Inten    --     21.0756                21.2407                 4.0935

 - Thermochemistry -
 -------------------
 Temperature   298.150 Kelvin.  Pressure   1.00000 Atm.
 Atom     1 has atomic number  6 and mass  12.00000

 Molecular mass:   167.05824 amu.
 Principal axes and moments of inertia in atomic units:
                           1         2         3
     Eigenvalues --  1117.428662514.975763213.41529
           X            0.99996  -0.00498  -0.00758
           Y            0.00504   0.99996   0.00785
           Z            0.00754  -0.00788   0.99994
 This molecule is an asymmetric top.
 Rotational symmetry number  1.
 Warning -- assumption of classical behavior for rotation
           may cause significant error
 Rotational temperatures (Kelvin)      0.07751     0.03444     0.02695
 Rotational constants (GHZ):           1.61508     0.71760     0.56163
 Zero-point vibrational energy     437470.9 (Joules/Mol)
                                  104.55805 (Kcal/Mol)
 Warning -- explicit consideration of  13 degrees of freedom as
           vibrations may cause significant error
 Vibrational temperatures:     48.01    99.23   156.08   183.82   288.47
          (Kelvin)            349.43   365.13   428.02   495.08   562.32
                              708.09   830.56   848.57   921.34   960.11
                             1029.77  1112.51  1125.78  1248.23  1259.36
                             1262.66  1273.44  1333.04  1380.27  1391.93
                             1436.20  1488.88  1514.27  1559.98  1601.38
                             1692.27  1727.48  1744.22  1823.43  1848.77
                             1909.47  1925.94  1968.11  1985.53  2021.79
                             2080.52  2186.27  2190.23  2200.20  2236.52
                             2403.14  2700.09  2724.59  4375.00  4395.46
                             4406.32  4416.58  4424.67  4467.01  4506.32
                             4519.08  5090.35

 Zero-point correction=                           0.166624 (Hartree/Particle)
 Thermal correction to Energy=                    0.176948
 Thermal correction to Enthalpy=                  0.177892
 Thermal correction to Gibbs Free Energy=         0.129458
 Sum of electronic and zero-point Energies=           -590.505123
 Sum of electronic and thermal Energies=              -590.494799
 Sum of electronic and thermal Enthalpies=            -590.493854
 Sum of electronic and thermal Free Energies=         -590.542289

                     E (Thermal)             CV                S
                      KCal/Mol        Cal/Mol-Kelvin    Cal/Mol-Kelvin
 Total                  111.037             38.347            101.939
 Electronic               0.000              0.000              0.000
 Translational            0.889              2.981             41.248
 Rotational               0.889              2.981             30.580
 Vibrational            109.259             32.385             30.112
 Vibration     1          0.594              1.983              5.618
 Vibration     2          0.598              1.969              4.183
 Vibration     3          0.606              1.942              3.296
 Vibration     4          0.611              1.925              2.979
 Vibration     5          0.638              1.839              2.129
 Vibration     6          0.659              1.775              1.782
 Vibration     7          0.665              1.756              1.704
 Vibration     8          0.691              1.678              1.431
 Vibration     9          0.723              1.587              1.193
 Vibration    10          0.759              1.490              0.997
 Vibration    11          0.848              1.267              0.678
 Vibration    12          0.934              1.080              0.490
 Vibration    13          0.947              1.054              0.468

 Optimization completed.
    -- Stationary point found.
 Normal termination of Gaussian 16 at Wed Dec  9 17:04:50 2020.

 ----------------------------------------------------------------------
 # B3LYP/6-311++G(d,p) empiricaldispersion=gd3bj scf=xqc pop=npa geom=c
 heck
 ----------------------------------------------------------------------

 --------------------------------------
 CID_86025533_JID_2021_Energie_neutraal
 --------------------------------------
 Structure from the checkpoint file:  "JID_2021.chk"
 Charge =  0 Multiplicity = 1

 SCF Done:  E(RB3LYP) =  -590.850577357     A.U. after   15 cycles
 Normal termination of Gaussian 16 at Wed Dec  9 17:07:18 2020.

 ----------------------------------------------------------------------
 # B3LYP/6-311++G(d,p) empiricaldispersion=gd3bj scf=xqc pop=npa geom=c
 heck
 ----------------------------------------------------------------------

 ------------------------------------
 CID_86025533_JID_2021_Energie_kation
 ------------------------------------
 Structure from the checkpoint file:  "JID_2021.chk"
 Charge =  1 Multiplicity = 2

 SCF Done:  E(UB3LYP) =  -590.528669481     A.U. after   26 cycles
 Normal termination of Gaussian 16 at Wed Dec  9 17:11:59 2020.
 Gaussian 16:  ES64L-G16RevA.03 25-Dec-2016

 ----------------------------------------------------------------------
 # B3LYP/6-311++G(d,p) empiricaldispersion=gd3bj scf=xqc pop=npa geom=c
 heck
 ----------------------------------------------------------------------

 -----------------------------------
 CID_86025533_JID_2021_Energie_anion
 -----------------------------------
 Structure from the checkpoint file:  "JID_2021.chk"
 Charge = -1 Multiplicity = 2

                         Standard orientation:
 ---------------------------------------------------------------------
 Center     Atomic      Atomic             Coordinates (Angstroms)
 Number     Number       Type             X           Y           Z
 ---------------------------------------------------------------------
      1          6           0        2.278033   -0.536480   -1.172371
      2          6           0        1.746739   -1.457542   -0.067606
      3          6           0        1.026116   -0.463075    0.868281
      4          7           0        1.777910    0.837117    0.730300
      5          6           0        2.754538    0.693015   -0.388610
      6          6           0       -0.382715   -0.221542    0.449113
      7          6           0       -0.980975    0.971039    0.108236
      8          6           0       -2.316684    0.324881   -0.216494
      9          8           0       -3.396754    0.691996   -0.588313
     10          6           0       -1.587069   -1.031150    0.155486
     11          8           0       -1.872317   -2.205181    0.162256
     12          8           0       -0.503904    2.193970    0.075280
     13          1           0        3.080200   -0.985526   -1.763830
     14          1           0        1.468039   -0.260960   -1.857198
     15          1           0        2.577683   -1.933643    0.465665
     16          1           0        1.072067   -2.240037   -0.423466
     17          1           0        1.051958   -0.805385    1.909881
     18          1           0        2.261672    1.054399    1.596552
     19          1           0        3.767526    0.527097    0.000289
     20          1           0        2.771316    1.603190   -0.995808
     21          1           0        0.460055    2.059890    0.345823
 ---------------------------------------------------------------------

 SCF Done:  E(UB3LYP) =  -590.863333314     A.U. after   27 cycles

 The electronic state is 2-A.
 Alpha  occ. eigenvalues --  -19.04744 -18.98361 -18.97213 -14.21243 -10.12809
 Alpha  occ. eigenvalues --  -10.12376 -10.11300 -10.10404 -10.09804 -10.07170
 Alpha  occ. eigenvalues --  -10.06403 -10.05154  -0.96679  -0.91778  -0.90443
 Alpha  occ. eigenvalues --   -0.82189  -0.73095  -0.66948  -0.63549  -0.52753
 Alpha  occ. eigenvalues --   -0.49747  -0.49085  -0.44692  -0.42456  -0.40394
 Alpha  occ. eigenvalues --   -0.38091  -0.35790  -0.33746  -0.32622  -0.31735
 Alpha  occ. eigenvalues --   -0.31016  -0.30282  -0.28719  -0.27490  -0.27000
 Alpha  occ. eigenvalues --   -0.26373  -0.25371  -0.24794  -0.23837  -0.22980
 Alpha  occ. eigenvalues --   -0.17790  -0.14801  -0.13366  -0.09545   0.03446
 Alpha virt. eigenvalues --    0.06417   0.08112   0.08844   0.09527   0.09664
 Alpha virt. eigenvalues --    0.10984   0.11585   0.12385   0.13085   0.13160
 Alpha virt. eigenvalues --    0.15590   0.16445   0.17042   0.17343   0.17900

  Beta  occ. eigenvalues --  -19.04738 -18.98372 -18.96894 -14.21207 -10.12837
  Beta  occ. eigenvalues --  -10.12350 -10.11086 -10.10431 -10.09776 -10.07162
  Beta  occ. eigenvalues --  -10.06344 -10.04874  -0.96644  -0.91673  -0.89986
  Beta  occ. eigenvalues --   -0.82100  -0.72714  -0.66872  -0.63394  -0.52390
  Beta  occ. eigenvalues --   -0.49670  -0.48981  -0.44458  -0.42267  -0.40241
  Beta  occ. eigenvalues --   -0.37951  -0.35702  -0.33441  -0.32085  -0.31565
  Beta  occ. eigenvalues --   -0.30877  -0.30134  -0.28610  -0.27392  -0.26808
  Beta  occ. eigenvalues --   -0.26242  -0.25143  -0.24645  -0.22912  -0.22775
  Beta  occ. eigenvalues --   -0.17619  -0.14689  -0.12311  -0.09335
  Beta virt. eigenvalues --    0.06789   0.08515   0.08917   0.09622   0.09875
  Beta virt. eigenvalues --    0.10072   0.11350   0.11748   0.12570   0.13139
  Beta virt. eigenvalues --    0.13353   0.15706   0.16802   0.17099   0.17418

 Mulliken charges and spin densities:
               1          2
     1  C   -0.414148   0.061324
     2  C    0.208248  -0.738618
     3  C    0.131082   0.512654
     4  N   -0.463688   0.070221
     5  C    0.642810  -1.032553
     6  C    0.989317  -0.011069
     7  C   -0.290421  -0.216812
     8  C    0.084362   0.150387
     9  O   -0.400726   0.104758
    10  C   -0.360028  -0.163700
    11  O   -0.402222   0.003037
    12  O   -0.321551   0.012887
    13  H    0.091922   0.056796
    14  H    0.097389   0.045854
    15  H   -0.387143   0.556133
    16  H    0.153323   0.016582
    17  H   -0.211861   0.480867
    18  H   -0.142497   0.422573
    19  H   -0.485255   0.648394
    20  H    0.117368   0.033364
    21  H    0.363719  -0.013080
 Sum of Mulliken charges =  -1.00000   1.00000

 Dipole moment (field-independent basis, Debye):
    X=              2.6982    Y=              1.5412    Z=             -1.9878  Tot=              3.6888
 Quadrupole moment (field-independent basis, Debye-Ang):
   XX=           -133.2479   YY=            -98.0004   ZZ=            -86.4199
   XY=              2.2929   XZ=            -13.0444   YZ=              2.4511

 Summary of Natural Population Analysis:

                                       Natural Population
                Natural  -----------------------------------------------
    Atom  No    Charge         Core      Valence    Rydberg      Total
 -----------------------------------------------------------------------
      C    1   -0.19859      0.99963     2.19125    0.00771     3.19859
      C    2   -0.18973      0.99962     2.18079    0.00932     3.18973
      C    3   -0.02543      0.99955     2.01149    0.01439     3.02543
      N    4   -0.36519      0.99976     2.85105    0.01439     3.86519
      C    5   -0.08575      0.99963     2.07546    0.01066     3.08575
      C    6   -0.02683      0.99938     2.01528    0.01216     3.02683
      C    7    0.16271      0.99929     1.81909    0.01891     2.83729
      C    8    0.24737      0.99962     1.72747    0.02554     2.75263
      O    9   -0.25295      0.99986     3.24566    0.00742     4.25295
      C   10    0.22766      0.99958     1.74847    0.02428     2.77234
      O   11   -0.30542      0.99987     3.29832    0.00723     4.30542
      O   12   -0.33553      0.99986     3.32886    0.00681     4.33553
      H   13    0.10179      0.00000     0.39746    0.00076     0.39821
      H   14    0.09898      0.00000     0.39983    0.00119     0.40102
      H   15    0.10039      0.00000     0.39739    0.00222     0.39961
      H   16    0.10954      0.00000     0.38942    0.00104     0.39046
      H   17    0.11362      0.00000     0.38398    0.00240     0.38638
      H   18    0.19098      0.00000     0.30369    0.00533     0.30902
      H   19    0.09147      0.00000     0.40593    0.00260     0.40853
      H   20    0.08967      0.00000     0.40938    0.00095     0.41033
      H   21    0.25123      0.00000     0.24504    0.00372     0.24877
 =======================================================================
   * Total *   -0.00000     11.99565    31.82531    0.17904    44.00000

 Normal termination of Gaussian 16 at Wed Dec  9 17:17:00 2020.
