 Gaussian 16, Revision A.03,

 -----------------------------------------------------------
 # opt freq B3LYP/6-31G(d) empiricaldispersion=gd3bj scf=xqc
 -----------------------------------------------------------

 -------------------------------
 CID_152045500_JID_8777_neutraal
 -------------------------------
 Symbolic Z-matrix:
 Charge =  0 Multiplicity = 1

 SCF Done:  E(RB3LYP) =  -1140.66486205     A.U. after   15 cycles
 SCF Done:  E(RB3LYP) =  -1140.67029744     A.U. after   16 cycles
 SCF Done:  E(RB3LYP) =  -1140.66887653     A.U. after   16 cycles
 SCF Done:  E(RB3LYP) =  -1140.67233208     A.U. after   14 cycles
 SCF Done:  E(RB3LYP) =  -1140.67552122     A.U. after   14 cycles
 SCF Done:  E(RB3LYP) =  -1140.67789560     A.U. after   16 cycles
 SCF Done:  E(RB3LYP) =  -1140.67891527     A.U. after   15 cycles
 SCF Done:  E(RB3LYP) =  -1140.67947392     A.U. after   13 cycles
 SCF Done:  E(RB3LYP) =  -1140.67961361     A.U. after   13 cycles
 SCF Done:  E(RB3LYP) =  -1140.67970894     A.U. after   10 cycles
 SCF Done:  E(RB3LYP) =  -1140.67975221     A.U. after   11 cycles
 SCF Done:  E(RB3LYP) =  -1140.67975309     A.U. after    9 cycles
 SCF Done:  E(RB3LYP) =  -1140.67975340     A.U. after    9 cycles
 SCF Done:  E(RB3LYP) =  -1140.67975354     A.U. after    9 cycles
 SCF Done:  E(RB3LYP) =  -1140.67975355     A.U. after    8 cycles
 Optimization completed.
    -- Stationary point found.
 Normal termination of Gaussian 16 at Mon Dec 14 16:51:06 2020.

 --------------------------------------------------------------------
 #N Geom=AllCheck Guess=TCheck SCRF=Check GenChk RB3LYP/6-31G(d) Freq
 --------------------------------------------------------------------

 Structure from the checkpoint file:  "JID_8777.chk"
 -------------------------------
 CID_152045500_JID_8777_neutraal
 -------------------------------
 Charge =  0 Multiplicity = 1

 SCF Done:  E(RB3LYP) =  -1140.67975355     A.U. after    1 cycles

  Exact polarizability: 248.581 -45.660 186.167  22.692   6.616 126.093
 Approx polarizability: 360.005 -79.023 286.887  61.931  22.107 220.321

                      1                      2                      3
                      A                      A                      A
 Frequencies --     12.6020                21.3958                39.7420
 Red. masses --      3.5564                 4.2072                 4.3671
 Frc consts  --      0.0003                 0.0011                 0.0041
 IR Inten    --      0.0276                 0.0326                 0.2208

                      4                      5                      6
                      A                      A                      A
 Frequencies --     43.5392                56.8561                65.5432
 Red. masses --      5.2305                 4.1898                 4.7260
 Frc consts  --      0.0058                 0.0080                 0.0120
 IR Inten    --      0.0279                 0.0319                 0.0813

                      7                      8                      9
                      A                      A                      A
 Frequencies --     78.4431               110.8732               118.1215
 Red. masses --      3.9470                 5.0040                10.6938
 Frc consts  --      0.0143                 0.0362                 0.0879
 IR Inten    --      0.1637                 0.5495                 0.1730

                     10                     11                     12
                      A                      A                      A
 Frequencies --    133.5873               153.6289               200.2058
 Red. masses --      4.2213                 2.6213                 2.1838
 Frc consts  --      0.0444                 0.0365                 0.0516
 IR Inten    --      0.4652                 0.3424                 1.7122

                     13                     14                     15
                      A                      A                      A
 Frequencies --    240.8835               262.1246               300.9976
 Red. masses --      1.7054                 2.6327                 2.0861
 Frc consts  --      0.0583                 0.1066                 0.1114
 IR Inten    --      1.2024                 0.2161                 0.8642

                     16                     17                     18
                      A                      A                      A
 Frequencies --    323.8493               341.4921               346.9083
 Red. masses --      3.0692                 3.0987                 5.2684
 Frc consts  --      0.1897                 0.2129                 0.3736
 IR Inten    --      1.6521                 1.8028                 5.1565

                     19                     20                     21
                      A                      A                      A
 Frequencies --    364.0801               389.1523               419.9842
 Red. masses --      3.8170                 2.0307                 4.3992
 Frc consts  --      0.2981                 0.1812                 0.4572
 IR Inten    --      1.2983                 0.3918                 0.3991

                     22                     23                     24
                      A                      A                      A
 Frequencies --    423.8050               436.7054               475.7096
 Red. masses --      1.9237                 6.6531                 2.0573
 Frc consts  --      0.2036                 0.7476                 0.2743
 IR Inten    --      2.6105                11.9125                 0.4253

                     25                     26                     27
                      A                      A                      A
 Frequencies --    495.4533               531.2721               548.2957
 Red. masses --      3.2467                13.2506                 2.4990
 Frc consts  --      0.4696                 2.2035                 0.4426
 IR Inten    --      0.5430                 7.4447                 1.0739

                     28                     29                     30
                      A                      A                      A
 Frequencies --    579.1639               644.9693               669.7253
 Red. masses --      9.4688                 6.8588                 4.4760
 Frc consts  --      1.8713                 1.6810                 1.1829
 IR Inten    --     27.5689                 6.4507                 3.0394

                     31                     32                     33
                      A                      A                      A
 Frequencies --    717.5470               736.9837               742.5050
 Red. masses --      1.3112                 4.4499                 2.1388
 Frc consts  --      0.3978                 1.4240                 0.6947
 IR Inten    --     22.0400                11.6780                 1.1457

                     34                     35                     36
                      A                      A                      A
 Frequencies --    777.0001               783.8794               823.9740
 Red. masses --      2.1508                 3.5690                 2.3363
 Frc consts  --      0.7651                 1.2921                 0.9346
 IR Inten    --      3.7064                10.8889                 4.3862

                     37                     38                     39
                      A                      A                      A
 Frequencies --    844.5441               856.5441               894.6680
 Red. masses --      1.6610                 9.7376                 1.7086
 Frc consts  --      0.6980                 4.2092                 0.8058
 IR Inten    --      3.3698                 7.2884                 0.9619

                     40                     41                     42
                      A                      A                      A
 Frequencies --    914.2362               942.8733               962.6558
 Red. masses --      1.8992                 1.5612                 1.5816
 Frc consts  --      0.9353                 0.8178                 0.8635
 IR Inten    --      3.6330                10.1880                 2.7221

                     43                     44                     45
                      A                      A                      A
 Frequencies --    974.4564               985.6329               994.0229
 Red. masses --      1.3548                 1.6212                 1.9074
 Frc consts  --      0.7579                 0.9279                 1.1104
 IR Inten    --      0.1778                 2.0399                 0.8060

                     46                     47                     48
                      A                      A                      A
 Frequencies --   1043.3566              1045.7523              1062.6318
 Red. masses --      1.5325                 3.8432                 1.4944
 Frc consts  --      0.9829                 2.4763                 0.9942
 IR Inten    --      1.5232                 0.7593                 1.4083

                     49                     50                     51
                      A                      A                      A
 Frequencies --   1075.5533              1118.7559              1134.8476
 Red. masses --      2.0407                 2.0749                 1.4302
 Frc consts  --      1.3909                 1.5301                 1.0852
 IR Inten    --      1.1721                 0.1806                 2.6818

                     52                     53                     54
                      A                      A                      A
 Frequencies --   1139.8187              1178.8865              1190.3240
 Red. masses --      1.8831                 6.3576                 1.3644
 Frc consts  --      1.4415                 5.2058                 1.1390
 IR Inten    --      0.2686                17.8882                 1.9168

                     55                     56                     57
                      A                      A                      A
 Frequencies --   1208.7692              1232.8449              1242.1816
 Red. masses --      1.4212                 3.6822                 1.3116
 Frc consts  --      1.2234                 3.2974                 1.1924
 IR Inten    --      2.3757               199.9300                 9.1730

                     58                     59                     60
                      A                      A                      A
 Frequencies --   1251.5453              1273.6589              1294.7589
 Red. masses --      5.4315                 1.3370                 1.8877
 Frc consts  --      5.0126                 1.2779                 1.8645
 IR Inten    --      6.6637                 0.7734                 9.0770

                     61                     62                     63
                      A                      A                      A
 Frequencies --   1307.9378              1325.4181              1337.6440
 Red. masses --      1.2207                 1.2477                 1.1710
 Frc consts  --      1.2303                 1.2914                 1.2345
 IR Inten    --      3.5451                13.4956                 2.7556

                     64                     65                     66
                      A                      A                      A
 Frequencies --   1357.9293              1377.0709              1381.9037
 Red. masses --      1.1058                 3.9494                 1.3490
 Frc consts  --      1.2014                 4.4126                 1.5178
 IR Inten    --      8.0962                73.1349                 9.3515

                     67                     68                     69
                      A                      A                      A
 Frequencies --   1388.3359              1405.1291              1409.7921
 Red. masses --      1.5135                 1.3453                 1.4774
 Frc consts  --      1.7188                 1.5649                 1.7301
 IR Inten    --      9.5061                 0.9394                 3.3555

                     70                     71                     72
                      A                      A                      A
 Frequencies --   1425.7369              1429.3454              1433.1941
 Red. masses --      1.4487                 1.4256                 2.5667
 Frc consts  --      1.7350                 1.7160                 3.1062
 IR Inten    --      8.3090                 3.4210                 1.2816

                     73                     74                     75
                      A                      A                      A
 Frequencies --   1443.2831              1463.1284              1496.0549
 Red. masses --      1.2758                 3.2282                 1.0889
 Frc consts  --      1.5658                 4.0717                 1.4360
 IR Inten    --      5.3494               567.3341                 8.3101

                     76                     77                     78
                      A                      A                      A
 Frequencies --   1507.1978              1515.3837              1520.2970
 Red. masses --      1.0787                 1.0884                 1.0728
 Frc consts  --      1.4438                 1.4726                 1.4610
 IR Inten    --      4.0203                 5.3550                 0.3357

                     79                     80                     81
                      A                      A                      A
 Frequencies --   1525.2600              1533.6524              1534.9459
 Red. masses --      1.0609                 1.0823                 1.0668
 Frc consts  --      1.4542                 1.4999                 1.4809
 IR Inten    --      7.8504                 5.7626                 8.5095

                     82                     83                     84
                      A                      A                      A
 Frequencies --   1540.0034              1547.2519              1572.3591
 Red. masses --      1.0594                 1.0892                 7.1127
 Frc consts  --      1.4803                 1.5364                10.3607
 IR Inten    --      0.4556                 0.7802                42.1673

                     85                     86                     87
                      A                      A                      A
 Frequencies --   1642.5488              2268.4542              3025.2291
 Red. masses --      5.5342                13.9777                 1.0634
 Frc consts  --      8.7971                42.3786                 5.7342
 IR Inten    --     31.3296               949.9563                22.8322

                     88                     89                     90
                      A                      A                      A
 Frequencies --   3033.1515              3038.7993              3039.9251
 Red. masses --      1.0635                 1.0611                 1.0658
 Frc consts  --      5.7646                 5.7729                 5.8029
 IR Inten    --     34.9315                 4.4554                 1.0958

                     91                     92                     93
                      A                      A                      A
 Frequencies --   3040.7057              3045.1679              3049.4122
 Red. masses --      1.0598                 1.0422                 1.0682
 Frc consts  --      5.7732                 5.6939                 5.8525
 IR Inten    --     38.7871                18.6047                11.7345

                     94                     95                     96
                      A                      A                      A
 Frequencies --   3058.2618              3068.4504              3072.6556
 Red. masses --      1.0937                 1.0981                 1.0991
 Frc consts  --      6.0271                 6.0915                 6.1140
 IR Inten    --     25.5936                37.6486                33.6320

                     97                     98                     99
                      A                      A                      A
 Frequencies --   3074.2827              3080.7108              3090.6069
 Red. masses --      1.0993                 1.0994                 1.0672
 Frc consts  --      6.1212                 6.1476                 6.0059
 IR Inten    --    127.7532                17.3425                35.2630

                    100                    101                    102
                      A                      A                      A
 Frequencies --   3099.0364              3108.8908              3116.0505
 Red. masses --      1.0959                 1.1015                 1.1020
 Frc consts  --      6.2010                 6.2728                 6.3042
 IR Inten    --     42.7571                50.0407                53.2698

                    103                    104                    105
                      A                      A                      A
 Frequencies --   3155.0294              3170.3726              3192.4394
 Red. masses --      1.1020                 1.0910                 1.0921
 Frc consts  --      6.4629                 6.4607                 6.5580
 IR Inten    --      1.4263                16.2104                12.6886

 - Thermochemistry -
 -------------------
 Temperature   298.150 Kelvin.  Pressure   1.00000 Atm.
 Atom     1 has atomic number  6 and mass  12.00000

 Molecular mass:   265.13612 amu.
 Principal axes and moments of inertia in atomic units:
                           1         2         3
     Eigenvalues --  3395.26571********************
           X            0.99969   0.02503  -0.00138
           Y           -0.02504   0.99967  -0.00614
           Z            0.00122   0.00618   0.99998
 This molecule is an asymmetric top.
 Rotational symmetry number  1.
 Warning -- assumption of classical behavior for rotation
           may cause significant error
 Rotational temperatures (Kelvin)      0.02551     0.00794     0.00641
 Rotational constants (GHZ):           0.53155     0.16549     0.13350
 Zero-point vibrational energy     816587.4 (Joules/Mol)
                                  195.16907 (Kcal/Mol)
 Warning -- explicit consideration of  28 degrees of freedom as
           vibrations may cause significant error
 Vibrational temperatures:     18.13    30.78    57.18    62.64    81.80
          (Kelvin)             94.30   112.86   159.52   169.95   192.20
                              221.04   288.05   346.58   377.14   433.07
                              465.95   491.33   499.12   523.83   559.90
                              604.26   609.76   628.32   684.44   712.85
                              764.38   788.88   833.29   927.97   963.59
                             1032.39  1060.36  1068.30  1117.93  1127.83
                             1185.51  1215.11  1232.38  1287.23  1315.38
                             1356.58  1385.05  1402.03  1418.11  1430.18
                             1501.16  1504.60  1528.89  1547.48  1609.64
                             1632.79  1639.94  1696.15  1712.61  1739.15
                             1773.79  1787.22  1800.69  1832.51  1862.87
                             1881.83  1906.98  1924.57  1953.76  1981.30
                             1988.25  1997.51  2021.67  2028.38  2051.32
                             2056.51  2062.05  2076.56  2105.12  2152.49
                             2168.52  2180.30  2187.37  2194.51  2206.58
                             2208.44  2215.72  2226.15  2262.27  2363.26
                             3263.80  4352.63  4364.03  4372.15  4373.77
                             4374.90  4381.32  4387.42  4400.16  4414.82
                             4420.87  4423.21  4432.46  4446.69  4458.82
                             4473.00  4483.30  4539.38  4561.46  4593.21

 Zero-point correction=                           0.311022 (Hartree/Particle)
 Thermal correction to Energy=                    0.329828
 Thermal correction to Enthalpy=                  0.330772
 Thermal correction to Gibbs Free Energy=         0.259922
 Sum of electronic and zero-point Energies=          -1140.368732
 Sum of electronic and thermal Energies=             -1140.349925
 Sum of electronic and thermal Enthalpies=           -1140.348981
 Sum of electronic and thermal Free Energies=        -1140.419831

                     E (Thermal)             CV                S
                      KCal/Mol        Cal/Mol-Kelvin    Cal/Mol-Kelvin
 Total                  206.970             68.647            149.117
 Electronic               0.000              0.000              0.000
 Translational            0.889              2.981             42.625
 Rotational               0.889              2.981             34.570
 Vibrational            205.193             62.686             71.923
 Vibration     1          0.593              1.987              7.552
 Vibration     2          0.593              1.985              6.500
 Vibration     3          0.594              1.981              5.272
 Vibration     4          0.595              1.980              5.091
 Vibration     5          0.596              1.975              4.563
 Vibration     6          0.597              1.971              4.283
 Vibration     7          0.600              1.964              3.929
 Vibration     8          0.607              1.940              3.254
 Vibration     9          0.608              1.934              3.131
 Vibration    10          0.613              1.920              2.894
 Vibration    11          0.619              1.899              2.627
 Vibration    12          0.638              1.840              2.131
 Vibration    13          0.658              1.778              1.796
 Vibration    14          0.669              1.742              1.648
 Vibration    15          0.693              1.672              1.411
 Vibration    16          0.708              1.628              1.291
 Vibration    17          0.721              1.593              1.205
 Vibration    18          0.725              1.582              1.180
 Vibration    19          0.738              1.546              1.105
 Vibration    20          0.757              1.493              1.003
 Vibration    21          0.783              1.427              0.892
 Vibration    22          0.786              1.418              0.879
 Vibration    23          0.797              1.390              0.837
 Vibration    24          0.832              1.304              0.722
 Vibration    25          0.851              1.260              0.670
 Vibration    26          0.886              1.181              0.584
 Vibration    27          0.904              1.143              0.548
 Vibration    28          0.936              1.076              0.487

 Optimization completed.
    -- Stationary point found.
 Normal termination of Gaussian 16 at Mon Dec 14 17:07:27 2020.

 ----------------------------------------------------------------------
 # B3LYP/6-311++G(d,p) empiricaldispersion=gd3bj scf=xqc pop=npa geom=c
 heck
 ----------------------------------------------------------------------

 ---------------------------------------
 CID_152045500_JID_8777_Energie_neutraal
 ---------------------------------------
 Structure from the checkpoint file:  "JID_8777.chk"
 Charge =  0 Multiplicity = 1

 SCF Done:  E(RB3LYP) =  -1140.90307047     A.U. after   16 cycles
 Normal termination of Gaussian 16 at Mon Dec 14 17:16:01 2020.

 ----------------------------------------------------------------------
 # B3LYP/6-311++G(d,p) empiricaldispersion=gd3bj scf=xqc pop=npa geom=c
 heck
 ----------------------------------------------------------------------

 -------------------------------------
 CID_152045500_JID_8777_Energie_kation
 -------------------------------------
 Structure from the checkpoint file:  "JID_8777.chk"
 Charge =  1 Multiplicity = 2

 SCF Done:  E(UB3LYP) =  -1140.61021180     A.U. after   25 cycles
 Normal termination of Gaussian 16 at Mon Dec 14 17:35:05 2020.
 Gaussian 16:  ES64L-G16RevA.03 25-Dec-2016

 ----------------------------------------------------------------------
 # B3LYP/6-311++G(d,p) empiricaldispersion=gd3bj scf=xqc pop=npa geom=c
 heck
 ----------------------------------------------------------------------

 ------------------------------------
 CID_152045500_JID_8777_Energie_anion
 ------------------------------------
 Structure from the checkpoint file:  "JID_8777.chk"
 Charge = -1 Multiplicity = 2

                         Standard orientation:
 ---------------------------------------------------------------------
 Center     Atomic      Atomic             Coordinates (Angstroms)
 Number     Number       Type             X           Y           Z
 ---------------------------------------------------------------------
      1          6           0        4.760861    3.100238   -0.321349
      2          6           0        4.945007    1.645991   -0.765024
      3          6           0        4.680145    0.618019    0.345538
      4          6           0        3.264707    0.656248    0.943801
      5          6           0        2.122750    0.475537   -0.068500
      6          6           0        2.190812   -0.809589   -0.909256
      7          6           0        2.236081   -2.114372   -0.104655
      8          6           0        0.996374   -2.396991    0.751740
      9         16           0       -0.507396   -2.740914   -0.252559
     10          6           0       -1.516874   -1.311333    0.005609
     11          7           0       -2.651862   -1.325502   -0.714610
     12          6           0       -3.470514   -0.291199   -0.562285
     13          6           0       -3.177093    0.773974    0.301575
     14          6           0       -1.971541    0.683670    1.001211
     15          7           0       -1.145263   -0.351168    0.860902
     16          7           0       -3.984343    1.909615    0.519019
     17          7           0       -5.054244    1.990730   -0.101900
     18          7           0       -6.058194    2.196547   -0.601966
     19          1           0        3.722769    3.309487   -0.040276
     20          1           0        5.031557    3.795962   -1.123383
     21          1           0        5.391045    3.329437    0.547075
     22          1           0        4.291123    1.441850   -1.623046
     23          1           0        5.971399    1.507621   -1.129497
     24          1           0        4.883547   -0.386630   -0.048430
     25          1           0        5.405723    0.776763    1.155697
     26          1           0        3.193827   -0.117745    1.719730
     27          1           0        3.115396    1.608978    1.467848
     28          1           0        1.168785    0.504503    0.469099
     29          1           0        2.106737    1.331770   -0.755707
     30          1           0        1.324722   -0.839039   -1.582624
     31          1           0        3.075795   -0.779205   -1.557318
     32          1           0        2.393299   -2.954936   -0.792056
     33          1           0        3.102612   -2.108334    0.570115
     34          1           0        1.151004   -3.289912    1.364210
     35          1           0        0.749601   -1.566196    1.415413
     36          1           0       -4.390284   -0.305308   -1.145940
     37          1           0       -1.677254    1.472856    1.689481
 ---------------------------------------------------------------------

 SCF Done:  E(UB3LYP) =  -1140.91493186     A.U. after   33 cycles
 SCF Done:  E(UB3LYP) =  -1140.91497508     a.u. after    5 cycles

 The electronic state is 2-A.
 Alpha  occ. eigenvalues --  -88.72959 -14.35898 -14.26232 -14.25132 -14.17115
 Alpha  occ. eigenvalues --  -14.16672 -10.12431 -10.09069 -10.08800 -10.08460
 Alpha  occ. eigenvalues --  -10.08080 -10.07911 -10.07880 -10.07379 -10.07243
 Alpha  occ. eigenvalues --  -10.06528 -10.05977 -10.05677  -7.81624  -5.78003
 Alpha  occ. eigenvalues --   -5.77601  -5.77051  -1.02558  -0.87305  -0.84832
 Alpha  occ. eigenvalues --   -0.75130  -0.72755  -0.70831  -0.68225  -0.66063
 Alpha  occ. eigenvalues --   -0.62962  -0.59834  -0.56820  -0.53905  -0.52547
 Alpha  occ. eigenvalues --   -0.50911  -0.47904  -0.44593  -0.43978  -0.41165
 Alpha  occ. eigenvalues --   -0.39846  -0.39414  -0.38933  -0.37517  -0.36629
 Alpha  occ. eigenvalues --   -0.35723  -0.34776  -0.33758  -0.32581  -0.31733
 Alpha  occ. eigenvalues --   -0.31394  -0.30236  -0.29785  -0.28843  -0.28258
 Alpha  occ. eigenvalues --   -0.27806  -0.26389  -0.25478  -0.24931  -0.24456
 Alpha  occ. eigenvalues --   -0.22653  -0.22123  -0.21600  -0.21552  -0.21013
 Alpha  occ. eigenvalues --   -0.20071  -0.18802  -0.17438  -0.14572  -0.11551
 Alpha  occ. eigenvalues --   -0.09190   0.03944
 Alpha virt. eigenvalues --    0.05166   0.06916   0.07209   0.07328   0.08014
 Alpha virt. eigenvalues --    0.08601   0.09304   0.09547   0.10089   0.10507
 Alpha virt. eigenvalues --    0.10598   0.11432   0.11839   0.12379   0.12772

  Beta  occ. eigenvalues --  -88.72959 -14.35720 -14.26013 -14.25178 -14.16985
  Beta  occ. eigenvalues --  -14.16275 -10.12397 -10.09108 -10.08803 -10.08453
  Beta  occ. eigenvalues --  -10.08071 -10.07903 -10.07768 -10.07372 -10.07242
  Beta  occ. eigenvalues --  -10.06526 -10.05973 -10.05146  -7.81625  -5.78006
  Beta  occ. eigenvalues --   -5.77603  -5.77049  -1.02249  -0.87150  -0.84372
  Beta  occ. eigenvalues --   -0.74482  -0.72742  -0.70788  -0.68032  -0.65926
  Beta  occ. eigenvalues --   -0.62904  -0.59780  -0.56735  -0.53601  -0.52031
  Beta  occ. eigenvalues --   -0.50777  -0.47840  -0.44470  -0.43855  -0.40883
  Beta  occ. eigenvalues --   -0.39379  -0.39219  -0.38916  -0.37381  -0.36219
  Beta  occ. eigenvalues --   -0.35681  -0.34675  -0.33310  -0.32551  -0.31701
  Beta  occ. eigenvalues --   -0.31358  -0.29798  -0.29044  -0.28710  -0.28173
  Beta  occ. eigenvalues --   -0.27736  -0.26330  -0.25447  -0.24906  -0.24420
  Beta  occ. eigenvalues --   -0.22623  -0.21934  -0.21557  -0.21197  -0.20756
  Beta  occ. eigenvalues --   -0.20049  -0.17080  -0.16730  -0.14028  -0.11246
  Beta  occ. eigenvalues --   -0.08388
  Beta virt. eigenvalues --    0.05383   0.06900   0.07241   0.07811   0.08056
  Beta virt. eigenvalues --    0.09085   0.09328   0.09480   0.10084   0.10124
  Beta virt. eigenvalues --    0.10460   0.10565   0.11324   0.11781   0.12365

 Mulliken charges and spin densities:
               1          2
     1  C   -0.211717  -0.427528
     2  C   -0.288521   0.106886
     3  C   -0.147031  -0.157385
     4  C   -0.228086   0.022674
     5  C   -0.274067  -0.155533
     6  C   -0.083649   0.086564
     7  C   -0.371443  -0.080983
     8  C   -0.353699   0.007179
     9  S    0.135680  -0.010117
    10  C   -0.936712  -0.006525
    11  N    0.037886   0.044664
    12  C    0.217502   0.418741
    13  C   -0.977178  -0.043185
    14  C    0.457338   0.100592
    15  N   -0.046659   0.188633
    16  N    0.022891   0.028189
    17  N    0.220100   0.022751
    18  N   -0.286443   0.113645
    19  H    0.115835   0.031445
    20  H    0.020815   0.105391
    21  H    0.050086   0.079499
    22  H    0.128148   0.002431
    23  H   -0.099781   0.250018
    24  H    0.108177   0.034679
    25  H   -0.015933   0.162119
    26  H    0.135674   0.028347
    27  H    0.136266   0.010333
    28  H    0.223819  -0.043738
    29  H    0.137177   0.012942
    30  H    0.117340   0.003980
    31  H    0.126014   0.029532
    32  H    0.139284   0.011541
    33  H    0.047776   0.045712
    34  H    0.231513   0.012106
    35  H    0.173738  -0.013534
    36  H    0.172503  -0.033388
    37  H    0.165355   0.011318
 Sum of Mulliken charges =  -1.00000   1.00000

 Dipole moment (field-independent basis, Debye):
    X=              7.0285    Y=             -0.3019    Z=              1.0729  Tot=              7.1163
 Quadrupole moment (field-independent basis, Debye-Ang):
   XX=           -211.6401   YY=           -148.5957   ZZ=           -131.4710
   XY=             -0.3048   XZ=             -3.6221   YZ=             -2.2258

 Summary of Natural Population Analysis:

                                       Natural Population
                Natural  -----------------------------------------------
    Atom  No    Charge         Core      Valence    Rydberg      Total
 -----------------------------------------------------------------------
      C    1   -0.28772      0.99967     2.28341    0.00464     3.28772
      C    2   -0.19474      0.99964     2.18618    0.00891     3.19474
      C    3   -0.19378      0.99963     2.18365    0.01049     3.19378
      C    4   -0.19249      0.99963     2.18511    0.00774     3.19249
      C    5   -0.20296      0.99962     2.19520    0.00814     3.20296
      C    6   -0.19516      0.99963     2.18686    0.00867     3.19516
      C    7   -0.19525      0.99962     2.18636    0.00927     3.19525
      C    8   -0.25846      0.99958     2.25023    0.00865     3.25846
      S    9    0.11183      4.99952     2.86876    0.01989     7.88817
      C   10    0.13671      0.99958     1.84210    0.02161     2.86329
      N   11   -0.24092      0.99966     2.72959    0.01167     3.74092
      C   12    0.12033      0.99956     1.86643    0.01368     2.87967
      C   13    0.00826      0.99942     1.98104    0.01128     2.99174
      C   14    0.05719      0.99955     1.92994    0.01332     2.94281
      N   15   -0.23121      0.99964     2.71775    0.01383     3.73121
      N   16   -0.18179      0.99965     2.66723    0.01492     3.68179
      N   17    0.13271      0.99971     2.35152    0.01606     3.36729
      N   18   -0.03219      0.99982     2.51878    0.01359     3.53219
      H   19    0.09808      0.00000     0.40083    0.00109     0.40192
      H   20    0.09703      0.00000     0.40204    0.00093     0.40297
      H   21    0.09399      0.00000     0.40485    0.00116     0.40601
      H   22    0.09536      0.00000     0.40355    0.00110     0.40464
      H   23    0.09390      0.00000     0.40505    0.00105     0.40610
      H   24    0.09623      0.00000     0.40275    0.00102     0.40377
      H   25    0.09324      0.00000     0.40581    0.00096     0.40676
      H   26    0.09587      0.00000     0.40282    0.00131     0.40413
      H   27    0.09546      0.00000     0.40342    0.00112     0.40454
      H   28    0.11708      0.00000     0.38102    0.00191     0.38292
      H   29    0.09299      0.00000     0.40598    0.00104     0.40701
      H   30    0.10624      0.00000     0.39185    0.00191     0.39376
      H   31    0.09101      0.00000     0.40763    0.00136     0.40899
      H   32    0.09537      0.00000     0.40285    0.00178     0.40463
      H   33    0.09301      0.00000     0.40506    0.00193     0.40699
      H   34    0.09753      0.00000     0.40142    0.00105     0.40247
      H   35    0.12229      0.00000     0.37542    0.00229     0.37771
      H   36    0.08008      0.00000     0.41857    0.00135     0.41992
      H   37    0.08491      0.00000     0.41336    0.00174     0.41509
 =======================================================================
   * Total *    0.00000     21.99313    48.76439    0.24248    71.00000

 Normal termination of Gaussian 16 at Mon Dec 14 19:31:55 2020.
