 Gaussian 16, Revision A.03,

 -----------------------------------------------------------
 # opt freq B3LYP/6-31G(d) empiricaldispersion=gd3bj scf=xqc
 -----------------------------------------------------------

 ------------------------------
 CID_47115252_JID_7393_neutraal
 ------------------------------
 Symbolic Z-matrix:
 Charge =  0 Multiplicity = 1

 SCF Done:  E(RB3LYP) =  -1465.29645818     A.U. after   16 cycles
 SCF Done:  E(RB3LYP) =  -1465.30579435     A.U. after   14 cycles
 SCF Done:  E(RB3LYP) =  -1465.30723992     A.U. after   15 cycles
 SCF Done:  E(RB3LYP) =  -1465.30862974     A.U. after   14 cycles
 SCF Done:  E(RB3LYP) =  -1465.30922612     A.U. after   14 cycles
 SCF Done:  E(RB3LYP) =  -1465.30996412     A.U. after   14 cycles
 SCF Done:  E(RB3LYP) =  -1465.31049060     A.U. after   13 cycles
 SCF Done:  E(RB3LYP) =  -1465.31062910     A.U. after   12 cycles
 SCF Done:  E(RB3LYP) =  -1465.31068099     A.U. after   11 cycles
 SCF Done:  E(RB3LYP) =  -1465.31071893     A.U. after   11 cycles
 SCF Done:  E(RB3LYP) =  -1465.31077636     A.U. after   11 cycles
 SCF Done:  E(RB3LYP) =  -1465.31078014     A.U. after   10 cycles
 SCF Done:  E(RB3LYP) =  -1465.31078145     A.U. after   10 cycles
 SCF Done:  E(RB3LYP) =  -1465.31078158     A.U. after    8 cycles
 SCF Done:  E(RB3LYP) =  -1465.31078163     A.U. after    7 cycles
 Optimization completed.
    -- Stationary point found.
 Normal termination of Gaussian 16 at Fri Dec 11 12:14:11 2020.

 --------------------------------------------------------------------
 #N Geom=AllCheck Guess=TCheck SCRF=Check GenChk RB3LYP/6-31G(d) Freq
 --------------------------------------------------------------------

 Structure from the checkpoint file:  "JID_7393.chk"
 ------------------------------
 CID_47115252_JID_7393_neutraal
 ------------------------------
 Charge =  0 Multiplicity = 1

 SCF Done:  E(RB3LYP) =  -1465.31078163     A.U. after    1 cycles

  Exact polarizability: 227.202 -10.195 143.555  -3.905  -8.565 142.470
 Approx polarizability: 303.161 -21.049 225.533  -1.656 -32.531 260.741

                      1                      2                      3
                      A                      A                      A
 Frequencies --     19.9712                29.7136                44.8257
 Red. masses --      3.6127                 4.7758                 3.1621
 Frc consts  --      0.0008                 0.0025                 0.0037
 IR Inten    --      0.1247                 1.9791                 0.0946

                      4                      5                      6
                      A                      A                      A
 Frequencies --     56.8508                74.8389                89.5017
 Red. masses --      7.8840                 5.1897                 4.0130
 Frc consts  --      0.0150                 0.0171                 0.0189
 IR Inten    --      4.3078                 0.6387                 4.7528

                      7                      8                      9
                      A                      A                      A
 Frequencies --     98.8617               122.1052               147.4764
 Red. masses --      4.7964                 3.3636                 2.6036
 Frc consts  --      0.0276                 0.0295                 0.0334
 IR Inten    --      3.8148                 0.4365                 1.4201

                     10                     11                     12
                      A                      A                      A
 Frequencies --    183.3967               199.2843               221.1966
 Red. masses --      3.2909                 5.3117                 1.8126
 Frc consts  --      0.0652                 0.1243                 0.0523
 IR Inten    --      1.8666                 3.4579                 2.4720

                     13                     14                     15
                      A                      A                      A
 Frequencies --    254.7392               269.2281               290.8857
 Red. masses --      5.1052                 3.1122                 1.6919
 Frc consts  --      0.1952                 0.1329                 0.0843
 IR Inten    --      9.0041                 4.3101                 2.1848

                     16                     17                     18
                      A                      A                      A
 Frequencies --    357.3000               372.5415               384.7632
 Red. masses --      2.0778                 2.5322                 4.8976
 Frc consts  --      0.1563                 0.2071                 0.4272
 IR Inten    --      1.5057                39.6717                38.9107

                     19                     20                     21
                      A                      A                      A
 Frequencies --    403.2257               408.6975               435.9027
 Red. masses --      2.6646                 4.2238                 2.8512
 Frc consts  --      0.2553                 0.4157                 0.3192
 IR Inten    --     34.8630                 6.8049                12.7678

                     22                     23                     24
                      A                      A                      A
 Frequencies --    452.7737               470.8276               494.5324
 Red. masses --      2.4979                 3.3347                 3.8655
 Frc consts  --      0.3017                 0.4355                 0.5570
 IR Inten    --     36.4746                11.2838                 0.5276

                     25                     26                     27
                      A                      A                      A
 Frequencies --    543.8501               586.5639               619.2528
 Red. masses --      4.5541                 9.2774                11.1080
 Frc consts  --      0.7936                 1.8806                 2.5097
 IR Inten    --      2.9552                 0.9308                 3.9313

                     28                     29                     30
                      A                      A                      A
 Frequencies --    632.6447               656.1115               673.1491
 Red. masses --     11.4302                 2.7901                 3.0862
 Frc consts  --      2.6954                 0.7077                 0.8239
 IR Inten    --      3.1048                 3.7989                 0.7667

                     31                     32                     33
                      A                      A                      A
 Frequencies --    727.4768               756.9572               767.7687
 Red. masses --     11.1953                 3.2738                 1.3583
 Frc consts  --      3.4908                 1.1052                 0.4717
 IR Inten    --     20.4802                 2.9433                 2.6429

                     34                     35                     36
                      A                      A                      A
 Frequencies --    825.6404               839.5872               860.9711
 Red. masses --      3.5241                 1.7456                 2.2528
 Frc consts  --      1.4154                 0.7250                 0.9839
 IR Inten    --      0.1093                 6.2165                 2.9699

                     37                     38                     39
                      A                      A                      A
 Frequencies --    897.7719               913.4284               917.5443
 Red. masses --      2.6407                 2.0504                 1.2908
 Frc consts  --      1.2540                 1.0079                 0.6402
 IR Inten    --      1.5401                 3.0513                 5.9097

                     40                     41                     42
                      A                      A                      A
 Frequencies --    940.2059              1003.7117              1008.6029
 Red. masses --      1.6247                 2.9348                 2.0103
 Frc consts  --      0.8462                 1.7420                 1.2049
 IR Inten    --      9.6927                12.2985                10.1595

                     43                     44                     45
                      A                      A                      A
 Frequencies --   1021.2905              1050.6553              1088.1351
 Red. masses --      9.2210                 1.7152                 1.5572
 Frc consts  --      5.6667                 1.1155                 1.0863
 IR Inten    --     43.2942                 1.8065                14.6904

                     46                     47                     48
                      A                      A                      A
 Frequencies --   1094.7518              1099.7253              1132.2846
 Red. masses --      2.6487                 1.8800                 3.2489
 Frc consts  --      1.8703                 1.3396                 2.4541
 IR Inten    --      5.4005                 2.1461                 8.4636

                     49                     50                     51
                      A                      A                      A
 Frequencies --   1147.8921              1164.9231              1166.5811
 Red. masses --      2.3863                 1.2986                 1.7154
 Frc consts  --      1.8526                 1.0383                 1.3755
 IR Inten    --     18.8336                 8.9608                16.2256

                     52                     53                     54
                      A                      A                      A
 Frequencies --   1172.7982              1228.4396              1245.9213
 Red. masses --      3.5365                 2.5702                 1.6210
 Frc consts  --      2.8660                 2.2852                 1.4826
 IR Inten    --     42.2796                27.0327                24.1230

                     55                     56                     57
                      A                      A                      A
 Frequencies --   1253.2487              1283.2580              1291.5071
 Red. masses --      1.4099                 1.2386                 1.3405
 Frc consts  --      1.3047                 1.2017                 1.3174
 IR Inten    --     10.6532                73.1405                 5.4760

                     58                     59                     60
                      A                      A                      A
 Frequencies --   1300.6044              1327.7019              1336.4718
 Red. masses --      1.2991                 1.2293                 1.3738
 Frc consts  --      1.2947                 1.2767                 1.4457
 IR Inten    --      8.4582                28.0151                 5.5823

                     61                     62                     63
                      A                      A                      A
 Frequencies --   1364.5552              1384.5765              1388.9854
 Red. masses --      1.4143                 1.3962                 1.3523
 Frc consts  --      1.5515                 1.5770                 1.5371
 IR Inten    --      4.3341                 5.5026                37.3110

                     64                     65                     66
                      A                      A                      A
 Frequencies --   1403.4650              1411.1056              1413.2672
 Red. masses --      1.4718                 1.4961                 1.4519
 Frc consts  --      1.7081                 1.7552                 1.7086
 IR Inten    --      8.1475                12.3354                 0.5363

                     67                     68                     69
                      A                      A                      A
 Frequencies --   1448.8449              1454.8464              1489.3364
 Red. masses --      1.2512                 8.7233                 1.1165
 Frc consts  --      1.5475                10.8784                 1.4592
 IR Inten    --     13.6817                14.9416                 2.1779

                     70                     71                     72
                      A                      A                      A
 Frequencies --   1510.1028              1511.3405              1511.7265
 Red. masses --      1.0934                 1.1606                 1.2979
 Frc consts  --      1.4690                 1.5619                 1.7476
 IR Inten    --      4.1028                14.2608                 6.1202

                     73                     74                     75
                      A                      A                      A
 Frequencies --   1526.8922              1531.0836              1536.8202
 Red. masses --      1.0821                 1.0838                 1.0946
 Frc consts  --      1.4863                 1.4969                 1.5232
 IR Inten    --      4.6338                 5.4429                13.9780

                     76                     77                     78
                      A                      A                      A
 Frequencies --   1542.3569              1543.7820              1571.8104
 Red. masses --      1.0969                 1.1799                 4.1045
 Frc consts  --      1.5374                 1.6567                 5.9747
 IR Inten    --     80.5809                16.6202               615.5570

                     79                     80                     81
                      A                      A                      A
 Frequencies --   1806.5424              3015.4094              3018.1525
 Red. masses --     11.5074                 1.0734                 1.0703
 Frc consts  --     22.1271                 5.7503                 5.7443
 IR Inten    --    146.9199                36.0894                32.9677

                     82                     83                     84
                      A                      A                      A
 Frequencies --   3034.0556              3042.5131              3055.0840
 Red. masses --      1.0675                 1.0398                 1.0601
 Frc consts  --      5.7899                 5.6711                 5.8296
 IR Inten    --     41.5748                16.9549                29.7730

                     85                     86                     87
                      A                      A                      A
 Frequencies --   3060.5242              3065.9371              3085.5257
 Red. masses --      1.0631                 1.0622                 1.1012
 Frc consts  --      5.8671                 5.8827                 6.1771
 IR Inten    --     26.5193                10.8804                 1.5343

                     88                     89                     90
                      A                      A                      A
 Frequencies --   3089.5179              3095.4363              3103.3516
 Red. masses --      1.0947                 1.0931                 1.0856
 Frc consts  --      6.1566                 6.1709                 6.1598
 IR Inten    --     31.3818                21.4341                 5.7943

                     91                     92                     93
                      A                      A                      A
 Frequencies --   3108.2985              3108.7730              3119.0703
 Red. masses --      1.1033                 1.1016                 1.1010
 Frc consts  --      6.2804                 6.2725                 6.3108
 IR Inten    --     15.2657                71.7362                16.2172

                     94                     95                     96
                      A                      A                      A
 Frequencies --   3124.4919              3127.9093              3627.0386
 Red. masses --      1.1004                 1.0921                 1.0762
 Frc consts  --      6.3294                 6.2955                 8.3414
 IR Inten    --     28.9616                15.9924                56.2733

 - Thermochemistry -
 -------------------
 Temperature   298.150 Kelvin.  Pressure   1.00000 Atm.
 Atom     1 has atomic number  6 and mass  12.00000

 Molecular mass:   271.08131 amu.
 Principal axes and moments of inertia in atomic units:
                           1         2         3
     Eigenvalues --  2443.500798965.339979313.98410
           X            0.99994   0.00191  -0.01078
           Y           -0.00222   0.99959  -0.02847
           Z            0.01072   0.02849   0.99954
 This molecule is an asymmetric top.
 Rotational symmetry number  1.
 Warning -- assumption of classical behavior for rotation
           may cause significant error
 Rotational temperatures (Kelvin)      0.03545     0.00966     0.00930
 Rotational constants (GHZ):           0.73859     0.20130     0.19377
 Zero-point vibrational energy     733869.5 (Joules/Mol)
                                  175.39902 (Kcal/Mol)
 Warning -- explicit consideration of  27 degrees of freedom as
           vibrations may cause significant error
 Vibrational temperatures:     28.73    42.75    64.49    81.80   107.68
          (Kelvin)            128.77   142.24   175.68   212.19   263.87
                              286.73   318.25   366.51   387.36   418.52
                              514.08   536.00   553.59   580.15   588.02
                              627.17   651.44   677.42   711.52   782.48
                              843.93   890.97   910.23   944.00   968.51
                             1046.68  1089.09  1104.65  1187.91  1207.98
                             1238.75  1291.69  1314.22  1320.14  1352.75
                             1444.12  1451.15  1469.41  1511.66  1565.58
                             1575.10  1582.26  1629.10  1651.56  1676.06
                             1678.45  1687.39  1767.45  1792.60  1803.15
                             1846.32  1858.19  1871.28  1910.27  1922.88
                             1963.29  1992.10  1998.44  2019.27  2030.27
                             2033.38  2084.56  2093.20  2142.82  2172.70
                             2174.48  2175.04  2196.86  2202.89  2211.14
                             2219.11  2221.16  2261.48  2599.21  4338.50
                             4342.45  4365.33  4377.50  4395.58  4403.41
                             4411.20  4439.38  4445.13  4453.64  4465.03
                             4472.15  4472.83  4487.65  4495.45  4500.36
                             5218.50

 Zero-point correction=                           0.279516 (Hartree/Particle)
 Thermal correction to Energy=                    0.297200
 Thermal correction to Enthalpy=                  0.298144
 Thermal correction to Gibbs Free Energy=         0.231482
 Sum of electronic and zero-point Energies=          -1465.031266
 Sum of electronic and thermal Energies=             -1465.013582
 Sum of electronic and thermal Enthalpies=           -1465.012637
 Sum of electronic and thermal Free Energies=        -1465.079300

                     E (Thermal)             CV                S
                      KCal/Mol        Cal/Mol-Kelvin    Cal/Mol-Kelvin
 Total                  186.496             65.189            140.303
 Electronic               0.000              0.000              0.000
 Translational            0.889              2.981             42.691
 Rotational               0.889              2.981             33.678
 Vibrational            184.718             59.227             63.934
 Vibration     1          0.593              1.986              6.637
 Vibration     2          0.593              1.984              5.848
 Vibration     3          0.595              1.979              5.034
 Vibration     4          0.596              1.975              4.564
 Vibration     5          0.599              1.966              4.022
 Vibration     6          0.602              1.957              3.671
 Vibration     7          0.604              1.950              3.477
 Vibration     8          0.610              1.931              3.067
 Vibration     9          0.617              1.905              2.705
 Vibration    10          0.631              1.862              2.294
 Vibration    11          0.637              1.841              2.140
 Vibration    12          0.648              1.809              1.949
 Vibration    13          0.665              1.755              1.698
 Vibration    14          0.674              1.730              1.601
 Vibration    15          0.687              1.691              1.469
 Vibration    16          0.732              1.560              1.134
 Vibration    17          0.744              1.529              1.069
 Vibration    18          0.754              1.503              1.020
 Vibration    19          0.769              1.463              0.951
 Vibration    20          0.773              1.451              0.931
 Vibration    21          0.796              1.392              0.840
 Vibration    22          0.811              1.355              0.787
 Vibration    23          0.828              1.315              0.735
 Vibration    24          0.850              1.262              0.672
 Vibration    25          0.899              1.153              0.557
 Vibration    26          0.944              1.060              0.473
 Vibration    27          0.979              0.991              0.418

 Optimization completed.
    -- Stationary point found.
 Normal termination of Gaussian 16 at Fri Dec 11 12:27:23 2020.

 ----------------------------------------------------------------------
 # B3LYP/6-311++G(d,p) empiricaldispersion=gd3bj scf=xqc pop=npa geom=c
 heck
 ----------------------------------------------------------------------

 --------------------------------------
 CID_47115252_JID_7393_Energie_neutraal
 --------------------------------------
 Structure from the checkpoint file:  "JID_7393.chk"
 Charge =  0 Multiplicity = 1

 SCF Done:  E(RB3LYP) =  -1465.54996482     A.U. after   17 cycles
 Normal termination of Gaussian 16 at Fri Dec 11 12:35:22 2020.

 ----------------------------------------------------------------------
 # B3LYP/6-311++G(d,p) empiricaldispersion=gd3bj scf=xqc pop=npa geom=c
 heck
 ----------------------------------------------------------------------

 ------------------------------------
 CID_47115252_JID_7393_Energie_kation
 ------------------------------------
 Structure from the checkpoint file:  "JID_7393.chk"
 Charge =  1 Multiplicity = 2

 SCF Done:  E(UB3LYP) =  -1465.25245496     A.U. after   27 cycles
 Normal termination of Gaussian 16 at Fri Dec 11 12:55:04 2020.
 Gaussian 16:  ES64L-G16RevA.03 25-Dec-2016

 ----------------------------------------------------------------------
 # B3LYP/6-311++G(d,p) empiricaldispersion=gd3bj scf=xqc pop=npa geom=c
 heck
 ----------------------------------------------------------------------

 -----------------------------------
 CID_47115252_JID_7393_Energie_anion
 -----------------------------------
 Structure from the checkpoint file:  "JID_7393.chk"
 Charge = -1 Multiplicity = 2

                         Standard orientation:
 ---------------------------------------------------------------------
 Center     Atomic      Atomic             Coordinates (Angstroms)
 Number     Number       Type             X           Y           Z
 ---------------------------------------------------------------------
      1          6           0       -5.689817    0.800788    1.082018
      2          6           0       -5.357552    0.474569   -0.378285
      3          6           0       -3.878390    0.627479   -0.730374
      4          7           0       -3.060839   -0.333681    0.010817
      5          6           0       -1.753625   -0.509062   -0.308846
      6          7           0       -1.200233    0.011065   -1.389930
      7          7           0        0.101821   -0.359299   -1.539575
      8          6           0        0.558766   -1.119617   -0.588208
      9         16           0       -0.663098   -1.501285    0.645962
     10         16           0        2.197425   -1.746075   -0.477411
     11          6           0        3.172978   -0.378395    0.360458
     12          6           0        3.884094    0.538766   -0.645493
     13          6           0        2.960746    1.610686   -1.228788
     14          6           0        2.377406    2.470732   -0.102851
     15          6           0        1.576307    1.617923    0.896675
     16          6           0        2.305737    0.374272    1.378809
     17          8           0        2.208500   -0.031054    2.520754
     18          1           0       -5.227200    0.095580    1.784430
     19          1           0       -6.769537    0.753101    1.256151
     20          1           0       -5.350115    1.808530    1.348943
     21          1           0       -5.680248   -0.545623   -0.620263
     22          1           0       -5.921529    1.148096   -1.034586
     23          1           0       -3.710827    0.440133   -1.793530
     24          1           0       -3.539614    1.655506   -0.529790
     25          1           0       -3.317386   -0.500007    0.973387
     26          1           0        3.896336   -0.957721    0.940995
     27          1           0        4.334836   -0.070880   -1.435380
     28          1           0        4.712032    1.029381   -0.111236
     29          1           0        2.151905    1.138308   -1.797720
     30          1           0        3.526004    2.238516   -1.927282
     31          1           0        1.726462    3.252877   -0.508992
     32          1           0        3.194244    2.981929    0.425585
     33          1           0        0.656588    1.278653    0.403517
     34          1           0        1.275688    2.184386    1.783054
 ---------------------------------------------------------------------

 SCF Done:  E(UB3LYP) =  -1465.55282948     A.U. after   33 cycles
 SCF Done:  E(UB3LYP) =  -1465.55282948     a.u. after    1 cycles

 The electronic state is 2-A.
 Alpha  occ. eigenvalues --  -88.75767 -88.72729 -18.97903 -14.23429 -14.20680
 Alpha  occ. eigenvalues --  -14.20536 -10.14642 -10.12493 -10.11481 -10.11043
 Alpha  occ. eigenvalues --  -10.08725 -10.08250 -10.07729 -10.06947 -10.06826
 Alpha  occ. eigenvalues --  -10.06004 -10.05880  -7.84420  -7.81278  -5.80698
 Alpha  occ. eigenvalues --   -5.80390  -5.79977  -5.77686  -5.77325  -5.76640
 Alpha  occ. eigenvalues --   -0.91574  -0.90668  -0.84148  -0.72869  -0.70835
 Alpha  occ. eigenvalues --   -0.69681  -0.66375  -0.65737  -0.62195  -0.59725
 Alpha  occ. eigenvalues --   -0.58053  -0.51714  -0.51072  -0.49324  -0.48382
 Alpha  occ. eigenvalues --   -0.44257  -0.41463  -0.40475  -0.37929  -0.37038
 Alpha  occ. eigenvalues --   -0.35229  -0.34753  -0.34352  -0.33883  -0.33054
 Alpha  occ. eigenvalues --   -0.32162  -0.31502  -0.30941  -0.30227  -0.29480
 Alpha  occ. eigenvalues --   -0.28634  -0.27280  -0.26272  -0.26143  -0.25379
 Alpha  occ. eigenvalues --   -0.24693  -0.23120  -0.22650  -0.22484  -0.22125
 Alpha  occ. eigenvalues --   -0.19876  -0.17972  -0.16642  -0.14265  -0.12713
 Alpha  occ. eigenvalues --   -0.11806  -0.10892   0.04015
 Alpha virt. eigenvalues --    0.05340   0.07314   0.07537   0.07802   0.08535
 Alpha virt. eigenvalues --    0.08692   0.09407   0.09715   0.10583   0.10823
 Alpha virt. eigenvalues --    0.11503   0.12005   0.12188   0.12201   0.12623

  Beta  occ. eigenvalues --  -88.75740 -88.72686 -18.97670 -14.23379 -14.20761
  Beta  occ. eigenvalues --  -14.20246 -10.14495 -10.12319 -10.11319 -10.11043
  Beta  occ. eigenvalues --  -10.08720 -10.08068 -10.07686 -10.06940 -10.06832
  Beta  occ. eigenvalues --  -10.06005 -10.05893  -7.84396  -7.81231  -5.80682
  Beta  occ. eigenvalues --   -5.80381  -5.79888  -5.77617  -5.77265  -5.76608
  Beta  occ. eigenvalues --   -0.91142  -0.90431  -0.83984  -0.72675  -0.70695
  Beta  occ. eigenvalues --   -0.69517  -0.66174  -0.65568  -0.62033  -0.59651
  Beta  occ. eigenvalues --   -0.57741  -0.51551  -0.50993  -0.49158  -0.48212
  Beta  occ. eigenvalues --   -0.44016  -0.41239  -0.40369  -0.37816  -0.36942
  Beta  occ. eigenvalues --   -0.35119  -0.34541  -0.34191  -0.33682  -0.32921
  Beta  occ. eigenvalues --   -0.31824  -0.31392  -0.30674  -0.29880  -0.29230
  Beta  occ. eigenvalues --   -0.28463  -0.27148  -0.26164  -0.26062  -0.25234
  Beta  occ. eigenvalues --   -0.24285  -0.22843  -0.22538  -0.22068  -0.21802
  Beta  occ. eigenvalues --   -0.19302  -0.17781  -0.16231  -0.13981  -0.12497
  Beta  occ. eigenvalues --   -0.11569  -0.10318
  Beta virt. eigenvalues --    0.06099   0.07317   0.07792   0.08414   0.08501
  Beta virt. eigenvalues --    0.08880   0.09078   0.09636   0.09896   0.10666
  Beta virt. eigenvalues --    0.10973   0.11583   0.12000   0.12234   0.12439

 Mulliken charges and spin densities:
               1          2
     1  C    0.561987  -1.040398
     2  C   -0.717309   0.386669
     3  C    0.178604  -0.321985
     4  N    0.217848  -0.024741
     5  C   -0.857766   0.053893
     6  N   -0.201065  -0.034517
     7  N    0.125564   0.109849
     8  C   -0.164028   0.162268
     9  S    0.222160   0.078181
    10  S   -0.276842   0.137732
    11  C    0.755467   0.013105
    12  C   -0.570713   0.000953
    13  C   -0.343944  -0.024348
    14  C   -0.475005   0.009944
    15  C    0.313813  -0.041708
    16  C   -0.972627   0.177602
    17  O   -0.262493   0.069460
    18  H   -0.274616   0.393746
    19  H   -0.551308   0.705434
    20  H    0.020604   0.114154
    21  H    0.145206   0.009179
    22  H    0.049422   0.084259
    23  H    0.174703   0.009140
    24  H    0.185063  -0.019660
    25  H    0.327924  -0.057847
    26  H    0.291405  -0.001032
    27  H    0.110383   0.029441
    28  H    0.111746  -0.005067
    29  H    0.186614   0.000086
    30  H    0.152171  -0.000286
    31  H    0.146577   0.006095
    32  H    0.101032   0.010232
    33  H    0.098853   0.006392
    34  H    0.190573   0.003777
 Sum of Mulliken charges =  -1.00000   1.00000

 Dipole moment (field-independent basis, Debye):
    X=              3.2049    Y=              2.1288    Z=             -2.1518  Tot=              4.4084
 Quadrupole moment (field-independent basis, Debye-Ang):
   XX=           -191.6483   YY=           -134.9806   ZZ=           -153.5025
   XY=              8.4967   XZ=              6.3836   YZ=             -1.3496

 Summary of Natural Population Analysis:

                                       Natural Population
                Natural  -----------------------------------------------
    Atom  No    Charge         Core      Valence    Rydberg      Total
 -----------------------------------------------------------------------
      C    1   -0.28909      0.99967     2.28396    0.00546     3.28909
      C    2   -0.19680      0.99964     2.18758    0.00959     3.19680
      C    3   -0.08558      0.99962     2.07395    0.01201     3.08558
      N    4   -0.31641      0.99964     2.80560    0.01117     3.81641
      C    5    0.14157      0.99963     1.83634    0.02246     2.85843
      N    6   -0.20724      0.99964     2.69615    0.01145     3.70724
      N    7   -0.11489      0.99959     2.59471    0.02059     3.61489
      C    8   -0.06236      0.99961     2.04436    0.01839     3.06236
      S    9    0.16709      4.99938     2.81380    0.01972     7.83291
      S   10    0.13228      4.99947     2.84847    0.01979     7.86772
      C   11   -0.17199      0.99951     2.15968    0.01280     3.17199
      C   12   -0.19381      0.99961     2.18609    0.00811     3.19381
      C   13   -0.20056      0.99963     2.19342    0.00751     3.20056
      C   14   -0.18406      0.99964     2.17797    0.00645     3.18406
      C   15   -0.24034      0.99958     2.23307    0.00770     3.24034
      C   16    0.30758      0.99961     1.66943    0.02338     2.69242
      O   17   -0.27063      0.99987     3.26251    0.00824     4.27063
      H   18    0.09477      0.00000     0.40404    0.00119     0.40523
      H   19    0.10312      0.00000     0.39509    0.00179     0.39688
      H   20    0.09705      0.00000     0.40201    0.00094     0.40295
      H   21    0.09704      0.00000     0.40187    0.00110     0.40296
      H   22    0.09690      0.00000     0.40225    0.00085     0.40310
      H   23    0.10556      0.00000     0.39294    0.00150     0.39444
      H   24    0.08722      0.00000     0.41135    0.00143     0.41278
      H   25    0.19206      0.00000     0.30549    0.00245     0.30794
      H   26    0.10628      0.00000     0.39189    0.00182     0.39372
      H   27    0.10154      0.00000     0.39717    0.00129     0.39846
      H   28    0.09099      0.00000     0.40759    0.00142     0.40901
      H   29    0.11579      0.00000     0.38264    0.00157     0.38421
      H   30    0.09111      0.00000     0.40775    0.00114     0.40889
      H   31    0.09651      0.00000     0.40238    0.00111     0.40349
      H   32    0.08677      0.00000     0.41195    0.00129     0.41323
      H   33    0.11924      0.00000     0.37902    0.00174     0.38076
      H   34    0.10331      0.00000     0.39486    0.00183     0.39669
 =======================================================================
   * Total *   -0.00000     24.99334    46.75739    0.24927    72.00000

 Normal termination of Gaussian 16 at Fri Dec 11 13:17:32 2020.
