 Gaussian 16, Revision A.03,

 -----------------------------------------------------------
 # opt freq B3LYP/6-31G(d) empiricaldispersion=gd3bj scf=xqc
 -----------------------------------------------------------

 -------------------------------
 CID_130942449_JID_3177_neutraal
 -------------------------------
 Symbolic Z-matrix:
 Charge =  0 Multiplicity = 1

 SCF Done:  E(RB3LYP) =  -576.684863322     A.U. after   14 cycles
 SCF Done:  E(RB3LYP) =  -576.688442581     A.U. after   11 cycles
 SCF Done:  E(RB3LYP) =  -576.688359710     A.U. after   11 cycles
 SCF Done:  E(RB3LYP) =  -576.689064425     A.U. after   11 cycles
 SCF Done:  E(RB3LYP) =  -576.689219997     A.U. after   10 cycles
 SCF Done:  E(RB3LYP) =  -576.689294402     A.U. after   10 cycles
 SCF Done:  E(RB3LYP) =  -576.689313183     A.U. after    9 cycles
 SCF Done:  E(RB3LYP) =  -576.689325412     A.U. after    9 cycles
 SCF Done:  E(RB3LYP) =  -576.689326412     A.U. after    7 cycles
 SCF Done:  E(RB3LYP) =  -576.689326638     A.U. after    7 cycles
 Optimization completed.
    -- Stationary point found.
 Normal termination of Gaussian 16 at Wed Dec  9 22:27:33 2020.

 --------------------------------------------------------------------
 #N Geom=AllCheck Guess=TCheck SCRF=Check GenChk RB3LYP/6-31G(d) Freq
 --------------------------------------------------------------------

 Structure from the checkpoint file:  "JID_3177.chk"
 -------------------------------
 CID_130942449_JID_3177_neutraal
 -------------------------------
 Charge =  0 Multiplicity = 1

 SCF Done:  E(RB3LYP) =  -576.689326638     A.U. after    1 cycles

  Exact polarizability: 131.396  -3.830 112.538  -0.594   1.629  99.464
 Approx polarizability: 164.740 -10.952 169.262  -2.316   9.817 149.643

                      1                      2                      3
                      A                      A                      A
 Frequencies --     46.5036                52.5594                79.1462
 Red. masses --      3.3755                 3.3750                 5.3615
 Frc consts  --      0.0043                 0.0055                 0.0198
 IR Inten    --      0.2676                 0.3317                 2.6006

                      4                      5                      6
                      A                      A                      A
 Frequencies --     94.8394               151.9527               156.9692
 Red. masses --      2.0846                 2.0444                 2.4448
 Frc consts  --      0.0110                 0.0278                 0.0355
 IR Inten    --      1.1208                 0.0541                 0.0449

                      7                      8                      9
                      A                      A                      A
 Frequencies --    203.6629               212.5470               230.6264
 Red. masses --      1.4877                 1.7692                 1.2117
 Frc consts  --      0.0364                 0.0471                 0.0380
 IR Inten    --     31.7613                16.3430                 2.3320

                     10                     11                     12
                      A                      A                      A
 Frequencies --    280.3076               316.3913               342.5569
 Red. masses --      2.6587                 3.2749                 2.1679
 Frc consts  --      0.1231                 0.1931                 0.1499
 IR Inten    --      2.1935                 6.3735                 0.2187

                     13                     14                     15
                      A                      A                      A
 Frequencies --    358.0402               409.7792               479.5935
 Red. masses --      3.9858                 2.4327                 2.7455
 Frc consts  --      0.3010                 0.2407                 0.3721
 IR Inten    --     23.9186                 2.0035                 3.0111

                     16                     17                     18
                      A                      A                      A
 Frequencies --    536.3878               577.9248               590.4901
 Red. masses --      4.1001                 4.0212                 4.0776
 Frc consts  --      0.6950                 0.7913                 0.8377
 IR Inten    --     13.7908                 5.1602                 5.7864

                     19                     20                     21
                      A                      A                      A
 Frequencies --    714.8518               770.8160               790.3255
 Red. masses --      5.3823                 2.6746                 1.5448
 Frc consts  --      1.6205                 0.9363                 0.5685
 IR Inten    --      4.4326                 1.1311                 1.3371

                     22                     23                     24
                      A                      A                      A
 Frequencies --    803.7992               812.2385               826.2754
 Red. masses --      3.3346                 2.0350                 1.2919
 Frc consts  --      1.2694                 0.7910                 0.5197
 IR Inten    --      1.1534                11.1182                 5.2130

                     25                     26                     27
                      A                      A                      A
 Frequencies --    855.8682               885.4135               895.5797
 Red. masses --      2.6543                 2.6335                 1.8170
 Frc consts  --      1.1455                 1.2164                 0.8586
 IR Inten    --      5.6437                 5.5684                17.0774

                     28                     29                     30
                      A                      A                      A
 Frequencies --    907.2305               911.6102               955.4261
 Red. masses --      2.6901                 2.7771                 1.8882
 Frc consts  --      1.3045                 1.3598                 1.0155
 IR Inten    --     30.7114                20.3718                 0.4560

                     31                     32                     33
                      A                      A                      A
 Frequencies --    964.3835              1000.9950              1003.5821
 Red. masses --      2.6717                 2.4465                 2.1307
 Frc consts  --      1.4640                 1.4443                 1.2644
 IR Inten    --    111.4516                28.7318                 1.5394

                     34                     35                     36
                      A                      A                      A
 Frequencies --   1020.3757              1024.0005              1036.2336
 Red. masses --      2.0695                 1.9547                 1.5388
 Frc consts  --      1.2695                 1.2076                 0.9735
 IR Inten    --      1.4550                43.2144                 1.7532

                     37                     38                     39
                      A                      A                      A
 Frequencies --   1072.2982              1102.7411              1111.2150
 Red. masses --      1.2979                 1.9873                 1.7641
 Frc consts  --      0.8793                 1.4239                 1.2834
 IR Inten    --      4.1784                10.1918                37.7712

                     40                     41                     42
                      A                      A                      A
 Frequencies --   1140.8835              1151.4845              1177.0429
 Red. masses --      1.0757                 2.8332                 1.8887
 Frc consts  --      0.8250                 2.2133                 1.5417
 IR Inten    --      1.1257                 8.4199                15.1988

                     43                     44                     45
                      A                      A                      A
 Frequencies --   1190.1807              1240.3717              1248.0805
 Red. masses --      1.5189                 1.5694                 1.2606
 Frc consts  --      1.2677                 1.4227                 1.1570
 IR Inten    --     36.9126                11.1222                 4.4714

                     46                     47                     48
                      A                      A                      A
 Frequencies --   1252.0216              1254.6394              1282.0649
 Red. masses --      1.2176                 1.4828                 1.4015
 Frc consts  --      1.1245                 1.3752                 1.3573
 IR Inten    --      2.1873                 3.8882                18.2430

                     49                     50                     51
                      A                      A                      A
 Frequencies --   1296.8145              1310.0771              1315.3896
 Red. masses --      1.2680                 1.5499                 1.6860
 Frc consts  --      1.2564                 1.5672                 1.7188
 IR Inten    --      0.1595                 1.2497                 0.0641

                     52                     53                     54
                      A                      A                      A
 Frequencies --   1320.5824              1348.3519              1354.6836
 Red. masses --      1.3601                 1.2682                 1.5112
 Frc consts  --      1.3975                 1.3584                 1.6340
 IR Inten    --      0.0160                 2.0363                 3.2231

                     55                     56                     57
                      A                      A                      A
 Frequencies --   1361.1334              1363.7978              1388.3083
 Red. masses --      1.5186                 1.5059                 1.4552
 Frc consts  --      1.6577                 1.6503                 1.6525
 IR Inten    --     10.1599                 3.8462                 8.3842

                     58                     59                     60
                      A                      A                      A
 Frequencies --   1417.4743              1432.1408              1461.2252
 Red. masses --      1.8883                 1.3046                 2.1037
 Frc consts  --      2.2353                 1.5765                 2.6465
 IR Inten    --    166.1155                14.9040               103.2304

                     61                     62                     63
                      A                      A                      A
 Frequencies --   1509.2688              1516.7486              1522.9828
 Red. masses --      1.0811                 1.0687                 1.0820
 Frc consts  --      1.4509                 1.4486                 1.4786
 IR Inten    --      0.0347                 1.2816                 1.5751

                     64                     65                     66
                      A                      A                      A
 Frequencies --   1523.3845              1528.3625              1541.9628
 Red. masses --      1.0525                 1.1038                 1.0573
 Frc consts  --      1.4390                 1.5191                 1.4811
 IR Inten    --      5.3864                 5.9431                 5.9582

                     67                     68                     69
                      A                      A                      A
 Frequencies --   1545.5439              1714.9088              1749.5149
 Red. masses --      1.1002                 1.0853                11.3627
 Frc consts  --      1.5484                 1.8805                20.4911
 IR Inten    --      1.6764                19.2005               283.1201

                     70                     71                     72
                      A                      A                      A
 Frequencies --   3039.2235              3044.5173              3051.1891
 Red. masses --      1.0686                 1.0428                 1.0755
 Frc consts  --      5.8154                 5.6951                 5.8995
 IR Inten    --      7.8534                28.1938                33.3330

                     73                     74                     75
                      A                      A                      A
 Frequencies --   3069.7441              3076.9122              3082.3469
 Red. masses --      1.0597                 1.0596                 1.0626
 Frc consts  --      5.8837                 5.9102                 5.9479
 IR Inten    --     22.9242                30.6118                34.1727

                     76                     77                     78
                      A                      A                      A
 Frequencies --   3083.2494              3087.5061              3106.7262
 Red. masses --      1.0954                 1.0609                 1.1005
 Frc consts  --      6.1351                 5.9588                 6.2579
 IR Inten    --     37.5623                29.7484                53.8086

                     79                     80                     81
                      A                      A                      A
 Frequencies --   3109.3376              3116.3576              3129.5447
 Red. masses --      1.1075                 1.1081                 1.1072
 Frc consts  --      6.3086                 6.3407                 6.3893
 IR Inten    --      4.0785                 2.7876                25.6150

                     82                     83                     84
                      A                      A                      A
 Frequencies --   3136.5177              3148.4747              3163.5593
 Red. masses --      1.1070                 1.0999                 1.0886
 Frc consts  --      6.4165                 6.4239                 6.4190
 IR Inten    --     65.5284                17.6458                24.9000

                     85                     86                     87
                      A                      A                      A
 Frequencies --   3188.5788              3451.5639              3529.0344
 Red. masses --      1.0895                 1.0509                 1.0895
 Frc consts  --      6.5266                 7.3760                 7.9947
 IR Inten    --      5.9992                 2.6064                 2.2610

 - Thermochemistry -
 -------------------
 Temperature   298.150 Kelvin.  Pressure   1.00000 Atm.
 Atom     1 has atomic number  6 and mass  12.00000

 Molecular mass:   182.14191 amu.
 Principal axes and moments of inertia in atomic units:
                           1         2         3
     Eigenvalues --  1314.607143303.793463764.88460
           X            0.99988   0.01560  -0.00025
           Y           -0.01560   0.99927  -0.03477
           Z           -0.00029   0.03477   0.99940
 This molecule is an asymmetric top.
 Rotational symmetry number  1.
 Warning -- assumption of classical behavior for rotation
           may cause significant error
 Rotational temperatures (Kelvin)      0.06589     0.02622     0.02301
 Rotational constants (GHZ):           1.37284     0.54626     0.47936
 Zero-point vibrational energy     733665.8 (Joules/Mol)
                                  175.35034 (Kcal/Mol)
 Warning -- explicit consideration of  18 degrees of freedom as
           vibrations may cause significant error
 Vibrational temperatures:     66.91    75.62   113.87   136.45   218.63
          (Kelvin)            225.84   293.03   305.81   331.82   403.30
                              455.22   492.86   515.14   589.58   690.03
                              771.74   831.50   849.58  1028.51  1109.03
                             1137.10  1156.49  1168.63  1188.83  1231.40
                             1273.91  1288.54  1305.30  1311.60  1374.65
                             1387.53  1440.21  1443.93  1468.09  1473.31
                             1490.91  1542.80  1586.60  1598.79  1641.48
                             1656.73  1693.50  1712.40  1784.62  1795.71
                             1801.38  1805.15  1844.61  1865.83  1884.91
                             1892.55  1900.02  1939.98  1949.09  1958.37
                             1962.20  1997.47  2039.43  2060.53  2102.38
                             2171.50  2182.26  2191.23  2191.81  2198.97
                             2218.54  2223.69  2467.37  2517.16  4372.76
                             4380.38  4389.98  4416.68  4426.99  4434.81
                             4436.11  4442.23  4469.89  4473.64  4483.74
                             4502.72  4512.75  4529.95  4551.66  4587.65
                             4966.03  5077.49

 Zero-point correction=                           0.279439 (Hartree/Particle)
 Thermal correction to Energy=                    0.292386
 Thermal correction to Enthalpy=                  0.293330
 Thermal correction to Gibbs Free Energy=         0.239638
 Sum of electronic and zero-point Energies=           -576.409888
 Sum of electronic and thermal Energies=              -576.396941
 Sum of electronic and thermal Enthalpies=            -576.395996
 Sum of electronic and thermal Free Energies=         -576.449689

                     E (Thermal)             CV                S
                      KCal/Mol        Cal/Mol-Kelvin    Cal/Mol-Kelvin
 Total                  183.475             49.508            113.006
 Electronic               0.000              0.000              0.000
 Translational            0.889              2.981             41.505
 Rotational               0.889              2.981             31.170
 Vibrational            181.698             43.546             40.330
 Vibration     1          0.595              1.979              4.961
 Vibration     2          0.596              1.977              4.719
 Vibration     3          0.600              1.963              3.912
 Vibration     4          0.603              1.953              3.558
 Vibration     5          0.619              1.901              2.648
 Vibration     6          0.621              1.895              2.586
 Vibration     7          0.639              1.835              2.100
 Vibration     8          0.644              1.822              2.022
 Vibration     9          0.652              1.794              1.874
 Vibration    10          0.680              1.710              1.532
 Vibration    11          0.703              1.642              1.329
 Vibration    12          0.722              1.590              1.200
 Vibration    13          0.733              1.559              1.131
 Vibration    14          0.774              1.449              0.927
 Vibration    15          0.836              1.295              0.711
 Vibration    16          0.891              1.170              0.573
 Vibration    17          0.934              1.079              0.489
 Vibration    18          0.948              1.052              0.466

                           ! Non-Optimized Parameters !
 Normal termination of Gaussian 16 at Wed Dec  9 22:37:06 2020.

 ----------------------------------------------------------------------
 # B3LYP/6-311++G(d,p) empiricaldispersion=gd3bj scf=xqc pop=npa geom=c
 heck
 ----------------------------------------------------------------------

 ---------------------------------------
 CID_130942449_JID_3177_Energie_neutraal
 ---------------------------------------
 Structure from the checkpoint file:  "JID_3177.chk"
 Charge =  0 Multiplicity = 1

 SCF Done:  E(RB3LYP) =  -576.855791348     A.U. after   14 cycles
 Normal termination of Gaussian 16 at Wed Dec  9 22:41:22 2020.

 ----------------------------------------------------------------------
 # B3LYP/6-311++G(d,p) empiricaldispersion=gd3bj scf=xqc pop=npa geom=c
 heck
 ----------------------------------------------------------------------

 -------------------------------------
 CID_130942449_JID_3177_Energie_kation
 -------------------------------------
 Structure from the checkpoint file:  "JID_3177.chk"
 Charge =  1 Multiplicity = 2

 SCF Done:  E(UB3LYP) =  -576.543990243     A.U. after   24 cycles
 Normal termination of Gaussian 16 at Wed Dec  9 22:51:51 2020.
 Gaussian 16:  ES64L-G16RevA.03 25-Dec-2016

 ----------------------------------------------------------------------
 # B3LYP/6-311++G(d,p) empiricaldispersion=gd3bj scf=xqc pop=npa geom=c
 heck
 ----------------------------------------------------------------------

 ------------------------------------
 CID_130942449_JID_3177_Energie_anion
 ------------------------------------
 Structure from the checkpoint file:  "JID_3177.chk"
 Charge = -1 Multiplicity = 2

                         Standard orientation:
 ---------------------------------------------------------------------
 Center     Atomic      Atomic             Coordinates (Angstroms)
 Number     Number       Type             X           Y           Z
 ---------------------------------------------------------------------
      1          6           0        3.510105    1.614817    0.102341
      2          6           0        2.343102    0.879752   -0.555478
      3          6           0        1.805348   -0.276325    0.313264
      4          6           0        0.544242   -0.874688   -0.343532
      5          8           0        0.586144   -1.965951   -0.907314
      6          7           0       -0.578197   -0.093484   -0.355805
      7          6           0       -1.915261   -0.624524   -0.682822
      8          6           0       -2.436841   -1.041643    0.714967
      9          6           0       -1.800792    0.039226    1.646838
     10          6           0       -1.003225    0.908966    0.642179
     11          6           0       -1.990397    1.744296   -0.200190
     12          6           0       -2.632720    0.665077   -1.129724
     13          7           0        2.844756   -1.284673    0.507486
     14          1           0        3.912262    2.389739   -0.559731
     15          1           0        4.308765    0.910584    0.348333
     16          1           0        3.191827    2.101489    1.033266
     17          1           0        1.524893    1.575459   -0.777097
     18          1           0        2.656822    0.456527   -1.519434
     19          1           0        1.544296    0.127868    1.299796
     20          1           0       -1.864243   -1.424740   -1.417389
     21          1           0       -2.074803   -2.042609    0.965645
     22          1           0       -3.529937   -1.054446    0.760991
     23          1           0       -2.543441    0.624769    2.197408
     24          1           0       -1.125409   -0.415783    2.378572
     25          1           0       -0.179046    1.477431    1.070483
     26          1           0       -2.720871    2.260808    0.429334
     27          1           0       -1.453084    2.497417   -0.783497
     28          1           0       -3.717197    0.588915   -1.008417
     29          1           0       -2.423147    0.877923   -2.181467
     30          1           0        2.548323   -1.921494    1.246418
     31          1           0        2.847569   -1.864870   -0.333530
 ---------------------------------------------------------------------

 SCF Done:  E(UB3LYP) =  -576.843357022     A.U. after   32 cycles

 The electronic state is 2-A.
 Alpha  occ. eigenvalues --  -18.98971 -14.23203 -14.19314 -10.16671 -10.11040
 Alpha  occ. eigenvalues --  -10.10615 -10.10573 -10.07186 -10.06977 -10.06818
 Alpha  occ. eigenvalues --  -10.06772 -10.06711 -10.05819  -0.94011  -0.85981
 Alpha  occ. eigenvalues --   -0.79157  -0.70504  -0.67030  -0.64802  -0.64565
 Alpha  occ. eigenvalues --   -0.58876  -0.53068  -0.51012  -0.49283  -0.46428
 Alpha  occ. eigenvalues --   -0.44272  -0.41810  -0.39483  -0.38589  -0.37568
 Alpha  occ. eigenvalues --   -0.35471  -0.33847  -0.31824  -0.30790  -0.30656
 Alpha  occ. eigenvalues --   -0.29970  -0.29791  -0.28950  -0.27196  -0.26559
 Alpha  occ. eigenvalues --   -0.26175  -0.25548  -0.24424  -0.23776  -0.23577
 Alpha  occ. eigenvalues --   -0.23102  -0.20380  -0.16606  -0.15556  -0.14302
 Alpha  occ. eigenvalues --    0.04453
 Alpha virt. eigenvalues --    0.06974   0.07395   0.07892   0.08659   0.09311
 Alpha virt. eigenvalues --    0.09625   0.10339   0.10472   0.10776   0.11317
 Alpha virt. eigenvalues --    0.11755   0.12204   0.12906   0.13125   0.13838

  Beta  occ. eigenvalues --  -18.98967 -14.23201 -14.19300 -10.16670 -10.11028
  Beta  occ. eigenvalues --  -10.10598 -10.10571 -10.07175 -10.06956 -10.06798
  Beta  occ. eigenvalues --  -10.06739 -10.06675 -10.05799  -0.94002  -0.85966
  Beta  occ. eigenvalues --   -0.79132  -0.70476  -0.67000  -0.64753  -0.64528
  Beta  occ. eigenvalues --   -0.58836  -0.53024  -0.50931  -0.49230  -0.46368
  Beta  occ. eigenvalues --   -0.44235  -0.41781  -0.39437  -0.38552  -0.37531
  Beta  occ. eigenvalues --   -0.35450  -0.33827  -0.31795  -0.30761  -0.30613
  Beta  occ. eigenvalues --   -0.29935  -0.29747  -0.28914  -0.27166  -0.26521
  Beta  occ. eigenvalues --   -0.26136  -0.25508  -0.24397  -0.23740  -0.23536
  Beta  occ. eigenvalues --   -0.23058  -0.20342  -0.16596  -0.15544  -0.14291
  Beta virt. eigenvalues --    0.06815   0.07626   0.08161   0.08586   0.09147
  Beta virt. eigenvalues --    0.09768   0.09925   0.10752   0.10831   0.10981
  Beta virt. eigenvalues --    0.11666   0.12143   0.12473   0.13159   0.13452

 Mulliken charges and spin densities:
               1          2
     1  C    0.388872  -1.037081
     2  C   -0.329834   0.548978
     3  C    0.491576  -1.148354
     4  C   -0.574716   0.448978
     5  O   -0.334510   0.007615
     6  N    0.502846  -0.204234
     7  C   -0.588839   0.716789
     8  C    0.256602  -0.661008
     9  C    1.958726  -2.516384
    10  C   -2.345111   2.436248
    11  C    1.868089  -2.397569
    12  C   -0.102920  -0.355923
    13  N   -0.252899   0.025491
    14  H   -0.103547   0.236523
    15  H    0.132911   0.044398
    16  H   -0.102103   0.226451
    17  H    0.015840   0.138993
    18  H    0.068330   0.084997
    19  H    0.144242   0.103142
    20  H   -0.000829   0.251826
    21  H    0.003860   0.167861
    22  H   -0.200648   0.357862
    23  H   -0.401432   0.563107
    24  H   -0.330490   0.475902
    25  H   -0.754362   0.990070
    26  H   -0.295189   0.442014
    27  H   -0.223020   0.381620
    28  H   -0.121696   0.259369
    29  H   -0.062982   0.219048
    30  H    0.048935   0.189276
    31  H    0.244299   0.003995
 Sum of Mulliken charges =  -1.00000   1.00000

 Dipole moment (field-independent basis, Debye):
    X=              2.2996    Y=             -2.3169    Z=             -3.0305  Tot=              4.4542
 Quadrupole moment (field-independent basis, Debye-Ang):
   XX=           -141.5591   YY=           -126.2712   ZZ=           -119.7983
   XY=              4.2331   XZ=              3.2387   YZ=             -2.6881

 Summary of Natural Population Analysis:

                                       Natural Population
                Natural  -----------------------------------------------
    Atom  No    Charge         Core      Valence    Rydberg      Total
 -----------------------------------------------------------------------
      C    1   -0.28589      0.99966     2.28186    0.00436     3.28589
      C    2   -0.18965      0.99962     2.18080    0.00923     3.18965
      C    3   -0.05155      0.99958     2.03985    0.01213     3.05155
      C    4    0.34877      0.99961     1.62792    0.02369     2.65123
      O    5   -0.33189      0.99988     3.32652    0.00550     4.33189
      N    6   -0.26587      0.99963     2.75401    0.01223     3.76587
      C    7   -0.00822      0.99960     1.99496    0.01365     3.00822
      C    8   -0.19683      0.99962     2.18886    0.00835     3.19683
      C    9   -0.19628      0.99962     2.18796    0.00869     3.19628
      C   10   -0.00952      0.99960     1.99579    0.01413     3.00952
      C   11   -0.19124      0.99962     2.18244    0.00918     3.19124
      C   12   -0.19160      0.99962     2.18325    0.00873     3.19160
      N   13   -0.42124      0.99978     2.91106    0.01040     3.92124
      H   14    0.09540      0.00000     0.40372    0.00088     0.40460
      H   15    0.10485      0.00000     0.39371    0.00144     0.39515
      H   16    0.09696      0.00000     0.40178    0.00126     0.40304
      H   17    0.10170      0.00000     0.39683    0.00147     0.39830
      H   18    0.09414      0.00000     0.40476    0.00111     0.40586
      H   19    0.09979      0.00000     0.39800    0.00221     0.40021
      H   20    0.11330      0.00000     0.38572    0.00098     0.38670
      H   21    0.10334      0.00000     0.39553    0.00114     0.39666
      H   22    0.10105      0.00000     0.39768    0.00127     0.39895
      H   23    0.10449      0.00000     0.39319    0.00232     0.39551
      H   24    0.10231      0.00000     0.39557    0.00212     0.39769
      H   25    0.11007      0.00000     0.38728    0.00265     0.38993
      H   26    0.10344      0.00000     0.39448    0.00208     0.39656
      H   27    0.10273      0.00000     0.39551    0.00176     0.39727
      H   28    0.10066      0.00000     0.39809    0.00125     0.39934
      H   29    0.10110      0.00000     0.39770    0.00120     0.39890
      H   30    0.17600      0.00000     0.32252    0.00147     0.32400
      H   31    0.17968      0.00000     0.31835    0.00197     0.32032
 =======================================================================
   * Total *    0.00000     12.99545    36.83571    0.16884    50.00000

 Normal termination of Gaussian 16 at Wed Dec  9 23:05:43 2020.
