 Gaussian 16, Revision A.03,

 -----------------------------------------------------------
 # opt freq B3LYP/6-31G(d) empiricaldispersion=gd3bj scf=xqc
 -----------------------------------------------------------

 ----------------------------
 CID_69289798_JID_36_neutraal
 ----------------------------
 Symbolic Z-matrix:
 Charge =  0 Multiplicity = 1

 SCF Done:  E(RB3LYP) =  -492.185685620     A.U. after   15 cycles
 SCF Done:  E(RB3LYP) =  -492.193084133     A.U. after   12 cycles
 SCF Done:  E(RB3LYP) =  -492.193584871     A.U. after   11 cycles
 SCF Done:  E(RB3LYP) =  -492.193622630     A.U. after    9 cycles
 SCF Done:  E(RB3LYP) =  -492.193625653     A.U. after    8 cycles
 SCF Done:  E(RB3LYP) =  -492.193626118     A.U. after    7 cycles
 SCF Done:  E(RB3LYP) =  -492.193626565     A.U. after    7 cycles
 SCF Done:  E(RB3LYP) =  -492.193627314     A.U. after    8 cycles
 SCF Done:  E(RB3LYP) =  -492.193627717     A.U. after    7 cycles
 SCF Done:  E(RB3LYP) =  -492.193628056     A.U. after    8 cycles
 SCF Done:  E(RB3LYP) =  -492.193628201     A.U. after    7 cycles
 Optimization completed.
    -- Stationary point found.
 Normal termination of Gaussian 16 at Sun Dec 13 15:56:43 2020.

 --------------------------------------------------------------------
 #N Geom=AllCheck Guess=TCheck SCRF=Check GenChk RB3LYP/6-31G(d) Freq
 --------------------------------------------------------------------

 Structure from the checkpoint file:  "JID_36.chk"
 ----------------------------
 CID_69289798_JID_36_neutraal
 ----------------------------
 Charge =  0 Multiplicity = 1

 SCF Done:  E(RB3LYP) =  -492.193628201     A.U. after    1 cycles

  Exact polarizability: 105.999   6.084  79.509  -0.005  -0.004  35.982
 Approx polarizability: 167.574  12.089 131.079  -0.010  -0.013  54.136

 ******    1 imaginary frequencies (negative Signs) ******

                      1                      2                      3
                      A                      A                      A
 Frequencies --   -143.8360               114.3197               120.2532
 Red. masses --      3.6051                 2.5476                 3.9013
 Frc consts  --      0.0439                 0.0196                 0.0332
 IR Inten    --     39.3355                 1.4576                 6.9367

                      4                      5                      6
                      A                      A                      A
 Frequencies --    139.0357               256.2896               328.1501
 Red. masses --      1.3377                 2.9369                 6.6372
 Frc consts  --      0.0152                 0.1137                 0.4211
 IR Inten    --      0.6836                 2.6879                 2.4296

                      7                      8                      9
                      A                      A                      A
 Frequencies --    355.6778               375.2115               574.6010
 Red. masses --      7.3444                 1.4838                 4.9073
 Frc consts  --      0.5474                 0.1231                 0.9546
 IR Inten    --      3.2460                89.5147                40.2111

                     10                     11                     12
                      A                      A                      A
 Frequencies --    580.9769               587.2720               617.9167
 Red. masses --      3.8328                10.1923                 1.3654
 Frc consts  --      0.7622                 2.0711                 0.3072
 IR Inten    --      0.9794                 8.4726                30.6302

                     13                     14                     15
                      A                      A                      A
 Frequencies --    686.6990               697.8628               724.6214
 Red. masses --      4.2761                 6.1142                 9.9679
 Frc consts  --      1.1880                 1.7544                 3.0837
 IR Inten    --      6.6542                13.3416                 7.8656

                     16                     17                     18
                      A                      A                      A
 Frequencies --    799.6045               813.0937               905.6024
 Red. masses --      6.9377                 1.2125                 5.0305
 Frc consts  --      2.6134                 0.4723                 2.4307
 IR Inten    --      6.1696                10.9891                 1.7448

                     19                     20                     21
                      A                      A                      A
 Frequencies --    943.9482              1016.4354              1085.4538
 Red. masses --      2.9006                 2.8405                 3.8011
 Frc consts  --      1.5227                 1.7290                 2.6387
 IR Inten    --     23.2731                17.7077                 8.5971

                     22                     23                     24
                      A                      A                      A
 Frequencies --   1130.3998              1168.7057              1183.8232
 Red. masses --      2.2784                 1.2768                 3.2766
 Frc consts  --      1.7153                 1.0275                 2.7055
 IR Inten    --     34.2200                 0.2982                37.4348

                     25                     26                     27
                      A                      A                      A
 Frequencies --   1215.7479              1285.8938              1313.6667
 Red. masses --      1.7764                 1.7875                 1.6121
 Frc consts  --      1.5470                 1.7415                 1.6392
 IR Inten    --      4.5346                 1.7596                14.2559

                     28                     29                     30
                      A                      A                      A
 Frequencies --   1397.9586              1460.6299              1513.7890
 Red. masses --      7.0592                 1.3114                 4.1367
 Frc consts  --      8.1282                 1.6485                 5.5852
 IR Inten    --     88.0466                 4.4585                48.4808

                     31                     32                     33
                      A                      A                      A
 Frequencies --   1522.6726              1523.1487              1542.8334
 Red. masses --      1.0435                 3.3008                 1.1970
 Frc consts  --      1.4255                 4.5118                 1.6787
 IR Inten    --      8.0048                45.5217                38.2291

                     34                     35                     36
                      A                      A                      A
 Frequencies --   1590.4708              1660.6886              1834.6800
 Red. masses --      8.0852                 7.8071                10.5946
 Frc consts  --     12.0502                12.6857                21.0115
 IR Inten    --     80.5853                 6.6847               640.7819

                     37                     38                     39
                      A                      A                      A
 Frequencies --   3049.1968              3103.5475              3171.3595
 Red. masses --      1.0355                 1.1064                 1.0995
 Frc consts  --      5.6725                 6.2787                 6.5156
 IR Inten    --     56.5152                30.5262                 0.7076

                     40                     41                     42
                      A                      A                      A
 Frequencies --   3278.9334              3324.7460              3694.6032
 Red. masses --      1.0939                 1.1011                 1.0809
 Frc consts  --      6.9293                 7.1715                 8.6931
 IR Inten    --      3.0509                 1.1811                96.2609

 - Thermochemistry -
 -------------------
 Temperature   298.150 Kelvin.  Pressure   1.00000 Atm.
 Atom     1 has atomic number  6 and mass  12.00000

 Molecular mass:   138.04293 amu.
 Principal axes and moments of inertia in atomic units:
                           1         2         3
     Eigenvalues --   616.324581511.188882116.04389
           X            0.99979  -0.02056  -0.00001
           Y            0.02056   0.99979   0.00001
           Z            0.00001  -0.00001   1.00000
 This molecule is an asymmetric top.
 Rotational symmetry number  1.
 Warning -- assumption of classical behavior for rotation
           may cause significant error
 Rotational temperatures (Kelvin)      0.14053     0.05732     0.04093
 Rotational constants (GHZ):           2.92823     1.19425     0.85288
    1 imaginary frequencies ignored.
 Zero-point vibrational energy     315159.3 (Joules/Mol)
                                   75.32488 (Kcal/Mol)
 Warning -- explicit consideration of  11 degrees of freedom as
           vibrations may cause significant error
 Vibrational temperatures:    164.48   173.02   200.04   368.74   472.13
          (Kelvin)            511.74   539.85   826.72   835.90   844.95
                              889.04   988.01  1004.07  1042.57  1150.45
                             1169.86  1302.96  1358.13  1462.42  1561.73
                             1626.39  1681.51  1703.26  1749.19  1850.11
                             1890.07  2011.35  2101.52  2178.00  2190.79
                             2191.47  2219.79  2288.33  2389.36  2639.70
                             4387.11  4465.31  4562.88  4717.65  4783.57
                             5315.71

 Zero-point correction=                           0.120038 (Hartree/Particle)
 Thermal correction to Energy=                    0.127936
 Thermal correction to Enthalpy=                  0.128880
 Thermal correction to Gibbs Free Energy=         0.087100
 Sum of electronic and zero-point Energies=           -492.073590
 Sum of electronic and thermal Energies=              -492.065692
 Sum of electronic and thermal Enthalpies=            -492.064748
 Sum of electronic and thermal Free Energies=         -492.106528

                     E (Thermal)             CV                S
                      KCal/Mol        Cal/Mol-Kelvin    Cal/Mol-Kelvin
 Total                   80.281             29.529             87.933
 Electronic               0.000              0.000              0.000
 Translational            0.889              2.981             40.679
 Rotational               0.889              2.981             29.068
 Vibrational             78.503             23.567             18.186
 Vibration     1          0.607              1.938              3.194
 Vibration     2          0.609              1.932              3.096
 Vibration     3          0.615              1.914              2.817
 Vibration     4          0.666              1.752              1.687
 Vibration     5          0.711              1.619              1.269
 Vibration     6          0.731              1.564              1.141
 Vibration     7          0.746              1.523              1.058
 Vibration     8          0.931              1.086              0.495
 Vibration     9          0.938              1.072              0.484
 Vibration    10          0.944              1.059              0.472
 Vibration    11          0.978              0.994              0.420

 Optimization completed.
    -- Stationary point found.
 Normal termination of Gaussian 16 at Sun Dec 13 15:59:13 2020.

 ----------------------------------------------------------------------
 # B3LYP/6-311++G(d,p) empiricaldispersion=gd3bj scf=xqc pop=npa geom=c
 heck
 ----------------------------------------------------------------------

 ------------------------------------
 CID_69289798_JID_36_Energie_neutraal
 ------------------------------------
 Structure from the checkpoint file:  "JID_36.chk"
 Charge =  0 Multiplicity = 1

 SCF Done:  E(RB3LYP) =  -492.334920284     A.U. after   14 cycles
 Normal termination of Gaussian 16 at Sun Dec 13 15:59:59 2020.

 ----------------------------------------------------------------------
 # B3LYP/6-311++G(d,p) empiricaldispersion=gd3bj scf=xqc pop=npa geom=c
 heck
 ----------------------------------------------------------------------

 ----------------------------------
 CID_69289798_JID_36_Energie_kation
 ----------------------------------
 Structure from the checkpoint file:  "JID_36.chk"
 Charge =  1 Multiplicity = 2

 SCF Done:  E(UB3LYP) =  -492.061944287     A.U. after   19 cycles
 Normal termination of Gaussian 16 at Sun Dec 13 16:01:16 2020.
 Gaussian 16:  ES64L-G16RevA.03 25-Dec-2016

 ----------------------------------------------------------------------
 # B3LYP/6-311++G(d,p) empiricaldispersion=gd3bj scf=xqc pop=npa geom=c
 heck
 ----------------------------------------------------------------------

 ---------------------------------
 CID_69289798_JID_36_Energie_anion
 ---------------------------------
 Structure from the checkpoint file:  "JID_36.chk"
 Charge = -1 Multiplicity = 2

                         Standard orientation:
 ---------------------------------------------------------------------
 Center     Atomic      Atomic             Coordinates (Angstroms)
 Number     Number       Type             X           Y           Z
 ---------------------------------------------------------------------
      1          6           0       -1.753618    1.837966    0.000388
      2          7           0       -0.932877    0.648403   -0.000280
      3          6           0        0.462853    0.562314    0.000516
      4          6           0        0.775207   -0.759456    0.000780
      5          7           0       -0.368891   -1.523927    0.000178
      6          6           0       -1.475874   -0.643567   -0.000312
      7          8           0       -2.655359   -0.955982   -0.000475
      8          8           0        2.097729   -0.993766    0.000124
      9          6           0        2.668778    0.280293   -0.000446
     10          6           0        1.711077    1.261221   -0.000432
     11          1           0       -1.562830    2.445324   -0.891731
     12          1           0       -1.563223    2.444089    0.893436
     13          1           0       -2.794911    1.511724   -0.000078
     14          1           0       -0.477443   -2.525153    0.000077
     15          1           0        3.745551    0.292453   -0.000377
     16          1           0        1.895732    2.325601   -0.000763
 ---------------------------------------------------------------------

 SCF Done:  E(UB3LYP) =  -492.319428593     A.U. after   30 cycles

 The electronic state is 2-A.
 Alpha  occ. eigenvalues --  -19.10185 -18.98693 -14.26566 -14.26122 -10.19893
 Alpha  occ. eigenvalues --  -10.15472 -10.12198 -10.10225 -10.10050 -10.08395
 Alpha  occ. eigenvalues --   -1.02509  -0.95882  -0.88557  -0.82017  -0.70684
 Alpha  occ. eigenvalues --   -0.64240  -0.61881  -0.52291  -0.51464  -0.49430
 Alpha  occ. eigenvalues --   -0.45047  -0.40512  -0.39353  -0.37946  -0.35132
 Alpha  occ. eigenvalues --   -0.35051  -0.32830  -0.31410  -0.31082  -0.29645
 Alpha  occ. eigenvalues --   -0.28021  -0.22715  -0.21724  -0.18041  -0.15552
 Alpha  occ. eigenvalues --   -0.08849   0.04702
 Alpha virt. eigenvalues --    0.06679   0.07306   0.09356   0.09681   0.10735
 Alpha virt. eigenvalues --    0.11990   0.12437   0.13291   0.14771   0.15194
 Alpha virt. eigenvalues --    0.15949   0.16124   0.17064   0.17848   0.18033

  Beta  occ. eigenvalues --  -19.10174 -18.98687 -14.26529 -14.26118 -10.19892
  Beta  occ. eigenvalues --  -10.15472 -10.12183 -10.10175 -10.10049 -10.08364
  Beta  occ. eigenvalues --   -1.02491  -0.95867  -0.88540  -0.81980  -0.70654
  Beta  occ. eigenvalues --   -0.64189  -0.61833  -0.52245  -0.51417  -0.49386
  Beta  occ. eigenvalues --   -0.44973  -0.40476  -0.39326  -0.37881  -0.35090
  Beta  occ. eigenvalues --   -0.35023  -0.32798  -0.31359  -0.31048  -0.29604
  Beta  occ. eigenvalues --   -0.27996  -0.22703  -0.21695  -0.18027  -0.15528
  Beta  occ. eigenvalues --   -0.08835
  Beta virt. eigenvalues --    0.07399   0.08285   0.08391   0.10092   0.10480
  Beta virt. eigenvalues --    0.11297   0.12320   0.12799   0.13658   0.14810
  Beta virt. eigenvalues --    0.15319   0.16006   0.16077   0.17225   0.17848

 Mulliken charges and spin densities:
               1          2
     1  C    1.553795  -1.857674
     2  N   -0.294633   0.102322
     3  C    1.851204  -1.580054
     4  C   -0.663901   0.390539
     5  N   -0.309206  -0.050406
     6  C    0.199678   0.067637
     7  O   -0.430093   0.010314
     8  O   -0.137672   0.006833
     9  C    1.215298  -1.330112
    10  C   -0.413926   0.403014
    11  H   -0.453630   0.625832
    12  H   -0.452499   0.624717
    13  H    0.044653   0.127992
    14  H   -0.483953   0.831740
    15  H   -0.854234   1.051735
    16  H   -1.370880   1.575571
 Sum of Mulliken charges =  -1.00000   1.00000

 Dipole moment (field-independent basis, Debye):
    X=             -1.0405    Y=             -3.5008    Z=              0.0011  Tot=              3.6521
 Quadrupole moment (field-independent basis, Debye-Ang):
   XX=           -111.0960   YY=           -111.3613   ZZ=            -81.6225
   XY=             -8.2681   XZ=             -0.0040   YZ=              0.0066

 Summary of Natural Population Analysis:

                                       Natural Population
                Natural  -----------------------------------------------
    Atom  No    Charge         Core      Valence    Rydberg      Total
 -----------------------------------------------------------------------
      C    1   -0.17523      0.99964     2.16685    0.00874     3.17523
      N    2   -0.23522      0.99963     2.72560    0.00999     3.73522
      C    3    0.02079      0.99936     1.96698    0.01287     2.97921
      C    4    0.23238      0.99928     1.75381    0.01453     2.76762
      N    5   -0.31220      0.99965     2.80357    0.00898     3.81220
      C    6    0.39968      0.99969     1.57770    0.02293     2.60032
      O    7   -0.33717      0.99987     3.33138    0.00591     4.33717
      O    8   -0.23353      0.99986     3.22488    0.00879     4.23353
      C    9    0.04789      0.99952     1.93890    0.01369     2.95211
      C   10   -0.14512      0.99954     2.13574    0.00984     3.14512
      H   11    0.09858      0.00000     0.39939    0.00202     0.40142
      H   12    0.09857      0.00000     0.39941    0.00202     0.40143
      H   13    0.11192      0.00000     0.38693    0.00115     0.38808
      H   14    0.21213      0.00000     0.28137    0.00650     0.28787
      H   15    0.09784      0.00000     0.40013    0.00203     0.40216
      H   16    0.11868      0.00000     0.37529    0.00603     0.38132
 =======================================================================
   * Total *   -0.00000      9.99604    25.86795    0.13601    36.00000

 Normal termination of Gaussian 16 at Sun Dec 13 16:03:15 2020.
