 Gaussian 16, Revision A.03,

 -----------------------------------------------------------
 # opt freq B3LYP/6-31G(d) empiricaldispersion=gd3bj scf=xqc
 -----------------------------------------------------------

 ------------------------------
 CID_142151568_JID_702_neutraal
 ------------------------------
 Symbolic Z-matrix:
 Charge =  0 Multiplicity = 1

 SCF Done:  E(RB3LYP) =  -466.151449742     A.U. after   14 cycles
 SCF Done:  E(RB3LYP) =  -466.154231462     A.U. after   13 cycles
 SCF Done:  E(RB3LYP) =  -466.152077253     A.U. after   13 cycles
 SCF Done:  E(RB3LYP) =  -466.155217484     A.U. after   11 cycles
 SCF Done:  E(RB3LYP) =  -466.155379374     A.U. after   11 cycles
 SCF Done:  E(RB3LYP) =  -466.155439994     A.U. after   11 cycles
 SCF Done:  E(RB3LYP) =  -466.155508109     A.U. after   11 cycles
 SCF Done:  E(RB3LYP) =  -466.155549832     A.U. after   11 cycles
 SCF Done:  E(RB3LYP) =  -466.155567099     A.U. after   10 cycles
 SCF Done:  E(RB3LYP) =  -466.155589964     A.U. after   10 cycles
 SCF Done:  E(RB3LYP) =  -466.155792827     A.U. after    9 cycles
 SCF Done:  E(RB3LYP) =  -466.155793045     A.U. after    8 cycles
 SCF Done:  E(RB3LYP) =  -466.155793119     A.U. after    7 cycles
 SCF Done:  E(RB3LYP) =  -466.155793179     A.U. after    7 cycles
 SCF Done:  E(RB3LYP) =  -466.155793237     A.U. after    7 cycles
 SCF Done:  E(RB3LYP) =  -466.155793258     A.U. after    7 cycles
 Optimization completed.
    -- Stationary point found.

 1\1\GINC-NODE205\FOpt\RB3LYP\6-31G(d)\C8H18O2\VSC10255\08-Dec-2020\0\\
 # opt freq B3LYP/6-31G(d) empiricaldispersion=gd3bj scf=xqc\\CID_14215
 1568_JID_702_neutraal\\0,1\C,0.8676274032,0.228159196,-0.0373885794\C,
 0.5100361309,-1.0886932934,0.6595141073\C,1.016075915,-1.1806559448,2.
 1079979883\C,0.3766394765,-0.1863229282,3.0904697433\C,-1.1134382033,-
 0.4354627401,3.3390329249\C,-2.6575118865,1.4592931303,0.0404374786\C,
 -2.659003345,2.29284423,1.3170950616\O,-1.299930456,2.5363308272,1.671
 9455993\C,-2.0330773581,2.1735549348,-1.1418873927\O,-2.3897462738,2.0

 Normal termination of Gaussian 16 at Tue Dec  8 13:04:05 2020.

 --------------------------------------------------------------------
 #N Geom=AllCheck Guess=TCheck SCRF=Check GenChk RB3LYP/6-31G(d) Freq
 --------------------------------------------------------------------

 Structure from the checkpoint file:  "JID_702.chk"
 ------------------------------
 CID_142151568_JID_702_neutraal
 ------------------------------
 Charge =  0 Multiplicity = 1

 SCF Done:  E(RB3LYP) =  -466.155793258     A.U. after    1 cycles

  Exact polarizability:  99.236  -5.392  95.083  -2.871  -0.458  82.680
 Approx polarizability: 126.938  -9.129 125.156  -6.461   3.116 120.914

                      1                      2                      3
                      A                      A                      A
 Frequencies --     12.7688                27.1482                53.4719
 Red. masses --      6.9225                 4.0205                 2.7237
 Frc consts  --      0.0007                 0.0017                 0.0046
 IR Inten    --      5.3443                 1.9097                 0.3828

                      4                      5                      6
                      A                      A                      A
 Frequencies --     66.9720                75.2850                81.4137
 Red. masses --      3.0723                 2.9067                 2.4448
 Frc consts  --      0.0081                 0.0097                 0.0095
 IR Inten    --      2.8641                 0.5378                 2.8903

                      7                      8                      9
                      A                      A                      A
 Frequencies --     85.9627               109.8751               148.7689
 Red. masses --      3.2801                 2.5812                 3.4368
 Frc consts  --      0.0143                 0.0184                 0.0448
 IR Inten    --      0.2672                 1.9067                 9.8399

                     10                     11                     12
                      A                      A                      A
 Frequencies --    172.9148               227.2588               243.5403
 Red. masses --      1.3888                 1.3932                 1.1687
 Frc consts  --      0.0245                 0.0424                 0.0408
 IR Inten    --      0.6455                76.5339                 1.9317

                     13                     14                     15
                      A                      A                      A
 Frequencies --    282.2464               296.4936               302.0170
 Red. masses --      2.2382                 1.4807                 1.3438
 Frc consts  --      0.1051                 0.0767                 0.0722
 IR Inten    --      1.0214                48.5980                12.4152

                     16                     17                     18
                      A                      A                      A
 Frequencies --    391.2959               423.6172               471.6362
 Red. masses --      1.7426                 3.9210                 2.0207
 Frc consts  --      0.1572                 0.4146                 0.2648
 IR Inten    --      0.2177                18.5871                 0.6808

                     19                     20                     21
                      A                      A                      A
 Frequencies --    520.5889               742.5751               761.8656
 Red. masses --      2.1299                 1.1892                 1.8600
 Frc consts  --      0.3401                 0.3863                 0.6361
 IR Inten    --     11.9387                 6.7939                 6.2945

                     22                     23                     24
                      A                      A                      A
 Frequencies --    776.6779               855.4024               869.3548
 Red. masses --      1.6704                 1.5782                 1.4651
 Frc consts  --      0.5937                 0.6804                 0.6524
 IR Inten    --      2.2236                 4.5015                 0.3909

                     25                     26                     27
                      A                      A                      A
 Frequencies --    917.4933               919.4267               926.6102
 Red. masses --      1.4746                 1.5435                 2.3937
 Frc consts  --      0.7314                 0.7688                 1.2109
 IR Inten    --      2.9457                 6.3234                 6.9402

                     28                     29                     30
                      A                      A                      A
 Frequencies --   1015.6924              1031.3952              1039.6463
 Red. masses --      1.9920                 1.3290                 1.3613
 Frc consts  --      1.2108                 0.8330                 0.8669
 IR Inten    --      0.0030                 1.7645                 1.9304

                     31                     32                     33
                      A                      A                      A
 Frequencies --   1056.5019              1105.3069              1106.8603
 Red. masses --      2.4454                 2.1497                 2.8556
 Frc consts  --      1.6082                 1.5474                 2.0613
 IR Inten    --     43.3743                 8.2117                27.4476

                     34                     35                     36
                      A                      A                      A
 Frequencies --   1137.5745              1175.5713              1186.3485
 Red. masses --      2.1289                 1.7833                 1.9970
 Frc consts  --      1.6232                 1.4520                 1.6560
 IR Inten    --     19.3087                 0.2492                 1.6529

                     37                     38                     39
                      A                      A                      A
 Frequencies --   1213.5351              1253.3873              1280.4213
 Red. masses --      1.1981                 1.1630                 1.2903
 Frc consts  --      1.0396                 1.0764                 1.2463
 IR Inten    --     22.6413                 7.8720                 0.0267

                     40                     41                     42
                      A                      A                      A
 Frequencies --   1299.0412              1312.8090              1346.9164
 Red. masses --      1.2500                 1.1950                 1.1203
 Frc consts  --      1.2429                 1.2135                 1.1975
 IR Inten    --      0.8603                34.2749                 0.0391

                     43                     44                     45
                      A                      A                      A
 Frequencies --   1362.9380              1380.3157              1407.4255
 Red. masses --      1.3981                 1.3796                 1.4434
 Frc consts  --      1.5302                 1.5487                 1.6846
 IR Inten    --      1.6134                 7.8069                 0.7678

                     46                     47                     48
                      A                      A                      A
 Frequencies --   1409.2814              1438.6009              1441.5018
 Red. masses --      1.3852                 1.2683                 1.2621
 Frc consts  --      1.6210                 1.5465                 1.5452
 IR Inten    --      1.5220                 1.8636                 6.6718

                     49                     50                     51
                      A                      A                      A
 Frequencies --   1447.8326              1465.5447              1473.5178
 Red. masses --      1.2540                 1.2933                 1.1747
 Frc consts  --      1.5488                 1.6366                 1.5028
 IR Inten    --      8.5516                 6.3918                10.4040

                     52                     53                     54
                      A                      A                      A
 Frequencies --   1511.0668              1518.4815              1523.7766
 Red. masses --      1.0754                 1.0549                 1.0712
 Frc consts  --      1.4468                 1.4331                 1.4655
 IR Inten    --      0.3365                 1.5908                 6.7266

                     55                     56                     57
                      A                      A                      A
 Frequencies --   1532.7969              1536.0717              1538.7000
 Red. masses --      1.0529                 1.0620                 1.0660
 Frc consts  --      1.4576                 1.4764                 1.4869
 IR Inten    --      4.6881                 0.9335                 7.8408

                     58                     59                     60
                      A                      A                      A
 Frequencies --   1554.9026              1556.8513              1831.7223
 Red. masses --      1.0721                 1.0653                 9.6636
 Frc consts  --      1.5272                 1.5214                19.1033
 IR Inten    --      1.6528                 8.6961               163.9603

                     61                     62                     63
                      A                      A                      A
 Frequencies --   2951.6456              3001.8504              3019.0721
 Red. masses --      1.0849                 1.0605                 1.0612
 Frc consts  --      5.5687                 5.6303                 5.6989
 IR Inten    --     70.3918                68.3768                25.4278

                     64                     65                     66
                      A                      A                      A
 Frequencies --   3029.8193              3038.2170              3040.7051
 Red. masses --      1.0652                 1.0969                 1.0586
 Frc consts  --      5.7615                 5.9656                 5.7666
 IR Inten    --     21.5364                42.3380                27.8073

                     67                     68                     69
                      A                      A                      A
 Frequencies --   3044.1564              3047.0304              3055.2544
 Red. masses --      1.0411                 1.0472                 1.0968
 Frc consts  --      5.6845                 5.7282                 6.0323
 IR Inten    --     40.5560                13.2926                41.9007

                     70                     71                     72
                      A                      A                      A
 Frequencies --   3058.4169              3064.7975              3088.5121
 Red. masses --      1.0703                 1.0984                 1.0964
 Frc consts  --      5.8984                 6.0785                 6.1622
 IR Inten    --     17.2840                68.6505                15.6690

                     73                     74                     75
                      A                      A                      A
 Frequencies --   3102.8843              3106.6280              3118.7467
 Red. masses --      1.1016                 1.1000                 1.0981
 Frc consts  --      6.2492                 6.2549                 6.2929
 IR Inten    --     50.1966                54.4396                14.1479

                     76                     77                     78
                      A                      A                      A
 Frequencies --   3124.6470              3135.6480              3762.5469
 Red. masses --      1.0993                 1.0995                 1.0665
 Frc consts  --      6.3238                 6.3693                 8.8960
 IR Inten    --     68.2547                19.0184                21.7888

 - Thermochemistry -
 -------------------
 Temperature   298.150 Kelvin.  Pressure   1.00000 Atm.
 Atom     1 has atomic number  6 and mass  12.00000

 Molecular mass:   146.13068 amu.
 Principal axes and moments of inertia in atomic units:
                           1         2         3
     Eigenvalues --  1199.705992791.743033504.40733
           X            0.99975   0.02184   0.00369
           Y           -0.02174   0.99948  -0.02382
           Z           -0.00421   0.02373   0.99971
 This molecule is an asymmetric top.
 Rotational symmetry number  1.
 Warning -- assumption of classical behavior for rotation
           may cause significant error
 Rotational temperatures (Kelvin)      0.07220     0.03103     0.02472
 Rotational constants (GHZ):           1.50432     0.64646     0.51499
 Zero-point vibrational energy     664200.2 (Joules/Mol)
                                  158.74765 (Kcal/Mol)
 Warning -- explicit consideration of  19 degrees of freedom as
           vibrations may cause significant error
 Vibrational temperatures:     18.37    39.06    76.93    96.36   108.32
          (Kelvin)            117.14   123.68   158.09   214.05   248.79
                              326.97   350.40   406.09   426.59   434.54
                              562.99   609.49   678.58   749.01  1068.40
                             1096.15  1117.47  1230.73  1250.81  1320.07
                             1322.85  1333.19  1461.35  1483.95  1495.82
                             1520.07  1590.29  1592.53  1636.72  1691.38
                             1706.89  1746.01  1803.34  1842.24  1869.03
                             1888.84  1937.91  1960.96  1985.97  2024.97
                             2027.64  2069.83  2074.00  2083.11  2108.59
                             2120.06  2174.09  2184.76  2192.37  2205.35
                             2210.06  2213.85  2237.16  2239.96  2635.44
                             4246.76  4318.99  4343.77  4359.23  4371.32
                             4374.90  4379.86  4384.00  4395.83  4400.38
                             4409.56  4443.68  4464.36  4469.74  4487.18
                             4495.67  4511.50  5413.47

 Zero-point correction=                           0.252980 (Hartree/Particle)
 Thermal correction to Energy=                    0.267831
 Thermal correction to Enthalpy=                  0.268775
 Thermal correction to Gibbs Free Energy=         0.208036
 Sum of electronic and zero-point Energies=           -465.902813
 Sum of electronic and thermal Energies=              -465.887962
 Sum of electronic and thermal Enthalpies=            -465.887018
 Sum of electronic and thermal Free Energies=         -465.947758

                     E (Thermal)             CV                S
                      KCal/Mol        Cal/Mol-Kelvin    Cal/Mol-Kelvin
 Total                  168.067             49.194            127.838
 Electronic               0.000              0.000              0.000
 Translational            0.889              2.981             40.849
 Rotational               0.889              2.981             30.841
 Vibrational            166.289             43.232             56.148
 Vibration     1          0.593              1.987              7.525
 Vibration     2          0.593              1.984              6.028
 Vibration     3          0.596              1.976              4.685
 Vibration     4          0.598              1.970              4.240
 Vibration     5          0.599              1.965              4.010
 Vibration     6          0.600              1.962              3.856
 Vibration     7          0.601              1.959              3.750
 Vibration     8          0.606              1.941              3.271
 Vibration     9          0.618              1.904              2.688
 Vibration    10          0.626              1.876              2.404
 Vibration    11          0.651              1.799              1.900
 Vibration    12          0.659              1.773              1.777
 Vibration    13          0.681              1.707              1.520
 Vibration    14          0.690              1.680              1.437
 Vibration    15          0.694              1.670              1.406
 Vibration    16          0.759              1.489              0.995
 Vibration    17          0.786              1.419              0.880
 Vibration    18          0.829              1.313              0.733
 Vibration    19          0.876              1.204              0.609

                           ! Non-Optimized Parameters !

 1\1\GINC-NODE205\Freq\RB3LYP\6-31G(d)\C8H18O2\VSC10255\08-Dec-2020\0\\
 #N Geom=AllCheck Guess=TCheck SCRF=Check GenChk RB3LYP/6-31G(d) Freq\\
 CID_142151568_JID_702_neutraal\\0,1\C,0.8676274032,0.228159196,-0.0373
 885794\C,0.5100361309,-1.0886932934,0.6595141073\C,1.016075915,-1.1806
 559448,2.1079979883\C,0.3766394765,-0.1863229282,3.0904697433\C,-1.113
 4382033,-0.4354627401,3.3390329249\C,-2.6575118865,1.4592931303,0.0404
 374786\C,-2.659003345,2.29284423,1.3170950616\O,-1.299930456,2.5363308
 272,1.6719455993\C,-2.0330773581,2.1735549348,-1.1418873927\O,-2.38974

 Normal termination of Gaussian 16 at Tue Dec  8 13:11:12 2020.

 ----------------------------------------------------------------------
 # B3LYP/6-311++G(d,p) empiricaldispersion=gd3bj scf=xqc pop=npa geom=c
 heck
 ----------------------------------------------------------------------

 --------------------------------------
 CID_142151568_JID_702_Energie_neutraal
 --------------------------------------
 Structure from the checkpoint file:  "JID_702.chk"
 Charge =  0 Multiplicity = 1

 SCF Done:  E(RB3LYP) =  -466.307683589     A.U. after   13 cycles
 Normal termination of Gaussian 16 at Tue Dec  8 13:17:15 2020.

 ----------------------------------------------------------------------
 # B3LYP/6-311++G(d,p) empiricaldispersion=gd3bj scf=xqc pop=npa geom=c
 heck
 ----------------------------------------------------------------------

 ------------------------------------
 CID_142151568_JID_702_Energie_kation
 ------------------------------------
 Structure from the checkpoint file:  "JID_702.chk"
 Charge =  1 Multiplicity = 2

 SCF Done:  E(UB3LYP) =  -465.963331478     A.U. after   29 cycles
 Normal termination of Gaussian 16 at Tue Dec  8 13:26:57 2020.
 Gaussian 16:  ES64L-G16RevA.03 25-Dec-2016

 -----------------------------------
 CID_142151568_JID_702_Energie_anion
 -----------------------------------
 Structure from the checkpoint file:  "JID_702.chk"
 Charge = -1 Multiplicity = 2

                         Standard orientation:
 ---------------------------------------------------------------------
 Center     Atomic      Atomic             Coordinates (Angstroms)
 Number     Number       Type             X           Y           Z
 ---------------------------------------------------------------------
      1          6           0       -0.683091   -1.868197    0.700260
      2          6           0       -1.662623   -1.612333   -0.449826
      3          6           0       -2.879593   -0.762767   -0.049999
      4          6           0       -2.564262    0.687943    0.348540
      5          6           0       -2.040018    1.545621   -0.806338
      6          6           0        1.905282    0.412555   -0.730421
      7          6           0        1.598749    1.714897    0.000747
      8          8           0        0.773797    1.395277    1.118594
      9          6           0        2.692641   -0.575207    0.107656
     10          8           0        3.498904   -1.353926   -0.352796
     11          1           0       -0.265395   -0.936004    1.092134
     12          1           0        0.152145   -2.499683    0.374644
     13          1           0       -1.184197   -2.384204    1.528784
     14          1           0       -1.135411   -1.134083   -1.286979
     15          1           0       -2.020387   -2.574961   -0.838063
     16          1           0       -3.597773   -0.751581   -0.882398
     17          1           0       -3.389784   -1.258970    0.787730
     18          1           0       -3.479248    1.146865    0.746404
     19          1           0       -1.830409    0.701288    1.162093
     20          1           0       -2.764561    1.588277   -1.629109
     21          1           0       -1.845769    2.573694   -0.478832
     22          1           0       -1.103353    1.149226   -1.210753
     23          1           0        0.952722   -0.066258   -0.995979
     24          1           0        2.452023    0.598540   -1.660507
     25          1           0        2.534269    2.195058    0.328669
     26          1           0        1.088699    2.407368   -0.683989
     27          1           0        0.578454    2.212326    1.600757
     28          1           0        2.473857   -0.552778    1.195295
 ---------------------------------------------------------------------

 SCF Done:  E(UB3LYP) =  -466.299758471     A.U. after   29 cycles

 The electronic state is 2-A.
 Alpha  occ. eigenvalues --  -19.00898 -18.99244 -10.12613 -10.10510 -10.06463
 Alpha  occ. eigenvalues --  -10.06280 -10.06186 -10.05283 -10.05216 -10.04401
 Alpha  occ. eigenvalues --   -0.92404  -0.90982  -0.69883  -0.66204  -0.64025
 Alpha  occ. eigenvalues --   -0.57313  -0.53023  -0.51216  -0.45714  -0.45109
 Alpha  occ. eigenvalues --   -0.41005  -0.36712  -0.35858  -0.35713  -0.33946
 Alpha  occ. eigenvalues --   -0.31628  -0.30908  -0.30616  -0.29793  -0.28895
 Alpha  occ. eigenvalues --   -0.27682  -0.26129  -0.25623  -0.24764  -0.24613
 Alpha  occ. eigenvalues --   -0.22497  -0.22058  -0.21287  -0.21183  -0.17012
 Alpha  occ. eigenvalues --   -0.13110   0.04710
 Alpha virt. eigenvalues --    0.07050   0.07537   0.08356   0.08618   0.09942
 Alpha virt. eigenvalues --    0.10106   0.10665   0.10928   0.11549   0.12881
 Alpha virt. eigenvalues --    0.13333   0.13760   0.13896   0.14211   0.15227

  Beta  occ. eigenvalues --  -19.00845 -18.99061 -10.12453 -10.10448 -10.06455
  Beta  occ. eigenvalues --  -10.06290 -10.06178 -10.05268 -10.05214 -10.04360
  Beta  occ. eigenvalues --   -0.92064  -0.90862  -0.69862  -0.66057  -0.63996
  Beta  occ. eigenvalues --   -0.57276  -0.52769  -0.51166  -0.45457  -0.45049
  Beta  occ. eigenvalues --   -0.40811  -0.36644  -0.35835  -0.35615  -0.33769
  Beta  occ. eigenvalues --   -0.31438  -0.30861  -0.30554  -0.29766  -0.28657
  Beta  occ. eigenvalues --   -0.27571  -0.26089  -0.25393  -0.24676  -0.24335
  Beta  occ. eigenvalues --   -0.22252  -0.22029  -0.21258  -0.21158  -0.16944
  Beta  occ. eigenvalues --   -0.12966
  Beta virt. eigenvalues --    0.07004   0.08231   0.08553   0.08781   0.09407
  Beta virt. eigenvalues --    0.10398   0.10456   0.11016   0.11089   0.11970
  Beta virt. eigenvalues --    0.13202   0.13377   0.13918   0.14087   0.14516

 Mulliken charges and spin densities:
               1          2
     1  C   -0.512919  -0.086402
     2  C    0.074062  -0.151271
     3  C    0.058202  -0.366111
     4  C   -0.558698   0.472877
     5  C    0.603536  -1.177851
     6  C   -0.421834   0.475836
     7  C    1.466554  -1.850682
     8  O   -0.321233   0.067191
     9  C   -0.201143   0.032791
    10  O   -0.281547   0.051208
    11  H    0.257020  -0.082077
    12  H    0.080036   0.052460
    13  H    0.111431   0.011212
    14  H    0.067643   0.052056
    15  H    0.109493   0.037932
    16  H   -0.002038   0.114799
    17  H    0.023771   0.094280
    18  H   -0.316157   0.474410
    19  H    0.250565  -0.104545
    20  H   -0.026027   0.143961
    21  H   -0.473821   0.630946
    22  H    0.041814   0.079979
    23  H    0.082211   0.036529
    24  H    0.087652   0.103113
    25  H   -0.520690   0.665473
    26  H   -0.417003   0.564911
    27  H   -0.296014   0.583058
    28  H    0.035135   0.073920
 Sum of Mulliken charges =  -1.00000   1.00000

 Dipole moment (field-independent basis, Debye):
    X=             -2.9101    Y=             -5.6041    Z=             -1.4830  Tot=              6.4864
 Quadrupole moment (field-independent basis, Debye-Ang):
   XX=           -121.6813   YY=           -114.9895   ZZ=            -88.6044
   XY=              7.7464   XZ=             -1.6823   YZ=             -6.5139

 Summary of Natural Population Analysis:

                                       Natural Population
                Natural  -----------------------------------------------
    Atom  No    Charge         Core      Valence    Rydberg      Total
 -----------------------------------------------------------------------
      C    1   -0.29484      0.99966     2.29039    0.00479     3.29484
      C    2   -0.19092      0.99964     2.18430    0.00698     3.19092
      C    3   -0.18568      0.99963     2.17893    0.00712     3.18568
      C    4   -0.19552      0.99964     2.18687    0.00901     3.19552
      C    5   -0.28495      0.99966     2.27872    0.00657     3.28495
      C    6   -0.25540      0.99961     2.24569    0.01009     3.25540
      C    7   -0.00845      0.99961     1.99468    0.01416     3.00845
      O    8   -0.37853      0.99989     3.36983    0.00881     4.37853
      C    9    0.24450      0.99974     1.73449    0.02127     2.75550
      O   10   -0.27115      0.99988     3.26472    0.00655     4.27115
      H   11    0.11112      0.00000     0.38730    0.00158     0.38888
      H   12    0.09834      0.00000     0.40084    0.00082     0.40166
      H   13    0.09079      0.00000     0.40824    0.00097     0.40921
      H   14    0.09361      0.00000     0.40500    0.00139     0.40639
      H   15    0.09022      0.00000     0.40870    0.00108     0.40978
      H   16    0.09145      0.00000     0.40738    0.00116     0.40855
      H   17    0.09102      0.00000     0.40781    0.00117     0.40898
      H   18    0.09179      0.00000     0.40713    0.00108     0.40821
      H   19    0.10292      0.00000     0.39559    0.00149     0.39708
      H   20    0.08975      0.00000     0.40920    0.00104     0.41025
      H   21    0.10449      0.00000     0.39377    0.00174     0.39551
      H   22    0.09543      0.00000     0.40302    0.00155     0.40457
      H   23    0.11182      0.00000     0.38612    0.00206     0.38818
      H   24    0.10580      0.00000     0.39323    0.00097     0.39420
      H   25    0.07876      0.00000     0.41863    0.00262     0.42124
      H   26    0.08300      0.00000     0.41431    0.00269     0.41700
      H   27    0.23982      0.00000     0.24641    0.01377     0.26018
      H   28    0.05079      0.00000     0.44689    0.00232     0.44921
 =======================================================================
   * Total *    0.00000      9.99696    30.86820    0.13484    41.00000

 Normal termination of Gaussian 16 at Tue Dec  8 13:36:15 2020.
