 Gaussian 16, Revision A.03,

 -----------------------------------------------------------
 # opt freq B3LYP/6-31G(d) empiricaldispersion=gd3bj scf=xqc
 -----------------------------------------------------------

 -------------------------------
 CID_123342440_JID_3626_neutraal
 -------------------------------
 Symbolic Z-matrix:
 Charge =  0 Multiplicity = 1

 SCF Done:  E(RB3LYP) =  -630.030071589     A.U. after   15 cycles
 SCF Done:  E(RB3LYP) =  -630.034547910     A.U. after   12 cycles
 SCF Done:  E(RB3LYP) =  -630.034310539     A.U. after   12 cycles
 SCF Done:  E(RB3LYP) =  -630.035162675     A.U. after   12 cycles
 SCF Done:  E(RB3LYP) =  -630.035505142     A.U. after   12 cycles
 SCF Done:  E(RB3LYP) =  -630.035774355     A.U. after   12 cycles
 SCF Done:  E(RB3LYP) =  -630.035891934     A.U. after   13 cycles
 SCF Done:  E(RB3LYP) =  -630.035954620     A.U. after   12 cycles
 SCF Done:  E(RB3LYP) =  -630.036113549     A.U. after   12 cycles
 SCF Done:  E(RB3LYP) =  -630.036210456     A.U. after   12 cycles
 SCF Done:  E(RB3LYP) =  -630.036284436     A.U. after   11 cycles
 SCF Done:  E(RB3LYP) =  -630.036287192     A.U. after   11 cycles
 SCF Done:  E(RB3LYP) =  -630.036287607     A.U. after   10 cycles
 SCF Done:  E(RB3LYP) =  -630.036287717     A.U. after    7 cycles
 Optimization completed.
    -- Stationary point found.
 Normal termination of Gaussian 16 at Wed Dec  9 23:51:40 2020.

 --------------------------------------------------------------------
 #N Geom=AllCheck Guess=TCheck SCRF=Check GenChk RB3LYP/6-31G(d) Freq
 --------------------------------------------------------------------

 Structure from the checkpoint file:  "JID_3626.chk"
 -------------------------------
 CID_123342440_JID_3626_neutraal
 -------------------------------
 Charge =  0 Multiplicity = 1

 SCF Done:  E(RB3LYP) =  -630.036287717     A.U. after    1 cycles

  Exact polarizability: 117.835  -1.303 110.092  20.701   3.930  79.903
 Approx polarizability: 154.549  -5.631 191.454  39.505  15.163 125.025

                      1                      2                      3
                      A                      A                      A
 Frequencies --     17.6601                26.5380                41.0770
 Red. masses --      3.8951                 4.6160                 5.9272
 Frc consts  --      0.0007                 0.0019                 0.0059
 IR Inten    --      1.5925                 0.8540                 0.0979

                      4                      5                      6
                      A                      A                      A
 Frequencies --     79.7565               160.6932               180.7878
 Red. masses --      6.2332                 5.7719                 4.2350
 Frc consts  --      0.0234                 0.0878                 0.0816
 IR Inten    --      1.7445                 0.7947                 2.0573

                      7                      8                      9
                      A                      A                      A
 Frequencies --    256.3247               290.5000               322.1278
 Red. masses --      5.3187                 1.3316                 2.1329
 Frc consts  --      0.2059                 0.0662                 0.1304
 IR Inten    --      3.1075                24.4193                29.6593

                     10                     11                     12
                      A                      A                      A
 Frequencies --    337.7713               373.6767               404.7522
 Red. masses --      3.3153                 1.9750                 2.2896
 Frc consts  --      0.2229                 0.1625                 0.2210
 IR Inten    --      4.8374                35.4342                68.3304

                     13                     14                     15
                      A                      A                      A
 Frequencies --    417.1639               488.3541               495.6555
 Red. masses --      2.9797                 4.7292                 3.7327
 Frc consts  --      0.3055                 0.6645                 0.5403
 IR Inten    --      0.0517                23.7270                 8.8476

                     16                     17                     18
                      A                      A                      A
 Frequencies --    547.2250               594.4224               637.4821
 Red. masses --      3.9603                 3.4895                 6.2252
 Frc consts  --      0.6987                 0.7264                 1.4905
 IR Inten    --     19.5664                53.3224                 1.4418

                     19                     20                     21
                      A                      A                      A
 Frequencies --    644.6634               714.4976               772.8288
 Red. masses --      4.1314                 1.7462                 2.3231
 Frc consts  --      1.0116                 0.5252                 0.8175
 IR Inten    --     17.0540                30.6603                23.1491

                     22                     23                     24
                      A                      A                      A
 Frequencies --    787.1824               841.5380               846.3320
 Red. masses --      3.5034                 3.5398                 3.1513
 Frc consts  --      1.2791                 1.4770                 1.3299
 IR Inten    --     48.2632                 2.4629                47.2258

                     25                     26                     27
                      A                      A                      A
 Frequencies --    863.6780               912.0732               936.8463
 Red. masses --      1.2492                 1.5856                 1.5109
 Frc consts  --      0.5490                 0.7771                 0.7813
 IR Inten    --      0.1579                95.3840                16.9012

                     28                     29                     30
                      A                      A                      A
 Frequencies --    973.4861               974.1220              1001.1042
 Red. masses --      1.3605                 5.4829                 1.2752
 Frc consts  --      0.7596                 3.0654                 0.7530
 IR Inten    --      0.3063                52.7329                 0.3509

                     31                     32                     33
                      A                      A                      A
 Frequencies --   1012.3365              1023.6005              1040.7586
 Red. masses --      2.0653                 6.0866                 3.5927
 Frc consts  --      1.2470                 3.7574                 2.2928
 IR Inten    --     18.8219                 1.3250                80.1155

                     34                     35                     36
                      A                      A                      A
 Frequencies --   1061.4167              1124.5679              1140.1268
 Red. masses --      2.2104                 1.5095                 2.3187
 Frc consts  --      1.4672                 1.1247                 1.7758
 IR Inten    --      1.3722                 2.7702                83.8381

                     37                     38                     39
                      A                      A                      A
 Frequencies --   1195.2892              1216.6839              1229.1280
 Red. masses --      1.0992                 1.1414                 1.4588
 Frc consts  --      0.9253                 0.9955                 1.2985
 IR Inten    --      0.0068                 4.6915               102.9531

                     40                     41                     42
                      A                      A                      A
 Frequencies --   1244.7546              1280.1902              1305.3072
 Red. masses --      2.9276                 1.5897                 1.8582
 Frc consts  --      2.6726                 1.5351                 1.8654
 IR Inten    --     12.7188               137.0455               205.8626

                     43                     44                     45
                      A                      A                      A
 Frequencies --   1325.4735              1367.6301              1375.7389
 Red. masses --      1.5496                 4.0572                 1.2930
 Frc consts  --      1.6040                 4.4710                 1.4418
 IR Inten    --      4.2299                 1.8936                 3.6732

                     46                     47                     48
                      A                      A                      A
 Frequencies --   1403.8023              1425.8949              1456.8404
 Red. masses --      1.4159                 1.5481                 1.3220
 Frc consts  --      1.6440                 1.8545                 1.6531
 IR Inten    --     13.3667                12.5891                75.4342

                     49                     50                     51
                      A                      A                      A
 Frequencies --   1506.5369              1518.6683              1549.8328
 Red. masses --      2.2013                 1.1265                 2.2332
 Frc consts  --      2.9437                 1.5307                 3.1604
 IR Inten    --      6.5160                 8.9507                 5.0013

                     52                     53                     54
                      A                      A                      A
 Frequencies --   1649.0140              1669.3288              1672.4565
 Red. masses --      5.5731                 5.5521                 1.1271
 Frc consts  --      8.9289                 9.1157                 1.8574
 IR Inten    --      0.7999                 0.4303                86.4303

                     55                     56                     57
                      A                      A                      A
 Frequencies --   1804.4653              2998.0560              3107.8611
 Red. masses --      9.3738                 1.0823                 1.0574
 Frc consts  --     17.9831                 5.7317                 6.0174
 IR Inten    --    135.6157                54.6779                25.7848

                     58                     59                     60
                      A                      A                      A
 Frequencies --   3164.6872              3179.8341              3188.2092
 Red. masses --      1.1105                 1.0865                 1.0878
 Frc consts  --      6.5526                 6.4726                 6.5144
 IR Inten    --      5.2995                 5.3510                 3.0312

                     61                     62                     63
                      A                      A                      A
 Frequencies --   3199.1065              3209.9370              3222.2381
 Red. masses --      1.0919                 1.0961                 1.0943
 Frc consts  --      6.5841                 6.6544                 6.6945
 IR Inten    --     27.7089                24.4670                 4.1811

                     64                     65                     66
                      A                      A                      A
 Frequencies --   3492.5550              3584.6292              3712.2820
 Red. masses --      1.0490                 1.0940                 1.0648
 Frc consts  --      7.5389                 8.2825                 8.6456
 IR Inten    --      2.7955                 5.0381                16.8730

 - Thermochemistry -
 -------------------
 Temperature   298.150 Kelvin.  Pressure   1.00000 Atm.
 Atom     1 has atomic number  6 and mass  12.00000

 Molecular mass:   181.07389 amu.
 Principal axes and moments of inertia in atomic units:
                           1         2         3
     Eigenvalues --  1183.998834215.737894364.93194
           X            0.99998   0.00642   0.00087
           Y           -0.00635   0.99789  -0.06462
           Z           -0.00129   0.06461   0.99791
 This molecule is an asymmetric top.
 Rotational symmetry number  1.
 Warning -- assumption of classical behavior for rotation
           may cause significant error
 Rotational temperatures (Kelvin)      0.07315     0.02055     0.01984
 Rotational constants (GHZ):           1.52428     0.42810     0.41346
 Zero-point vibrational energy     511999.1 (Joules/Mol)
                                  122.37071 (Kcal/Mol)
 Warning -- explicit consideration of  17 degrees of freedom as
           vibrations may cause significant error
 Vibrational temperatures:     25.41    38.18    59.10   114.75   231.20
          (Kelvin)            260.11   368.79   417.96   463.47   485.98
                              537.64   582.35   600.21   702.63   713.14
                              787.33   855.24   917.19   927.53  1028.00
                             1111.93  1132.58  1210.79  1217.68  1242.64
                             1312.27  1347.91  1400.63  1401.54  1440.37
                             1456.53  1472.73  1497.42  1527.14  1618.00
                             1640.39  1719.75  1750.54  1768.44  1790.92
                             1841.91  1878.05  1907.06  1967.71  1979.38
                             2019.76  2051.54  2096.07  2167.57  2185.02
                             2229.86  2372.56  2401.79  2406.29  2596.22
                             4313.53  4471.52  4553.28  4575.07  4587.12
                             4602.80  4618.38  4636.08  5025.01  5157.48
                             5341.15

 Zero-point correction=                           0.195010 (Hartree/Particle)
 Thermal correction to Energy=                    0.207195
 Thermal correction to Enthalpy=                  0.208139
 Thermal correction to Gibbs Free Energy=         0.153879
 Sum of electronic and zero-point Energies=           -629.841278
 Sum of electronic and thermal Energies=              -629.829093
 Sum of electronic and thermal Enthalpies=            -629.828149
 Sum of electronic and thermal Free Energies=         -629.882409

                     E (Thermal)             CV                S
                      KCal/Mol        Cal/Mol-Kelvin    Cal/Mol-Kelvin
 Total                  130.017             45.309            114.200
 Electronic               0.000              0.000              0.000
 Translational            0.889              2.981             41.488
 Rotational               0.889              2.981             31.455
 Vibrational            128.239             39.347             41.257
 Vibration     1          0.593              1.986              6.881
 Vibration     2          0.593              1.984              6.073
 Vibration     3          0.594              1.981              5.206
 Vibration     4          0.600              1.963              3.897
 Vibration     5          0.622              1.891              2.542
 Vibration     6          0.630              1.866              2.320
 Vibration     7          0.666              1.752              1.687
 Vibration     8          0.686              1.691              1.471
 Vibration     9          0.707              1.631              1.299
 Vibration    10          0.718              1.600              1.223
 Vibration    11          0.745              1.526              1.065
 Vibration    12          0.770              1.460              0.945
 Vibration    13          0.780              1.433              0.902
 Vibration    14          0.844              1.276              0.688
 Vibration    15          0.851              1.260              0.669
 Vibration    16          0.902              1.146              0.550
 Vibration    17          0.952              1.044              0.459

 Optimization completed.
    -- Stationary point found.
 Normal termination of Gaussian 16 at Wed Dec  9 23:56:52 2020.

 ----------------------------------------------------------------------
 # B3LYP/6-311++G(d,p) empiricaldispersion=gd3bj scf=xqc pop=npa geom=c
 heck
 ----------------------------------------------------------------------

 ---------------------------------------
 CID_123342440_JID_3626_Energie_neutraal
 ---------------------------------------
 Structure from the checkpoint file:  "JID_3626.chk"
 Charge =  0 Multiplicity = 1

 SCF Done:  E(RB3LYP) =  -630.233288109     A.U. after   14 cycles
 Normal termination of Gaussian 16 at Wed Dec  9 23:58:39 2020.

 ----------------------------------------------------------------------
 # B3LYP/6-311++G(d,p) empiricaldispersion=gd3bj scf=xqc pop=npa geom=c
 heck
 ----------------------------------------------------------------------

 -------------------------------------
 CID_123342440_JID_3626_Energie_kation
 -------------------------------------
 Structure from the checkpoint file:  "JID_3626.chk"
 Charge =  1 Multiplicity = 2

 SCF Done:  E(UB3LYP) =  -629.910602041     A.U. after   33 cycles
 SCF Done:  E(UB3LYP) =  -629.910602045     a.u. after    2 cycles
 Normal termination of Gaussian 16 at Thu Dec 10 00:08:48 2020.
 Gaussian 16:  ES64L-G16RevA.03 25-Dec-2016

 ----------------------------------------------------------------------
 # B3LYP/6-311++G(d,p) empiricaldispersion=gd3bj scf=xqc pop=npa geom=c
 heck
 ----------------------------------------------------------------------

 ------------------------------------
 CID_123342440_JID_3626_Energie_anion
 ------------------------------------
 Structure from the checkpoint file:  "JID_3626.chk"
 Charge = -1 Multiplicity = 2

                         Standard orientation:
 ---------------------------------------------------------------------
 Center     Atomic      Atomic             Coordinates (Angstroms)
 Number     Number       Type             X           Y           Z
 ---------------------------------------------------------------------
      1          6           0        3.537689   -0.601362    0.917506
      2          6           0        3.256683    0.765696    0.937760
      3          6           0        2.195461    1.268385    0.186143
      4          6           0        1.406401    0.413068   -0.590954
      5          6           0        1.692966   -0.957666   -0.605428
      6          6           0        2.754469   -1.461106    0.145232
      7          6           0        0.247712    0.962310   -1.377592
      8          8           0       -0.968823    0.989597   -0.572041
      9          6           0       -1.714213   -0.118889   -0.588087
     10          8           0       -1.473504   -1.119267   -1.236292
     11          6           0       -2.961469   -0.008120    0.308921
     12          7           0       -2.978676   -1.207504    1.128663
     13          8           0       -3.006018    1.142872    1.106726
     14          1           0        4.365657   -0.995099    1.500402
     15          1           0        3.864716    1.439116    1.535191
     16          1           0        1.976048    2.333302    0.199854
     17          1           0        1.070551   -1.621943   -1.195926
     18          1           0        2.971088   -2.525478    0.126894
     19          1           0        0.405928    2.008485   -1.644127
     20          1           0        0.052543    0.374108   -2.275690
     21          1           0       -3.821730    0.095921   -0.372385
     22          1           0       -3.911523   -1.357099    1.505610
     23          1           0       -2.726231   -2.013350    0.560313
     24          1           0       -2.303742    1.035056    1.771062
 ---------------------------------------------------------------------

 SCF Done:  E(UB3LYP) =  -630.219619122     A.U. after   33 cycles
 SCF Done:  E(UB3LYP) =  -630.219619122     a.u. after    1 cycles

 The electronic state is 2-A.
 Alpha  occ. eigenvalues --  -19.07461 -19.02897 -19.01786 -14.20280 -10.20298
 Alpha  occ. eigenvalues --  -10.16182 -10.13594 -10.08428 -10.07873 -10.07867
 Alpha  occ. eigenvalues --  -10.07804 -10.07706 -10.07694  -1.01603  -0.94233
 Alpha  occ. eigenvalues --   -0.92840  -0.78384  -0.76397  -0.68601  -0.65167
 Alpha  occ. eigenvalues --   -0.62362  -0.57551  -0.51447  -0.50651  -0.47242
 Alpha  occ. eigenvalues --   -0.45366  -0.42336  -0.40969  -0.38768  -0.38274
 Alpha  occ. eigenvalues --   -0.37638  -0.36421  -0.34817  -0.34234  -0.32727
 Alpha  occ. eigenvalues --   -0.31388  -0.30197  -0.27856  -0.26937  -0.26025
 Alpha  occ. eigenvalues --   -0.25667  -0.24549  -0.22555  -0.21275  -0.18335
 Alpha  occ. eigenvalues --   -0.16150  -0.16050  -0.15414   0.04466
 Alpha virt. eigenvalues --    0.05883   0.06817   0.07393   0.08028   0.08038
 Alpha virt. eigenvalues --    0.08816   0.09485   0.09725   0.10242   0.10617
 Alpha virt. eigenvalues --    0.11693   0.12523   0.13402   0.14170   0.15364

  Beta  occ. eigenvalues --  -19.07418 -19.02883 -19.01766 -14.20233 -10.20267
  Beta  occ. eigenvalues --  -10.16162 -10.13580 -10.08378 -10.07854 -10.07848
  Beta  occ. eigenvalues --  -10.07788 -10.07696 -10.07635  -1.01536  -0.94199
  Beta  occ. eigenvalues --   -0.92787  -0.78312  -0.76320  -0.68505  -0.65107
  Beta  occ. eigenvalues --   -0.62271  -0.57455  -0.51390  -0.50562  -0.47169
  Beta  occ. eigenvalues --   -0.45308  -0.42258  -0.40891  -0.38698  -0.38191
  Beta  occ. eigenvalues --   -0.37573  -0.36353  -0.34756  -0.34160  -0.32690
  Beta  occ. eigenvalues --   -0.31325  -0.30102  -0.27788  -0.26824  -0.25955
  Beta  occ. eigenvalues --   -0.25621  -0.24509  -0.22529  -0.21151  -0.18281
  Beta  occ. eigenvalues --   -0.15974  -0.15902  -0.15295
  Beta virt. eigenvalues --    0.06709   0.07144   0.07283   0.07937   0.08109
  Beta virt. eigenvalues --    0.08444   0.09356   0.09930   0.10208   0.10620
  Beta virt. eigenvalues --    0.10819   0.12134   0.12979   0.13541   0.14237

 Mulliken charges and spin densities:
               1          2
     1  C    1.196422  -1.499014
     2  C    0.539921  -0.784107
     3  C    0.055873  -0.229472
     4  C   -0.435715   1.325755
     5  C   -1.447786   1.309816
     6  C    0.020084  -0.336100
     7  C    0.853995  -1.598839
     8  O    0.034405   0.019058
     9  C   -0.304602   0.317058
    10  O   -0.305774   0.028452
    11  C    1.560897  -1.984293
    12  N   -0.502360   0.213775
    13  O   -0.255411   0.016560
    14  H   -0.342373   0.483736
    15  H   -0.716371   0.895267
    16  H   -0.182220   0.340504
    17  H    0.105322   0.095348
    18  H   -0.109916   0.275743
    19  H   -0.337325   0.518258
    20  H    0.074320   0.106464
    21  H   -0.497111   0.723754
    22  H   -0.267343   0.510723
    23  H    0.134602   0.105179
    24  H    0.128466   0.146376
 Sum of Mulliken charges =  -1.00000   1.00000

 Dipole moment (field-independent basis, Debye):
    X=              1.1430    Y=             -0.5886    Z=             -2.5981  Tot=              2.8988
 Quadrupole moment (field-independent basis, Debye-Ang):
   XX=           -161.9029   YY=           -110.0895   ZZ=           -106.2932
   XY=             -6.5386   XZ=             -4.3151   YZ=              0.9649

 Summary of Natural Population Analysis:

                                       Natural Population
                Natural  -----------------------------------------------
    Atom  No    Charge         Core      Valence    Rydberg      Total
 -----------------------------------------------------------------------
      C    1   -0.09099      0.99956     2.08085    0.01058     3.09099
      C    2   -0.10185      0.99956     2.09177    0.01052     3.10185
      C    3   -0.08969      0.99952     2.07985    0.01032     3.08969
      C    4   -0.03588      0.99950     2.02609    0.01030     3.03588
      C    5   -0.09217      0.99951     2.08379    0.00886     3.09217
      C    6   -0.10084      0.99956     2.09174    0.00954     3.10084
      C    7   -0.02337      0.99950     2.01177    0.01211     3.02337
      O    8   -0.26578      0.99986     3.25691    0.00901     4.26578
      C    9    0.40253      0.99968     1.57130    0.02649     2.59747
      O   10   -0.31713      0.99987     3.31117    0.00608     4.31713
      C   11    0.10885      0.99963     1.87325    0.01827     2.89115
      N   12   -0.42981      0.99976     2.91962    0.01042     3.92981
      O   13   -0.36123      0.99989     3.35452    0.00681     4.36123
      H   14    0.10062      0.00000     0.39806    0.00133     0.39938
      H   15    0.10240      0.00000     0.39584    0.00176     0.39760
      H   16    0.10142      0.00000     0.39727    0.00131     0.39858
      H   17    0.10936      0.00000     0.38949    0.00115     0.39064
      H   18    0.09932      0.00000     0.39984    0.00083     0.40068
      H   19    0.09685      0.00000     0.40179    0.00137     0.40315
      H   20    0.10013      0.00000     0.39848    0.00138     0.39987
      H   21    0.08635      0.00000     0.41009    0.00356     0.41365
      H   22    0.18234      0.00000     0.31338    0.00428     0.31766
      H   23    0.18776      0.00000     0.31020    0.00203     0.31224
      H   24    0.23080      0.00000     0.26564    0.00356     0.26920
 =======================================================================
   * Total *   -0.00000     12.99541    34.83271    0.17188    48.00000

 Normal termination of Gaussian 16 at Thu Dec 10 00:14:13 2020.
