 Gaussian 16, Revision A.03,

 -----------------------------------------------------------
 # opt freq B3LYP/6-31G(d) empiricaldispersion=gd3bj scf=xqc
 -----------------------------------------------------------

 -------------------------------
 CID_116907346_JID_5289_neutraal
 -------------------------------
 Symbolic Z-matrix:
 Charge =  0 Multiplicity = 1

 SCF Done:  E(RB3LYP) =  -632.961510588     A.U. after   14 cycles
 SCF Done:  E(RB3LYP) =  -632.979257543     A.U. after   12 cycles
 SCF Done:  E(RB3LYP) =  -632.981765013     A.U. after   12 cycles
 SCF Done:  E(RB3LYP) =  -632.982156121     A.U. after   12 cycles
 SCF Done:  E(RB3LYP) =  -632.982106048     A.U. after   12 cycles
 SCF Done:  E(RB3LYP) =  -632.982302489     A.U. after   11 cycles
 SCF Done:  E(RB3LYP) =  -632.982391343     A.U. after   11 cycles
 SCF Done:  E(RB3LYP) =  -632.982407334     A.U. after   10 cycles
 SCF Done:  E(RB3LYP) =  -632.982409619     A.U. after    9 cycles
 SCF Done:  E(RB3LYP) =  -632.982410081     A.U. after    8 cycles
 SCF Done:  E(RB3LYP) =  -632.982410178     A.U. after    7 cycles
 Optimization completed.
    -- Stationary point found.
 Normal termination of Gaussian 16 at Thu Dec 10 15:22:31 2020.

 --------------------------------------------------------------------
 #N Geom=AllCheck Guess=TCheck SCRF=Check GenChk RB3LYP/6-31G(d) Freq
 --------------------------------------------------------------------

 Structure from the checkpoint file:  "JID_5289.chk"
 -------------------------------
 CID_116907346_JID_5289_neutraal
 -------------------------------
 Charge =  0 Multiplicity = 1

 SCF Done:  E(RB3LYP) =  -632.982410178     A.U. after    1 cycles

  Exact polarizability: 163.894   7.991 136.713   4.674 -14.613 115.936
 Approx polarizability: 223.879  16.706 196.720  11.047 -35.102 193.343

                      1                      2                      3
                      A                      A                      A
 Frequencies --     29.7781                68.8681                79.0326
 Red. masses --      3.7733                 3.3982                 3.1101
 Frc consts  --      0.0020                 0.0095                 0.0114
 IR Inten    --      0.5972                 1.4050                 0.2578

                      4                      5                      6
                      A                      A                      A
 Frequencies --     81.9491               105.5707               145.9790
 Red. masses --      3.6486                 2.7913                 3.2323
 Frc consts  --      0.0144                 0.0183                 0.0406
 IR Inten    --      0.1088                 0.9902                 1.0765

                      7                      8                      9
                      A                      A                      A
 Frequencies --    172.9628               253.3973               257.1303
 Red. masses --      3.5165                 2.1594                 1.4797
 Frc consts  --      0.0620                 0.0817                 0.0576
 IR Inten    --      0.1521                 0.4720                 1.7245

                     10                     11                     12
                      A                      A                      A
 Frequencies --    276.2171               282.5253               284.1588
 Red. masses --      1.5057                 1.6948                 1.4478
 Frc consts  --      0.0677                 0.0797                 0.0689
 IR Inten    --      1.8426                 5.7072                22.1432

                     13                     14                     15
                      A                      A                      A
 Frequencies --    290.9706               352.7816               368.9046
 Red. masses --      2.1049                 3.2254                 2.9442
 Frc consts  --      0.1050                 0.2365                 0.2361
 IR Inten    --     17.0002                 2.2839                19.8931

                     16                     17                     18
                      A                      A                      A
 Frequencies --    391.9164               404.3468               418.8306
 Red. masses --      2.6190                 2.7941                 2.6955
 Frc consts  --      0.2370                 0.2692                 0.2786
 IR Inten    --      0.7308                 7.4210                 1.8451

                     19                     20                     21
                      A                      A                      A
 Frequencies --    463.7325               486.8452               555.1896
 Red. masses --      1.7656                 3.4080                 3.2860
 Frc consts  --      0.2237                 0.4759                 0.5968
 IR Inten    --      2.9277                 2.3384                10.2521

                     22                     23                     24
                      A                      A                      A
 Frequencies --    636.4500               669.0274               688.5181
 Red. masses --      4.2519                 3.6481                 6.6609
 Frc consts  --      1.0148                 0.9621                 1.8604
 IR Inten    --     22.1609                 1.4765                 0.2805

                     25                     26                     27
                      A                      A                      A
 Frequencies --    756.9343               796.5699               817.9499
 Red. masses --      4.2785                 1.6951                 1.2750
 Frc consts  --      1.4443                 0.6337                 0.5026
 IR Inten    --      1.8185                17.7454                20.7797

                     28                     29                     30
                      A                      A                      A
 Frequencies --    836.2519               874.5619               879.4473
 Red. masses --      1.8889                 1.5158                 3.2635
 Frc consts  --      0.7783                 0.6831                 1.4872
 IR Inten    --      4.9542               164.8684                 5.3558

                     31                     32                     33
                      A                      A                      A
 Frequencies --    891.8624               894.9633               948.8738
 Red. masses --      1.2556                 3.3356                 1.9199
 Frc consts  --      0.5884                 1.5741                 1.0185
 IR Inten    --      0.0822                10.5932                21.0750

                     34                     35                     36
                      A                      A                      A
 Frequencies --    962.9424               977.9109               990.5236
 Red. masses --      2.9642                 1.3132                 1.4544
 Frc consts  --      1.6194                 0.7399                 0.8408
 IR Inten    --      1.6469                 1.3811                 0.6506

                     37                     38                     39
                      A                      A                      A
 Frequencies --   1018.0151              1030.7697              1039.4784
 Red. masses --      6.8797                 1.5116                 2.2406
 Frc consts  --      4.2007                 0.9462                 1.4264
 IR Inten    --      9.7758                11.3267                33.7495

                     40                     41                     42
                      A                      A                      A
 Frequencies --   1071.3054              1086.1428              1089.3583
 Red. masses --      1.9719                 1.5568                 2.1772
 Frc consts  --      1.3334                 1.0821                 1.5222
 IR Inten    --     33.4878                 9.3824                 7.0006

                     43                     44                     45
                      A                      A                      A
 Frequencies --   1097.3005              1105.4794              1125.2820
 Red. masses --      2.4359                 1.9140                 1.5432
 Frc consts  --      1.7280                 1.3781                 1.1513
 IR Inten    --     22.7619                 3.3469                 3.3478

                     46                     47                     48
                      A                      A                      A
 Frequencies --   1135.6662              1162.6541              1174.8427
 Red. masses --      1.2458                 1.6417                 2.1839
 Frc consts  --      0.9467                 1.3075                 1.7760
 IR Inten    --      8.1876                 4.6855                21.4125

                     49                     50                     51
                      A                      A                      A
 Frequencies --   1195.3526              1224.9619              1236.0134
 Red. masses --      1.4731                 2.0993                 1.8821
 Frc consts  --      1.2401                 1.8559                 1.6941
 IR Inten    --      3.4291                11.3832                 5.6856

                     52                     53                     54
                      A                      A                      A
 Frequencies --   1242.5746              1259.5085              1273.4887
 Red. masses --      1.8501                 1.3023                 1.2498
 Frc consts  --      1.6830                 1.2172                 1.1942
 IR Inten    --      5.2870                 2.5553                 5.4428

                     55                     56                     57
                      A                      A                      A
 Frequencies --   1285.4648              1295.0089              1312.8540
 Red. masses --      1.3199                 2.1912                 2.6380
 Frc consts  --      1.2851                 2.1651                 2.6789
 IR Inten    --      1.9959                 6.0233                 1.3315

                     58                     59                     60
                      A                      A                      A
 Frequencies --   1320.2534              1323.7797              1336.6387
 Red. masses --      1.5635                 2.2735                 1.6215
 Frc consts  --      1.6057                 2.3473                 1.7069
 IR Inten    --      1.5454                14.9866                20.3250

                     61                     62                     63
                      A                      A                      A
 Frequencies --   1368.6238              1390.7371              1412.7412
 Red. masses --      1.4316                 1.4714                 1.3593
 Frc consts  --      1.5799                 1.6767                 1.5984
 IR Inten    --      3.6092                11.7238                 2.4536

                     64                     65                     66
                      A                      A                      A
 Frequencies --   1448.0654              1459.9486              1469.6108
 Red. masses --      1.3801                 2.0042                 1.1516
 Frc consts  --      1.7050                 2.5170                 1.4654
 IR Inten    --     27.3024                23.0134                 1.5210

                     67                     68                     69
                      A                      A                      A
 Frequencies --   1496.7892              1501.1319              1509.0206
 Red. masses --      1.1539                 1.0915                 1.0583
 Frc consts  --      1.5231                 1.4491                 1.4199
 IR Inten    --      1.4753                 1.5503                11.5612

                     70                     71                     72
                      A                      A                      A
 Frequencies --   1524.4770              1528.4048              1538.3839
 Red. masses --      1.0822                 1.1197                 1.0558
 Frc consts  --      1.4819                 1.5412                 1.4721
 IR Inten    --     16.1695                 1.6262                 3.9941

                     73                     74                     75
                      A                      A                      A
 Frequencies --   1545.2710              1553.6932              1619.7614
 Red. masses --      2.1324                 1.0564                 6.9404
 Frc consts  --      3.0000                 1.5024                10.7284
 IR Inten    --      1.6864                 4.1203                14.7651

                     76                     77                     78
                      A                      A                      A
 Frequencies --   1657.1938              1696.5723              2953.9191
 Red. masses --      5.3790                 1.0946                 1.0607
 Frc consts  --      8.7036                 1.8564                 5.4528
 IR Inten    --     49.9902                28.4885                61.2186

                     79                     80                     81
                      A                      A                      A
 Frequencies --   2977.0801              3009.5793              3042.1816
 Red. masses --      1.0562                 1.0826                 1.0640
 Frc consts  --      5.5154                 5.7775                 5.8017
 IR Inten    --     95.0624                13.8860                28.9624

                     82                     83                     84
                      A                      A                      A
 Frequencies --   3053.9421              3065.2658              3066.3367
 Red. masses --      1.0686                 1.0830                 1.0791
 Frc consts  --      5.8719                 5.9956                 5.9781
 IR Inten    --     16.8358                34.6643                27.7149

                     85                     86                     87
                      A                      A                      A
 Frequencies --   3070.0183              3079.0615              3111.7416
 Red. masses --      1.0792                 1.0740                 1.1024
 Frc consts  --      5.9926                 5.9993                 6.2894
 IR Inten    --     36.9061                37.5541                40.2760

                     88                     89                     90
                      A                      A                      A
 Frequencies --   3113.7079              3122.8464              3132.7083
 Red. masses --      1.1019                 1.1032                 1.1008
 Frc consts  --      6.2941                 6.3386                 6.3648
 IR Inten    --     23.6272                52.9335                22.3610

                     91                     92                     93
                      A                      A                      A
 Frequencies --   3166.7686              3171.5366              3211.6418
 Red. masses --      1.0885                 1.0903                 1.0931
 Frc consts  --      6.4317                 6.4613                 6.6428
 IR Inten    --     36.4086                27.3913                11.4699

                     94                     95                     96
                      A                      A                      A
 Frequencies --   3228.5674              3456.5087              3542.5570
 Red. masses --      1.0913                 1.0493                 1.0923
 Frc consts  --      6.7023                 7.3862                 8.0769
 IR Inten    --     12.0830                 1.9161                 0.8674

 - Thermochemistry -
 -------------------
 Temperature   298.150 Kelvin.  Pressure   1.00000 Atm.
 Atom     1 has atomic number  6 and mass  12.00000

 Molecular mass:   205.15790 amu.
 Principal axes and moments of inertia in atomic units:
                           1         2         3
     Eigenvalues --  2046.373964586.654695874.62775
           X            0.99993  -0.01184  -0.00275
           Y            0.01184   0.99993  -0.00072
           Z            0.00276   0.00069   1.00000
 This molecule is an asymmetric top.
 Rotational symmetry number  1.
 Warning -- assumption of classical behavior for rotation
           may cause significant error
 Rotational temperatures (Kelvin)      0.04233     0.01888     0.01474
 Rotational constants (GHZ):           0.88192     0.39348     0.30721
 Zero-point vibrational energy     790327.6 (Joules/Mol)
                                  188.89284 (Kcal/Mol)
 Warning -- explicit consideration of  21 degrees of freedom as
           vibrations may cause significant error
 Vibrational temperatures:     42.84    99.09   113.71   117.91   151.89
          (Kelvin)            210.03   248.85   364.58   369.95   397.41
                              406.49   408.84   418.64   507.57   530.77
                              563.88   581.76   602.60   667.21   700.46
                              798.79   915.71   962.58   990.62  1089.06
                             1146.09  1176.85  1203.18  1258.30  1265.33
                             1283.19  1287.65  1365.22  1385.46  1407.00
                             1425.14  1464.70  1483.05  1495.58  1541.37
                             1562.72  1567.34  1578.77  1590.54  1619.03
                             1633.97  1672.80  1690.34  1719.85  1762.45
                             1778.35  1787.79  1812.15  1832.27  1849.50
                             1863.23  1888.90  1899.55  1904.62  1923.13
                             1969.14  2000.96  2032.62  2083.44  2100.54
                             2114.44  2153.55  2159.79  2171.14  2193.38
                             2199.03  2213.39  2223.30  2235.42  2330.48
                             2384.33  2440.99  4250.03  4283.35  4330.11
                             4377.02  4393.94  4410.23  4411.77  4417.07
                             4430.08  4477.10  4479.93  4493.08  4507.27
                             4556.27  4563.13  4620.84  4645.19  4973.15
                             5096.95

 Zero-point correction=                           0.301020 (Hartree/Particle)
 Thermal correction to Energy=                    0.315696
 Thermal correction to Enthalpy=                  0.316640
 Thermal correction to Gibbs Free Energy=         0.259033
 Sum of electronic and zero-point Energies=           -632.681390
 Sum of electronic and thermal Energies=              -632.666714
 Sum of electronic and thermal Enthalpies=            -632.665770
 Sum of electronic and thermal Free Energies=         -632.723377

                     E (Thermal)             CV                S
                      KCal/Mol        Cal/Mol-Kelvin    Cal/Mol-Kelvin
 Total                  198.102             56.791            121.245
 Electronic               0.000              0.000              0.000
 Translational            0.889              2.981             41.860
 Rotational               0.889              2.981             32.378
 Vibrational            196.325             50.829             47.007
 Vibration     1          0.594              1.984              5.844
 Vibration     2          0.598              1.969              4.185
 Vibration     3          0.600              1.963              3.915
 Vibration     4          0.600              1.962              3.844
 Vibration     5          0.605              1.945              3.349
 Vibration     6          0.617              1.907              2.724
 Vibration     7          0.626              1.876              2.403
 Vibration     8          0.665              1.757              1.707
 Vibration     9          0.667              1.751              1.681
 Vibration    10          0.678              1.717              1.557
 Vibration    11          0.682              1.706              1.518
 Vibration    12          0.683              1.703              1.509
 Vibration    13          0.687              1.691              1.468
 Vibration    14          0.729              1.570              1.154
 Vibration    15          0.741              1.536              1.084
 Vibration    16          0.759              1.487              0.993
 Vibration    17          0.770              1.461              0.947
 Vibration    18          0.782              1.429              0.896
 Vibration    19          0.821              1.331              0.755
 Vibration    20          0.843              1.279              0.692
 Vibration    21          0.911              1.128              0.534

 Optimization completed.
    -- Stationary point found.
 Normal termination of Gaussian 16 at Thu Dec 10 15:35:22 2020.

 ----------------------------------------------------------------------
 # B3LYP/6-311++G(d,p) empiricaldispersion=gd3bj scf=xqc pop=npa geom=c
 heck
 ----------------------------------------------------------------------

 ---------------------------------------
 CID_116907346_JID_5289_Energie_neutraal
 ---------------------------------------
 Structure from the checkpoint file:  "JID_5289.chk"
 Charge =  0 Multiplicity = 1

 SCF Done:  E(RB3LYP) =  -633.158083496     A.U. after   15 cycles
 Normal termination of Gaussian 16 at Thu Dec 10 15:41:53 2020.

 ----------------------------------------------------------------------
 # B3LYP/6-311++G(d,p) empiricaldispersion=gd3bj scf=xqc pop=npa geom=c
 heck
 ----------------------------------------------------------------------

 -------------------------------------
 CID_116907346_JID_5289_Energie_kation
 -------------------------------------
 Structure from the checkpoint file:  "JID_5289.chk"
 Charge =  1 Multiplicity = 2

 SCF Done:  E(UB3LYP) =  -632.873094490     A.U. after   24 cycles
 Normal termination of Gaussian 16 at Thu Dec 10 15:56:22 2020.
 Gaussian 16:  ES64L-G16RevA.03 25-Dec-2016

 ----------------------------------------------------------------------
 # B3LYP/6-311++G(d,p) empiricaldispersion=gd3bj scf=xqc pop=npa geom=c
 heck
 ----------------------------------------------------------------------

 ------------------------------------
 CID_116907346_JID_5289_Energie_anion
 ------------------------------------
 Structure from the checkpoint file:  "JID_5289.chk"
 Charge = -1 Multiplicity = 2

                         Standard orientation:
 ---------------------------------------------------------------------
 Center     Atomic      Atomic             Coordinates (Angstroms)
 Number     Number       Type             X           Y           Z
 ---------------------------------------------------------------------
      1          6           0       -0.459210    2.297115    1.341827
      2          7           0       -0.133280    1.998899   -0.043308
      3          6           0        0.882896    2.896045   -0.567148
      4          6           0        0.078181    0.571157   -0.328433
      5          6           0        1.210630   -0.119116    0.441532
      6          6           0        2.677018    0.308209    0.151645
      7          6           0        3.097470   -1.173844    0.250442
      8          6           0        1.605236   -1.561184    0.015053
      9          7           0        4.172592   -1.607435   -0.621334
     10          6           0       -1.267504   -0.138549   -0.201675
     11          6           0       -2.317163    0.252870   -1.040998
     12          6           0       -3.553178   -0.375373   -0.931605
     13          7           0       -3.820686   -1.349335   -0.047988
     14          6           0       -2.820189   -1.710536    0.759919
     15          6           0       -1.542378   -1.145517    0.724463
     16          1           0       -0.816288    3.330682    1.411465
     17          1           0        0.398238    2.192633    2.032514
     18          1           0       -1.260871    1.637778    1.686374
     19          1           0        1.833476    2.884158   -0.005822
     20          1           0        1.099438    2.640986   -1.609914
     21          1           0        0.497609    3.922536   -0.542097
     22          1           0        0.351984    0.527042   -1.393042
     23          1           0        1.017228   -0.081524    1.519525
     24          1           0        3.158396    1.026948    0.820761
     25          1           0        2.786290    0.665897   -0.879792
     26          1           0        3.383781   -1.416114    1.280563
     27          1           0        1.407139   -1.716828   -1.054032
     28          1           0        1.190519   -2.408206    0.570174
     29          1           0        4.348223   -2.603815   -0.499283
     30          1           0        3.896027   -1.482497   -1.594806
     31          1           0       -2.165007    1.053654   -1.757925
     32          1           0       -4.375475   -0.084546   -1.583193
     33          1           0       -3.046158   -2.495717    1.479963
     34          1           0       -0.785791   -1.495633    1.416833
 ---------------------------------------------------------------------

 SCF Done:  E(UB3LYP) =  -633.148759886     A.U. after   33 cycles
 SCF Done:  E(UB3LYP) =  -633.148759886     a.u. after    1 cycles

 The electronic state is 2-A.
 Alpha  occ. eigenvalues --  -14.20516 -14.18971 -14.18850 -10.10006 -10.09348
 Alpha  occ. eigenvalues --  -10.09248 -10.08953 -10.08927 -10.08764 -10.07314
 Alpha  occ. eigenvalues --  -10.07080 -10.06675 -10.06200 -10.06059 -10.05870
 Alpha  occ. eigenvalues --   -0.83075  -0.82340  -0.79077  -0.72452  -0.69830
 Alpha  occ. eigenvalues --   -0.64753  -0.61704  -0.60955  -0.55841  -0.53796
 Alpha  occ. eigenvalues --   -0.51419  -0.51205  -0.46766  -0.45480  -0.40717
 Alpha  occ. eigenvalues --   -0.39631  -0.38737  -0.38296  -0.36391  -0.35982
 Alpha  occ. eigenvalues --   -0.34926  -0.34729  -0.33247  -0.31536  -0.29766
 Alpha  occ. eigenvalues --   -0.29062  -0.28484  -0.28305  -0.27834  -0.27324
 Alpha  occ. eigenvalues --   -0.26506  -0.25909  -0.24428  -0.22392  -0.21359
 Alpha  occ. eigenvalues --   -0.20981  -0.17151  -0.15498  -0.14760  -0.13641
 Alpha  occ. eigenvalues --   -0.11196   0.04440
 Alpha virt. eigenvalues --    0.06416   0.06810   0.07289   0.08190   0.09013
 Alpha virt. eigenvalues --    0.09115   0.09221   0.09438   0.10059   0.11163
 Alpha virt. eigenvalues --    0.11658   0.11755   0.12034   0.12594   0.13189

  Beta  occ. eigenvalues --  -14.20503 -14.18931 -14.18664 -10.10009 -10.09336
  Beta  occ. eigenvalues --  -10.09262 -10.08915 -10.08887 -10.08741 -10.07136
  Beta  occ. eigenvalues --  -10.07072 -10.06698 -10.06163 -10.06039 -10.05852
  Beta  occ. eigenvalues --   -0.82932  -0.82187  -0.79022  -0.72374  -0.69598
  Beta  occ. eigenvalues --   -0.64633  -0.61633  -0.60914  -0.55783  -0.53742
  Beta  occ. eigenvalues --   -0.51342  -0.50979  -0.46678  -0.45421  -0.40639
  Beta  occ. eigenvalues --   -0.39569  -0.38661  -0.38208  -0.36307  -0.35900
  Beta  occ. eigenvalues --   -0.34861  -0.34691  -0.33182  -0.31504  -0.29732
  Beta  occ. eigenvalues --   -0.28837  -0.28368  -0.28200  -0.27658  -0.27279
  Beta  occ. eigenvalues --   -0.26398  -0.25841  -0.24357  -0.22333  -0.21302
  Beta  occ. eigenvalues --   -0.20925  -0.16374  -0.15161  -0.14553  -0.13588
  Beta  occ. eigenvalues --   -0.11146
  Beta virt. eigenvalues --    0.06561   0.07418   0.07653   0.08189   0.08347
  Beta virt. eigenvalues --    0.09200   0.09242   0.09386   0.09824   0.10372
  Beta virt. eigenvalues --    0.11425   0.11854   0.12154   0.12249   0.12696

 Mulliken charges and spin densities:
               1          2
     1  C   -0.088342  -0.320101
     2  N    0.318452  -0.006037
     3  C    0.211448  -0.437134
     4  C    0.152465  -0.680779
     5  C   -0.867800   1.049210
     6  C    0.215642  -0.578199
     7  C    1.701029  -2.259996
     8  C   -0.653779   0.176345
     9  N   -0.451338   0.205295
    10  C    0.114168  -0.338915
    11  C    0.725214  -0.034645
    12  C   -0.454083  -0.245384
    13  N   -0.102254   0.081225
    14  C   -0.789174   0.050546
    15  C   -0.513176   0.798662
    16  H    0.108516   0.033635
    17  H   -0.054678   0.172856
    18  H    0.139842   0.000959
    19  H    0.059891   0.077870
    20  H   -0.221237   0.373764
    21  H   -0.080220   0.214641
    22  H   -0.331274   0.503958
    23  H    0.113252   0.059842
    24  H   -0.035832   0.162319
    25  H    0.065467   0.110890
    26  H   -0.110115   0.277960
    27  H    0.038416   0.114260
    28  H   -0.123494   0.243015
    29  H   -0.177821   0.410336
    30  H   -0.127944   0.353214
    31  H    0.013319   0.160929
    32  H    0.107502   0.034120
    33  H    0.081662   0.062630
    34  H    0.016277   0.172708
 Sum of Mulliken charges =  -1.00000   1.00000

 Dipole moment (field-independent basis, Debye):
    X=             -3.0711    Y=              3.2841    Z=              2.7252  Tot=              5.2577
 Quadrupole moment (field-independent basis, Debye-Ang):
   XX=           -173.0723   YY=           -132.8679   ZZ=           -120.1576
   XY=              1.2613   XZ=              4.3396   YZ=             -0.8346

 Summary of Natural Population Analysis:

                                       Natural Population
                Natural  -----------------------------------------------
    Atom  No    Charge         Core      Valence    Rydberg      Total
 -----------------------------------------------------------------------
      C    1   -0.17761      0.99964     2.17151    0.00646     3.17761
      N    2   -0.27657      0.99972     2.76508    0.01177     3.77657
      C    3   -0.17375      0.99964     2.16569    0.00842     3.17375
      C    4   -0.01162      0.99951     1.99591    0.01620     3.01162
      C    5   -0.12021      0.99959     2.11012    0.01051     3.12021
      C    6   -0.18683      0.99961     2.17788    0.00934     3.18683
      C    7   -0.01090      0.99960     1.99722    0.01407     3.01090
      C    8   -0.19225      0.99961     2.18343    0.00922     3.19225
      N    9   -0.41903      0.99976     2.90890    0.01037     3.91903
      C   10    0.03080      0.99949     1.95885    0.01086     2.96920
      C   11   -0.11130      0.99950     2.10154    0.01026     3.11130
      C   12    0.01802      0.99959     1.96845    0.01393     2.98198
      N   13   -0.21921      0.99972     2.70803    0.01146     3.71921
      C   14    0.03314      0.99960     1.95069    0.01656     2.96686
      C   15   -0.13263      0.99949     2.12510    0.00803     3.13263
      H   16    0.09149      0.00000     0.40760    0.00091     0.40851
      H   17    0.07910      0.00000     0.41945    0.00145     0.42090
      H   18    0.10119      0.00000     0.39798    0.00083     0.39881
      H   19    0.08120      0.00000     0.41739    0.00140     0.41880
      H   20    0.09823      0.00000     0.40062    0.00115     0.40177
      H   21    0.09001      0.00000     0.40908    0.00091     0.40999
      H   22    0.10532      0.00000     0.39208    0.00260     0.39468
      H   23    0.09673      0.00000     0.40117    0.00209     0.40327
      H   24    0.09799      0.00000     0.40064    0.00137     0.40201
      H   25    0.09818      0.00000     0.40034    0.00148     0.40182
      H   26    0.08851      0.00000     0.41027    0.00122     0.41149
      H   27    0.09733      0.00000     0.40071    0.00196     0.40267
      H   28    0.09891      0.00000     0.39965    0.00144     0.40109
      H   29    0.17579      0.00000     0.32178    0.00243     0.32421
      H   30    0.17332      0.00000     0.32398    0.00271     0.32668
      H   31    0.10458      0.00000     0.39402    0.00140     0.39542
      H   32    0.08473      0.00000     0.41402    0.00125     0.41527
      H   33    0.08426      0.00000     0.41448    0.00126     0.41574
      H   34    0.10307      0.00000     0.39534    0.00158     0.39693
 =======================================================================
   * Total *   -0.00000     14.99407    40.80901    0.19692    56.00000

 Normal termination of Gaussian 16 at Thu Dec 10 16:16:24 2020.
