 Gaussian 16, Revision A.03,

 -----------------------------------------------------------
 # opt freq B3LYP/6-31G(d) empiricaldispersion=gd3bj scf=xqc
 -----------------------------------------------------------

 -------------------------------
 CID_129998063_JID_4561_neutraal
 -------------------------------
 Symbolic Z-matrix:
 Charge =  0 Multiplicity = 1

 SCF Done:  E(RB3LYP) =  -692.870875918     A.U. after   14 cycles
 SCF Done:  E(RB3LYP) =  -692.875052562     A.U. after   12 cycles
 SCF Done:  E(RB3LYP) =  -692.875582311     A.U. after   11 cycles
 SCF Done:  E(RB3LYP) =  -692.875695338     A.U. after   11 cycles
 SCF Done:  E(RB3LYP) =  -692.875711727     A.U. after   12 cycles
 SCF Done:  E(RB3LYP) =  -692.875899222     A.U. after   10 cycles
 SCF Done:  E(RB3LYP) =  -692.876135724     A.U. after   12 cycles
 SCF Done:  E(RB3LYP) =  -692.876402481     A.U. after   14 cycles
 SCF Done:  E(RB3LYP) =  -692.876602632     A.U. after   11 cycles
 SCF Done:  E(RB3LYP) =  -692.877379261     A.U. after   14 cycles
 SCF Done:  E(RB3LYP) =  -692.877674904     A.U. after    9 cycles
 SCF Done:  E(RB3LYP) =  -692.877689713     A.U. after   11 cycles
 SCF Done:  E(RB3LYP) =  -692.877690603     A.U. after    9 cycles
 SCF Done:  E(RB3LYP) =  -692.877691043     A.U. after    8 cycles
 SCF Done:  E(RB3LYP) =  -692.877691239     A.U. after    8 cycles
 Optimization completed.
    -- Stationary point found.
 Normal termination of Gaussian 16 at Thu Dec 10 10:14:10 2020.

 --------------------------------------------------------------------
 #N Geom=AllCheck Guess=TCheck SCRF=Check GenChk RB3LYP/6-31G(d) Freq
 --------------------------------------------------------------------

 Structure from the checkpoint file:  "JID_4561.chk"
 -------------------------------
 CID_129998063_JID_4561_neutraal
 -------------------------------
 Charge =  0 Multiplicity = 1

 SCF Done:  E(RB3LYP) =  -692.877691239     A.U. after    1 cycles

  Exact polarizability: 128.300   6.040 107.776   3.248  -2.140 101.609
 Approx polarizability: 159.528   9.290 163.557   3.375  -0.969 148.248

                      1                      2                      3
                      A                      A                      A
 Frequencies --     33.6843                43.4322                60.4274
 Red. masses --      7.9391                 4.7204                 4.4916
 Frc consts  --      0.0053                 0.0052                 0.0097
 IR Inten    --      1.2711                 0.4029                 1.3371

                      4                      5                      6
                      A                      A                      A
 Frequencies --     81.5033               130.3211               172.1337
 Red. masses --      3.3269                 4.7323                 2.9729
 Frc consts  --      0.0130                 0.0474                 0.0519
 IR Inten    --      0.7005                 0.5904                 0.7379

                      7                      8                      9
                      A                      A                      A
 Frequencies --    203.3655               217.7167               225.5258
 Red. masses --      1.0457                 1.4267                 1.6402
 Frc consts  --      0.0255                 0.0398                 0.0492
 IR Inten    --      0.0780                 1.2471                 0.3223

                     10                     11                     12
                      A                      A                      A
 Frequencies --    243.8501               272.4959               278.5869
 Red. masses --      1.1256                 1.2254                 1.8657
 Frc consts  --      0.0394                 0.0536                 0.0853
 IR Inten    --      0.4307                 0.1288                 0.6154

                     13                     14                     15
                      A                      A                      A
 Frequencies --    298.8811               307.8268               312.1130
 Red. masses --      2.9588                 2.6163                 2.1528
 Frc consts  --      0.1557                 0.1461                 0.1236
 IR Inten    --      3.1410                 0.1721                 0.4652

                     16                     17                     18
                      A                      A                      A
 Frequencies --    349.2329               380.4651               411.1968
 Red. masses --      2.7610                 2.4136                 3.2903
 Frc consts  --      0.1984                 0.2058                 0.3278
 IR Inten    --      0.2149                 0.0162                 2.4962

                     19                     20                     21
                      A                      A                      A
 Frequencies --    459.2807               502.2544               519.6910
 Red. masses --      3.0736                 2.4927                 3.6177
 Frc consts  --      0.3820                 0.3705                 0.5757
 IR Inten    --      4.6214                 4.7221                15.8277

                     22                     23                     24
                      A                      A                      A
 Frequencies --    537.9833               541.8163               600.9314
 Red. masses --      2.9064                 2.1690                 3.5708
 Frc consts  --      0.4956                 0.3752                 0.7597
 IR Inten    --      6.9703                37.7043                 6.5738

                     25                     26                     27
                      A                      A                      A
 Frequencies --    633.5270               654.7365               694.2845
 Red. masses --      2.9802                 3.7977                 1.4826
 Frc consts  --      0.7047                 0.9592                 0.4211
 IR Inten    --     12.3158                 3.6679                92.1590

                     28                     29                     30
                      A                      A                      A
 Frequencies --    737.7664               822.1090               832.8584
 Red. masses --      3.0887                 3.2362                 4.5232
 Frc consts  --      0.9905                 1.2887                 1.8486
 IR Inten    --     11.3285                13.6480                 5.6048

                     31                     32                     33
                      A                      A                      A
 Frequencies --    874.1649               902.3793               929.7186
 Red. masses --      2.4646                 2.4234                 2.3624
 Frc consts  --      1.1096                 1.1626                 1.2031
 IR Inten    --     25.6135                 1.6658                25.8380

                     34                     35                     36
                      A                      A                      A
 Frequencies --    935.7612               945.7300               977.3157
 Red. masses --      1.6120                 1.5020                 1.9393
 Frc consts  --      0.8316                 0.7915                 1.0914
 IR Inten    --      4.9785                 1.8816                 7.6278

                     37                     38                     39
                      A                      A                      A
 Frequencies --   1006.5809              1017.1706              1022.7707
 Red. masses --      1.6551                 1.3617                 2.2479
 Frc consts  --      0.9881                 0.8301                 1.3854
 IR Inten    --      9.7043                 2.2172                19.5786

                     40                     41                     42
                      A                      A                      A
 Frequencies --   1034.6837              1071.0374              1092.2201
 Red. masses --      1.5769                 2.1443                 3.9604
 Frc consts  --      0.9946                 1.4492                 2.7836
 IR Inten    --     23.8453                 3.2196               118.0095

                     43                     44                     45
                      A                      A                      A
 Frequencies --   1132.2443              1157.6674              1186.2170
 Red. masses --      2.4332                 1.9488                 2.3479
 Frc consts  --      1.8378                 1.5388                 1.9465
 IR Inten    --    161.3842                20.3647               142.0425

                     46                     47                     48
                      A                      A                      A
 Frequencies --   1207.9614              1237.0334              1250.8986
 Red. masses --      1.8440                 2.4139                 2.6093
 Frc consts  --      1.5854                 2.1764                 2.4056
 IR Inten    --     55.4215                69.8150                44.6513

                     49                     50                     51
                      A                      A                      A
 Frequencies --   1261.4093              1264.7309              1284.0025
 Red. masses --      2.1351                 2.0118                 2.0204
 Frc consts  --      2.0016                 1.8960                 1.9626
 IR Inten    --     47.3205                88.8686                21.8700

                     52                     53                     54
                      A                      A                      A
 Frequencies --   1308.7162              1332.0105              1368.9318
 Red. masses --      2.6017                 1.5141                 1.2489
 Frc consts  --      2.6255                 1.5828                 1.3789
 IR Inten    --     43.6733                 3.4081                 1.2048

                     55                     56                     57
                      A                      A                      A
 Frequencies --   1402.2762              1425.6890              1430.0643
 Red. masses --      1.4359                 1.3851                 1.3382
 Frc consts  --      1.6636                 1.6587                 1.6124
 IR Inten    --     12.8562                 3.1860                31.3985

                     58                     59                     60
                      A                      A                      A
 Frequencies --   1433.3080              1440.3203              1443.0449
 Red. masses --      1.7561                 1.2720                 1.5659
 Frc consts  --      2.1255                 1.5547                 1.9212
 IR Inten    --     32.8052                24.8691                 2.1327

                     61                     62                     63
                      A                      A                      A
 Frequencies --   1448.1694              1496.7855              1504.0444
 Red. masses --      1.2832                 1.0889                 1.0468
 Frc consts  --      1.5856                 1.4373                 1.3952
 IR Inten    --     12.1244                11.4094                 0.2183

                     64                     65                     66
                      A                      A                      A
 Frequencies --   1507.1264              1511.4816              1517.1137
 Red. masses --      1.0560                 1.0549                 1.0732
 Frc consts  --      1.4133                 1.4200                 1.4554
 IR Inten    --      0.4842                 2.6141                 4.9251

                     67                     68                     69
                      A                      A                      A
 Frequencies --   1519.7144              1525.1157              1527.3488
 Red. masses --      1.0594                 1.0665                 1.0507
 Frc consts  --      1.4416                 1.4615                 1.4441
 IR Inten    --      5.6941                 1.7360                 3.1845

                     70                     71                     72
                      A                      A                      A
 Frequencies --   1532.3753              1540.2451              1846.1626
 Red. masses --      1.0634                 1.0577                 9.4791
 Frc consts  --      1.4712                 1.4784                19.0353
 IR Inten    --      4.9199                 5.5974               214.2852

                     73                     74                     75
                      A                      A                      A
 Frequencies --   3030.3546              3056.0045              3057.7218
 Red. masses --      1.0827                 1.0695                 1.0355
 Frc consts  --      5.8580                 5.8849                 5.7041
 IR Inten    --     19.2388                10.1263                13.3996

                     76                     77                     78
                      A                      A                      A
 Frequencies --   3062.9845              3063.6162              3069.7430
 Red. masses --      1.0349                 1.0362                 1.0352
 Frc consts  --      5.7208                 5.7299                 5.7473
 IR Inten    --     15.5361                19.4330                 9.4342

                     79                     80                     81
                      A                      A                      A
 Frequencies --   3083.2576              3116.3427              3125.9074
 Red. masses --      1.0601                 1.0972                 1.1010
 Frc consts  --      5.9375                 6.2781                 6.3386
 IR Inten    --     14.7704                 5.7936                18.6067

                     82                     83                     84
                      A                      A                      A
 Frequencies --   3129.6361              3134.2188              3135.8076
 Red. masses --      1.1007                 1.1020                 1.1034
 Frc consts  --      6.3517                 6.3783                 6.3926
 IR Inten    --     24.2449                15.6650                 0.8216

                     85                     86                     87
                      A                      A                      A
 Frequencies --   3137.6508              3140.9671              3142.3468
 Red. masses --      1.1010                 1.1030                 1.1030
 Frc consts  --      6.3862                 6.4111                 6.4170
 IR Inten    --     41.0896                18.6243                27.5497

                     88                     89                     90
                      A                      A                      A
 Frequencies --   3144.3218              3152.9187              3680.8590
 Red. masses --      1.1029                 1.1032                 1.0639
 Frc consts  --      6.4246                 6.4616                 8.4929
 IR Inten    --     37.0258                24.6119                48.9119

 - Thermochemistry -
 -------------------
 Temperature   298.150 Kelvin.  Pressure   1.00000 Atm.
 Atom     1 has atomic number  6 and mass  12.00000

 Molecular mass:   202.12051 amu.
 Principal axes and moments of inertia in atomic units:
                           1         2         3
     Eigenvalues --  1453.722414325.150614591.06492
           X            0.99987   0.01585  -0.00289
           Y           -0.01601   0.99752  -0.06852
           Z            0.00180   0.06856   0.99765
 This molecule is an asymmetric top.
 Rotational symmetry number  1.
 Warning -- assumption of classical behavior for rotation
           may cause significant error
 Rotational temperatures (Kelvin)      0.05958     0.02003     0.01887
 Rotational constants (GHZ):           1.24146     0.41727     0.39310
 Zero-point vibrational energy     728982.8 (Joules/Mol)
                                  174.23106 (Kcal/Mol)
 Warning -- explicit consideration of  24 degrees of freedom as
           vibrations may cause significant error
 Vibrational temperatures:     48.46    62.49    86.94   117.27   187.50
          (Kelvin)            247.66   292.60   313.25   324.48   350.85
                              392.06   400.82   430.02   442.89   449.06
                              502.47   547.40   591.62   660.80   722.63
                              747.72   774.04   779.55   864.61   911.50
                              942.02   998.92  1061.48  1182.83  1198.30
                             1257.73  1298.32  1337.66  1346.35  1360.69
                             1406.14  1448.25  1463.48  1471.54  1488.68
                             1540.98  1571.46  1629.05  1665.63  1706.70
                             1737.99  1779.82  1799.76  1814.89  1819.67
                             1847.39  1882.95  1916.47  1969.59  2017.56
                             2051.25  2057.54  2062.21  2072.30  2076.22
                             2083.59  2153.54  2163.98  2168.42  2174.68
                             2182.79  2186.53  2194.30  2197.51  2204.75
                             2216.07  2656.22  4360.00  4396.91  4399.38
                             4406.95  4407.86  4416.68  4436.12  4483.72
                             4497.48  4502.85  4509.44  4511.73  4514.38
                             4519.15  4521.14  4523.98  4536.35  5295.94

 Zero-point correction=                           0.277655 (Hartree/Particle)
 Thermal correction to Energy=                    0.292927
 Thermal correction to Enthalpy=                  0.293871
 Thermal correction to Gibbs Free Energy=         0.235304
 Sum of electronic and zero-point Energies=           -692.600036
 Sum of electronic and thermal Energies=              -692.584764
 Sum of electronic and thermal Enthalpies=            -692.583820
 Sum of electronic and thermal Free Energies=         -692.642387

                     E (Thermal)             CV                S
                      KCal/Mol        Cal/Mol-Kelvin    Cal/Mol-Kelvin
 Total                  183.814             58.017            123.265
 Electronic               0.000              0.000              0.000
 Translational            0.889              2.981             41.816
 Rotational               0.889              2.981             31.735
 Vibrational            182.037             52.055             49.715
 Vibration     1          0.594              1.983              5.600
 Vibration     2          0.595              1.980              5.096
 Vibration     3          0.597              1.973              4.443
 Vibration     4          0.600              1.962              3.854
 Vibration     5          0.612              1.923              2.941
 Vibration     6          0.626              1.877              2.412
 Vibration     7          0.639              1.835              2.102
 Vibration     8          0.646              1.814              1.978
 Vibration     9          0.650              1.802              1.914
 Vibration    10          0.659              1.773              1.775
 Vibration    11          0.675              1.724              1.580
 Vibration    12          0.679              1.713              1.542
 Vibration    13          0.692              1.676              1.423
 Vibration    14          0.698              1.659              1.374
 Vibration    15          0.700              1.651              1.351
 Vibration    16          0.726              1.577              1.170
 Vibration    17          0.750              1.512              1.037
 Vibration    18          0.775              1.446              0.922
 Vibration    19          0.817              1.340              0.768
 Vibration    20          0.858              1.245              0.653
 Vibration    21          0.875              1.206              0.611
 Vibration    22          0.893              1.166              0.570
 Vibration    23          0.897              1.158              0.561
 Vibration    24          0.959              1.030              0.448

 Optimization completed.
    -- Stationary point found.
 Normal termination of Gaussian 16 at Thu Dec 10 10:23:51 2020.

 ----------------------------------------------------------------------
 # B3LYP/6-311++G(d,p) empiricaldispersion=gd3bj scf=xqc pop=npa geom=c
 heck
 ----------------------------------------------------------------------

 ---------------------------------------
 CID_129998063_JID_4561_Energie_neutraal
 ---------------------------------------
 Structure from the checkpoint file:  "JID_4561.chk"
 Charge =  0 Multiplicity = 1

 SCF Done:  E(RB3LYP) =  -693.087458968     A.U. after   15 cycles
 Normal termination of Gaussian 16 at Thu Dec 10 10:27:49 2020.

 ----------------------------------------------------------------------
 # B3LYP/6-311++G(d,p) empiricaldispersion=gd3bj scf=xqc pop=npa geom=c
 heck
 ----------------------------------------------------------------------

 -------------------------------------
 CID_129998063_JID_4561_Energie_kation
 -------------------------------------
 Structure from the checkpoint file:  "JID_4561.chk"
 Charge =  1 Multiplicity = 2

 SCF Done:  E(UB3LYP) =  -692.760227612     A.U. after   26 cycles
 Normal termination of Gaussian 16 at Thu Dec 10 10:37:34 2020.
 Gaussian 16:  ES64L-G16RevA.03 25-Dec-2016

 ----------------------------------------------------------------------
 # B3LYP/6-311++G(d,p) empiricaldispersion=gd3bj scf=xqc pop=npa geom=c
 heck
 ----------------------------------------------------------------------

 ------------------------------------
 CID_129998063_JID_4561_Energie_anion
 ------------------------------------
 Structure from the checkpoint file:  "JID_4561.chk"
 Charge = -1 Multiplicity = 2

                         Standard orientation:
 ---------------------------------------------------------------------
 Center     Atomic      Atomic             Coordinates (Angstroms)
 Number     Number       Type             X           Y           Z
 ---------------------------------------------------------------------
      1          6           0        0.307044    1.348926    1.575492
      2          6           0       -0.524390    0.990836    0.346763
      3          6           0       -0.089747   -0.332472   -0.326114
      4          8           0       -1.320477   -0.825217   -0.852830
      5          6           0       -2.332760   -0.491583    0.091862
      6          8           0       -1.845880    0.648910    0.812396
      7          6           0       -2.549797   -1.634193    1.083295
      8          6           0       -3.597517   -0.127962   -0.673360
      9          6           0        0.918306   -0.290907   -1.468351
     10          6           0        2.292817    0.264149   -1.085806
     11          6           0        2.981683   -0.529881    0.002039
     12          8           0        2.781299   -1.693769    0.270949
     13          8           0        3.899728    0.221697    0.659835
     14          6           0       -0.640989    2.165329   -0.629072
     15          1           0        0.327824    0.507766    2.275096
     16          1           0       -0.134267    2.209066    2.088869
     17          1           0        1.337326    1.604943    1.307758
     18          1           0        0.281588   -1.012957    0.452906
     19          1           0       -3.257498   -1.328769    1.860071
     20          1           0       -2.944457   -2.516147    0.569270
     21          1           0       -1.604859   -1.901054    1.565096
     22          1           0       -3.393464    0.704601   -1.351179
     23          1           0       -3.947258   -0.984225   -1.258420
     24          1           0       -4.386438    0.168374    0.024230
     25          1           0        1.034191   -1.314528   -1.837283
     26          1           0        0.507108    0.304122   -2.289416
     27          1           0        2.954997    0.235842   -1.961657
     28          1           0        2.247887    1.313027   -0.781141
     29          1           0        4.311801   -0.370037    1.317692
     30          1           0       -1.186346    2.980773   -0.144666
     31          1           0        0.340179    2.544566   -0.935448
     32          1           0       -1.193574    1.868218   -1.525072
 ---------------------------------------------------------------------

 SCF Done:  E(UB3LYP) =  -693.074079637     A.U. after   33 cycles
 SCF Done:  E(UB3LYP) =  -693.074079637     a.u. after    1 cycles

 The electronic state is 2-A.
 Alpha  occ. eigenvalues --  -19.06552 -19.03507 -19.02755 -19.01487 -10.20569
 Alpha  occ. eigenvalues --  -10.18387 -10.13633 -10.12578 -10.08749 -10.07788
 Alpha  occ. eigenvalues --  -10.07235 -10.07162 -10.06412 -10.06312  -1.00737
 Alpha  occ. eigenvalues --   -0.99612  -0.91943  -0.90087  -0.73693  -0.69214
 Alpha  occ. eigenvalues --   -0.65900  -0.61528  -0.60921  -0.59773  -0.54355
 Alpha  occ. eigenvalues --   -0.49737  -0.49086  -0.46551  -0.42225  -0.39761
 Alpha  occ. eigenvalues --   -0.39233  -0.38391  -0.38112  -0.35884  -0.35224
 Alpha  occ. eigenvalues --   -0.34359  -0.33178  -0.31909  -0.31031  -0.30999
 Alpha  occ. eigenvalues --   -0.30750  -0.29865  -0.29078  -0.28507  -0.28102
 Alpha  occ. eigenvalues --   -0.27100  -0.26645  -0.26147  -0.25894  -0.23969
 Alpha  occ. eigenvalues --   -0.22537  -0.22250  -0.18539  -0.17520  -0.16392
 Alpha  occ. eigenvalues --    0.04499
 Alpha virt. eigenvalues --    0.06297   0.07001   0.07654   0.08346   0.09078
 Alpha virt. eigenvalues --    0.09735   0.09875   0.10170   0.10658   0.11331
 Alpha virt. eigenvalues --    0.11976   0.12706   0.12923   0.13583   0.14034

  Beta  occ. eigenvalues --  -19.06490 -19.03502 -19.02750 -19.01470 -10.20557
  Beta  occ. eigenvalues --  -10.18386 -10.13631 -10.12575 -10.08703 -10.07775
  Beta  occ. eigenvalues --  -10.07220 -10.07150 -10.06387 -10.06284  -1.00656
  Beta  occ. eigenvalues --   -0.99605  -0.91874  -0.90079  -0.73676  -0.69165
  Beta  occ. eigenvalues --   -0.65876  -0.61488  -0.60869  -0.59728  -0.54291
  Beta  occ. eigenvalues --   -0.49667  -0.49054  -0.46483  -0.42196  -0.39716
  Beta  occ. eigenvalues --   -0.39199  -0.38351  -0.38073  -0.35848  -0.35201
  Beta  occ. eigenvalues --   -0.34325  -0.33150  -0.31885  -0.31001  -0.30972
  Beta  occ. eigenvalues --   -0.30712  -0.29830  -0.29045  -0.28470  -0.28078
  Beta  occ. eigenvalues --   -0.27061  -0.26612  -0.26112  -0.25869  -0.23956
  Beta  occ. eigenvalues --   -0.22480  -0.22227  -0.18496  -0.17505  -0.16380
  Beta virt. eigenvalues --    0.06360   0.07470   0.07913   0.08136   0.08921
  Beta virt. eigenvalues --    0.09228   0.09971   0.10267   0.10561   0.10917
  Beta virt. eigenvalues --    0.11686   0.12352   0.12829   0.13153   0.13851

 Mulliken charges and spin densities:
               1          2
     1  C   -0.074051  -0.500892
     2  C   -1.748582   1.247465
     3  C    1.060542  -0.964614
     4  O    0.068900   0.011299
     5  C   -0.803502   0.358214
     6  O    0.120495   0.005280
     7  C    0.147503  -0.345975
     8  C    0.275830  -0.440446
     9  C   -1.348703   0.901469
    10  C    1.436085  -1.665380
    11  C    0.118223  -0.373745
    12  O   -0.257950   0.019002
    13  O   -0.182277   0.085764
    14  C    1.101537  -1.474331
    15  H   -0.050818   0.216151
    16  H   -0.119509   0.284717
    17  H    0.089277   0.064764
    18  H    0.364577  -0.150097
    19  H    0.076387   0.079820
    20  H    0.078832   0.071803
    21  H   -0.023062   0.171764
    22  H   -0.083415   0.238071
    23  H    0.031130   0.116824
    24  H    0.028066   0.119505
    25  H    0.092567   0.133832
    26  H    0.057089   0.107741
    27  H   -0.867761   1.085836
    28  H    0.287658  -0.059331
    29  H   -0.579879   0.879028
    30  H   -0.013359   0.177440
    31  H   -0.266563   0.431404
    32  H   -0.015264   0.167620
 Sum of Mulliken charges =  -1.00000   1.00000

 Dipole moment (field-independent basis, Debye):
    X=             -7.2072    Y=             -0.9826    Z=              0.1550  Tot=              7.2755
 Quadrupole moment (field-independent basis, Debye-Ang):
   XX=           -164.7972   YY=           -122.8976   ZZ=           -125.7036
   XY=              3.9319   XZ=             -3.6429   YZ=              2.6103

 Summary of Natural Population Analysis:

                                       Natural Population
                Natural  -----------------------------------------------
    Atom  No    Charge         Core      Valence    Rydberg      Total
 -----------------------------------------------------------------------
      C    1   -0.29118      0.99960     2.28443    0.00716     3.29118
      C    2    0.12464      0.99951     1.85974    0.01611     2.87536
      C    3    0.05539      0.99946     1.93019    0.01496     2.94461
      O    4   -0.30940      0.99987     3.30134    0.00819     4.30940
      C    5    0.29258      0.99958     1.68685    0.02099     2.70742
      O    6   -0.32108      0.99986     3.31162    0.00960     4.32108
      C    7   -0.30119      0.99959     2.29579    0.00581     3.30119
      C    8   -0.29539      0.99959     2.28997    0.00584     3.29539
      C    9   -0.19705      0.99960     2.18575    0.01170     3.19705
      C   10   -0.24138      0.99957     2.23198    0.00983     3.24138
      C   11    0.40919      0.99972     1.56620    0.02489     2.59081
      O   12   -0.30962      0.99987     3.30358    0.00617     4.30962
      O   13   -0.34338      0.99988     3.33653    0.00697     4.34338
      C   14   -0.29905      0.99960     2.29200    0.00744     3.29905
      H   15    0.10424      0.00000     0.39448    0.00129     0.39576
      H   16    0.10347      0.00000     0.39560    0.00093     0.39653
      H   17    0.10494      0.00000     0.39365    0.00141     0.39506
      H   18    0.09181      0.00000     0.40616    0.00203     0.40819
      H   19    0.10203      0.00000     0.39703    0.00094     0.39797
      H   20    0.09995      0.00000     0.39912    0.00093     0.40005
      H   21    0.10518      0.00000     0.39393    0.00090     0.39482
      H   22    0.10672      0.00000     0.39224    0.00104     0.39328
      H   23    0.10141      0.00000     0.39764    0.00095     0.39859
      H   24    0.10153      0.00000     0.39752    0.00095     0.39847
      H   25    0.11022      0.00000     0.38856    0.00122     0.38978
      H   26    0.10602      0.00000     0.39256    0.00142     0.39398
      H   27    0.12311      0.00000     0.37403    0.00286     0.37689
      H   28    0.11105      0.00000     0.38700    0.00195     0.38895
      H   29    0.24542      0.00000     0.23180    0.02279     0.25458
      H   30    0.10482      0.00000     0.39418    0.00100     0.39518
      H   31    0.10166      0.00000     0.39709    0.00125     0.39834
      H   32    0.10334      0.00000     0.39526    0.00140     0.39666
 =======================================================================
   * Total *   -0.00000     13.99530    40.80381    0.20089    55.00000

 Normal termination of Gaussian 16 at Thu Dec 10 10:49:40 2020.
