 Gaussian 16, Revision A.03,

 -----------------------------------------------------------
 # opt freq B3LYP/6-31G(d) empiricaldispersion=gd3bj scf=xqc
 -----------------------------------------------------------

 ------------------------------
 CID_54113119_JID_2007_neutraal
 ------------------------------
 Symbolic Z-matrix:
 Charge =  0 Multiplicity = 1

 SCF Done:  E(RB3LYP) =  -908.654609406     A.U. after   16 cycles
 SCF Done:  E(RB3LYP) =  -908.660334346     A.U. after   14 cycles
 SCF Done:  E(RB3LYP) =  -908.663276097     A.U. after   13 cycles
 SCF Done:  E(RB3LYP) =  -908.664611719     A.U. after   14 cycles
 SCF Done:  E(RB3LYP) =  -908.665286518     A.U. after   14 cycles
 SCF Done:  E(RB3LYP) =  -908.665558296     A.U. after   12 cycles
 SCF Done:  E(RB3LYP) =  -908.665670391     A.U. after   12 cycles
 SCF Done:  E(RB3LYP) =  -908.665691581     A.U. after   11 cycles
 SCF Done:  E(RB3LYP) =  -908.665701578     A.U. after   10 cycles
 SCF Done:  E(RB3LYP) =  -908.665707866     A.U. after   10 cycles
 SCF Done:  E(RB3LYP) =  -908.665709796     A.U. after    9 cycles
 SCF Done:  E(RB3LYP) =  -908.665712048     A.U. after   10 cycles
 SCF Done:  E(RB3LYP) =  -908.665714084     A.U. after    9 cycles
 SCF Done:  E(RB3LYP) =  -908.665714627     A.U. after    9 cycles
 Optimization completed.
    -- Stationary point found.
 Normal termination of Gaussian 16 at Wed Dec  9 16:44:56 2020.

 --------------------------------------------------------------------
 #N Geom=AllCheck Guess=TCheck SCRF=Check GenChk RB3LYP/6-31G(d) Freq
 --------------------------------------------------------------------

 Structure from the checkpoint file:  "JID_2007.chk"
 ------------------------------
 CID_54113119_JID_2007_neutraal
 ------------------------------
 Charge =  0 Multiplicity = 1

 SCF Done:  E(RB3LYP) =  -908.665714627     A.U. after    1 cycles

  Exact polarizability: 148.256   4.076 130.410  -1.904   1.440  52.725
 Approx polarizability: 217.792   7.884 239.110  -6.838   1.581  81.985

                      1                      2                      3
                      A                      A                      A
 Frequencies --     46.1354                65.7199                98.5385
 Red. masses --      4.5862                 6.9527                 7.4331
 Frc consts  --      0.0058                 0.0177                 0.0425
 IR Inten    --      3.9627                 2.8428                 3.8291

                      4                      5                      6
                      A                      A                      A
 Frequencies --    113.1368               133.8462               164.9748
 Red. masses --      2.1318                 1.6972                 5.4839
 Frc consts  --      0.0161                 0.0179                 0.0879
 IR Inten    --      2.9867                 0.4109                 1.7892

                      7                      8                      9
                      A                      A                      A
 Frequencies --    213.2472               250.4608               284.5775
 Red. masses --      4.6476                 3.8859                 5.4553
 Frc consts  --      0.1245                 0.1436                 0.2603
 IR Inten    --      3.4403                 4.4758                 2.3496

                     10                     11                     12
                      A                      A                      A
 Frequencies --    358.5286               373.6898               451.6180
 Red. masses --      4.7868                10.0627                 1.1956
 Frc consts  --      0.3625                 0.8279                 0.1437
 IR Inten    --      0.1721                 7.4695                72.2030

                     13                     14                     15
                      A                      A                      A
 Frequencies --    482.3803               492.4653               511.6117
 Red. masses --      6.4388                 9.4783                 2.2733
 Frc consts  --      0.8827                 1.3543                 0.3506
 IR Inten    --      4.9418                 2.1579                 5.9967

                     16                     17                     18
                      A                      A                      A
 Frequencies --    539.7283               548.6256               564.9737
 Red. masses --      6.1083                 1.7481                 1.9270
 Frc consts  --      1.0484                 0.3100                 0.3624
 IR Inten    --     14.1781                43.6073                48.6614

                     19                     20                     21
                      A                      A                      A
 Frequencies --    586.3297               613.0692               686.2259
 Red. masses --      1.6868                 4.6985                 6.4551
 Frc consts  --      0.3417                 1.0405                 1.7910
 IR Inten    --    117.0746                 5.9880                 5.9301

                     22                     23                     24
                      A                      A                      A
 Frequencies --    716.0103               728.8901               765.0045
 Red. masses --      1.7934                 2.4695                 7.1616
 Frc consts  --      0.5417                 0.7730                 2.4694
 IR Inten    --     62.1146                 9.4134                44.8081

                     25                     26                     27
                      A                      A                      A
 Frequencies --    844.4784               859.6887               987.5895
 Red. masses --      4.2942                 6.5405                 3.9032
 Frc consts  --      1.8043                 2.8480                 2.2430
 IR Inten    --      6.0050                15.7205                 5.9516

                     28                     29                     30
                      A                      A                      A
 Frequencies --   1036.4780              1079.0815              1127.9997
 Red. masses --      1.5661                 1.4802                 2.7914
 Frc consts  --      0.9913                 1.0155                 2.0926
 IR Inten    --      5.5436                 2.8214                41.6559

                     31                     32                     33
                      A                      A                      A
 Frequencies --   1138.2681              1214.4778              1327.2096
 Red. masses --      2.0157                 1.5051                 4.8064
 Frc consts  --      1.5387                 1.3080                 4.9883
 IR Inten    --     24.8911                 3.1746                53.0863

                     34                     35                     36
                      A                      A                      A
 Frequencies --   1400.3723              1428.5597              1440.1718
 Red. masses --      4.2469                 2.2077                 2.2587
 Frc consts  --      4.9070                 2.6545                 2.7602
 IR Inten    --    395.4873                32.0604                31.5366

                     37                     38                     39
                      A                      A                      A
 Frequencies --   1450.3537              1508.7466              1513.9230
 Red. masses --      1.6398                 1.0420                 1.1416
 Frc consts  --      2.0323                 1.3976                 1.5416
 IR Inten    --      9.2409                 7.9242                 8.8115

                     40                     41                     42
                      A                      A                      A
 Frequencies --   1573.2253              1617.8185              1656.1593
 Red. masses --      4.1251                 5.4295                 1.1963
 Frc consts  --      6.0154                 8.3728                 1.9333
 IR Inten    --    191.1153                72.6330               181.5161

                     43                     44                     45
                      A                      A                      A
 Frequencies --   1837.7713              2333.5337              3053.4437
 Red. masses --      6.9802                12.6581                 1.0370
 Frc consts  --     13.8899                40.6113                 5.6965
 IR Inten    --    531.3163                61.5593                18.4571

                     46                     47                     48
                      A                      A                      A
 Frequencies --   3107.7231              3142.6261              3271.5366
 Red. masses --      1.1011                 1.1017                 1.0943
 Frc consts  --      6.2657                 6.4106                 6.9007
 IR Inten    --     10.7573                14.0120                 1.2363

                     49                     50                     51
                      A                      A                      A
 Frequencies --   3561.1735              3579.9397              3675.2948
 Red. masses --      1.0481                 1.0763                 1.1004
 Frc consts  --      7.8318                 8.1271                 8.7574
 IR Inten    --     26.0535                53.4111                58.7775

 - Thermochemistry -
 -------------------
 Temperature   298.150 Kelvin.  Pressure   1.00000 Atm.
 Atom     1 has atomic number  6 and mass  12.00000

 Molecular mass:   181.03098 amu.
 Principal axes and moments of inertia in atomic units:
                           1         2         3
     Eigenvalues --  1373.285212953.446324244.93720
           X            0.99998  -0.00332   0.00468
           Y            0.00328   0.99996   0.00799
           Z           -0.00470  -0.00798   0.99996
 This molecule is an asymmetric top.
 Rotational symmetry number  1.
 Warning -- assumption of classical behavior for rotation
           may cause significant error
 Rotational temperatures (Kelvin)      0.06307     0.02933     0.02040
 Rotational constants (GHZ):           1.31418     0.61106     0.42515
 Zero-point vibrational energy     362213.9 (Joules/Mol)
                                   86.57120 (Kcal/Mol)
 Warning -- explicit consideration of  20 degrees of freedom as
           vibrations may cause significant error
 Vibrational temperatures:     66.38    94.56   141.77   162.78   192.57
          (Kelvin)            237.36   306.82   360.36   409.44   515.84
                              537.66   649.78   694.04   708.55   736.10
                              776.55   789.35   812.87   843.60   882.07
                              987.33  1030.18  1048.71  1100.67  1215.02
                             1236.90  1420.92  1491.26  1552.56  1622.94
                             1637.71  1747.36  1909.56  2014.82  2055.38
                             2072.09  2086.74  2170.75  2178.20  2263.52
                             2327.68  2382.84  2644.14  3357.43  4393.22
                             4471.32  4521.54  4707.01  5123.73  5150.73
                             5287.93

 Zero-point correction=                           0.137960 (Hartree/Particle)
 Thermal correction to Energy=                    0.149920
 Thermal correction to Enthalpy=                  0.150864
 Thermal correction to Gibbs Free Energy=         0.099168
 Sum of electronic and zero-point Energies=           -908.527755
 Sum of electronic and thermal Energies=              -908.515795
 Sum of electronic and thermal Enthalpies=            -908.514851
 Sum of electronic and thermal Free Energies=         -908.566547

                     E (Thermal)             CV                S
                      KCal/Mol        Cal/Mol-Kelvin    Cal/Mol-Kelvin
 Total                   94.076             43.433            108.804
 Electronic               0.000              0.000              0.000
 Translational            0.889              2.981             41.487
 Rotational               0.889              2.981             31.221
 Vibrational             92.299             37.472             36.095
 Vibration     1          0.595              1.979              4.977
 Vibration     2          0.597              1.971              4.278
 Vibration     3          0.604              1.950              3.483
 Vibration     4          0.607              1.939              3.214
 Vibration     5          0.613              1.920              2.890
 Vibration     6          0.623              1.885              2.492
 Vibration     7          0.644              1.821              2.016
 Vibration     8          0.663              1.762              1.727
 Vibration     9          0.683              1.702              1.506
 Vibration    10          0.733              1.558              1.128
 Vibration    11          0.745              1.526              1.065
 Vibration    12          0.810              1.357              0.791
 Vibration    13          0.839              1.289              0.704
 Vibration    14          0.848              1.267              0.677
 Vibration    15          0.867              1.224              0.630
 Vibration    16          0.895              1.162              0.566
 Vibration    17          0.904              1.143              0.547
 Vibration    18          0.921              1.107              0.514
 Vibration    19          0.943              1.061              0.474
 Vibration    20          0.972              1.004              0.428

                           ! Non-Optimized Parameters !
 Normal termination of Gaussian 16 at Wed Dec  9 16:48:31 2020.

 ----------------------------------------------------------------------
 # B3LYP/6-311++G(d,p) empiricaldispersion=gd3bj scf=xqc pop=npa geom=c
 heck
 ----------------------------------------------------------------------

 --------------------------------------
 CID_54113119_JID_2007_Energie_neutraal
 --------------------------------------
 Structure from the checkpoint file:  "JID_2007.chk"
 Charge =  0 Multiplicity = 1

 SCF Done:  E(RB3LYP) =  -908.844872468     A.U. after   16 cycles
 Normal termination of Gaussian 16 at Wed Dec  9 16:49:50 2020.

 ----------------------------------------------------------------------
 # B3LYP/6-311++G(d,p) empiricaldispersion=gd3bj scf=xqc pop=npa geom=c
 heck
 ----------------------------------------------------------------------

 ------------------------------------
 CID_54113119_JID_2007_Energie_kation
 ------------------------------------
 Structure from the checkpoint file:  "JID_2007.chk"
 Charge =  1 Multiplicity = 2

 SCF Done:  E(UB3LYP) =  -908.538193089     A.U. after   25 cycles
 Normal termination of Gaussian 16 at Wed Dec  9 16:52:39 2020.
 Gaussian 16:  ES64L-G16RevA.03 25-Dec-2016

 ----------------------------------------------------------------------
 # B3LYP/6-311++G(d,p) empiricaldispersion=gd3bj scf=xqc pop=npa geom=c
 heck
 ----------------------------------------------------------------------

 -----------------------------------
 CID_54113119_JID_2007_Energie_anion
 -----------------------------------
 Structure from the checkpoint file:  "JID_2007.chk"
 Charge = -1 Multiplicity = 2

                         Standard orientation:
 ---------------------------------------------------------------------
 Center     Atomic      Atomic             Coordinates (Angstroms)
 Number     Number       Type             X           Y           Z
 ---------------------------------------------------------------------
      1          6           0        3.617467   -0.102936   -0.092763
      2          6           0        2.165013   -0.466089   -0.000882
      3          6           0        1.666718   -1.728736    0.080830
      4         16           0       -0.079570   -1.772563    0.183491
      5          6           0       -0.164437   -0.028851    0.071720
      6          6           0        1.107755    0.518722   -0.009515
      7          6           0        1.312044    1.920353   -0.084514
      8          7           0        1.446471    3.076697   -0.138806
      9          7           0       -1.326466    0.708381    0.154999
     10          6           0       -2.669083    0.345465   -0.006853
     11          8           0       -3.555207    1.107135    0.335545
     12          7           0       -2.887979   -0.913013   -0.526690
     13          1           0        3.915791    0.535405    0.747031
     14          1           0        3.826107    0.457458   -1.011544
     15          1           0        4.246399   -0.996918   -0.084632
     16          1           0        2.214055   -2.661025    0.071766
     17          1           0       -1.222527    1.679899    0.427920
     18          1           0       -2.238442   -1.281358   -1.210530
     19          1           0       -3.863655   -1.081563   -0.734885
 ---------------------------------------------------------------------

 SCF Done:  E(UB3LYP) =  -908.847668508     A.U. after   33 cycles
 SCF Done:  E(UB3LYP) =  -908.847668508     a.u. after    1 cycles

 The electronic state is 2-A.
 Alpha  occ. eigenvalues --  -88.72569 -18.95309 -14.21487 -14.21002 -14.14587
 Alpha  occ. eigenvalues --  -10.16305 -10.06871 -10.05645 -10.05418 -10.05076
 Alpha  occ. eigenvalues --  -10.04553 -10.03602  -7.81207  -5.77533  -5.77164
 Alpha  occ. eigenvalues --   -5.76768  -0.92431  -0.81394  -0.77872  -0.74956
 Alpha  occ. eigenvalues --   -0.72688  -0.63809  -0.60578  -0.54973  -0.50263
 Alpha  occ. eigenvalues --   -0.46661  -0.44223  -0.42006  -0.38970  -0.35618
 Alpha  occ. eigenvalues --   -0.32631  -0.31479  -0.30614  -0.30433  -0.29055
 Alpha  occ. eigenvalues --   -0.26396  -0.25694  -0.25009  -0.21784  -0.20713
 Alpha  occ. eigenvalues --   -0.20276  -0.18133  -0.17398  -0.16464  -0.14361
 Alpha  occ. eigenvalues --   -0.11093  -0.07570   0.05821
 Alpha virt. eigenvalues --    0.08346   0.08761   0.10388   0.11963   0.12309
 Alpha virt. eigenvalues --    0.13051   0.13482   0.14484   0.14731   0.15036
 Alpha virt. eigenvalues --    0.15662   0.16227   0.16903   0.17491   0.18094

  Beta  occ. eigenvalues --  -88.72513 -18.95138 -14.21550 -14.20984 -14.14338
  Beta  occ. eigenvalues --  -10.16127 -10.06067 -10.05641 -10.05472 -10.05047
  Beta  occ. eigenvalues --  -10.04405 -10.03529  -7.81156  -5.77516  -5.77147
  Beta  occ. eigenvalues --   -5.76564  -0.92120  -0.81006  -0.77689  -0.74615
  Beta  occ. eigenvalues --   -0.72446  -0.63610  -0.60075  -0.54566  -0.49907
  Beta  occ. eigenvalues --   -0.46135  -0.44034  -0.41850  -0.38683  -0.35470
  Beta  occ. eigenvalues --   -0.32541  -0.30839  -0.30398  -0.30120  -0.28846
  Beta  occ. eigenvalues --   -0.26185  -0.25140  -0.24010  -0.21393  -0.20300
  Beta  occ. eigenvalues --   -0.19150  -0.17928  -0.16828  -0.15957  -0.14069
  Beta  occ. eigenvalues --   -0.10160  -0.05850
  Beta virt. eigenvalues --    0.08305   0.08723   0.10342   0.11920   0.12296
  Beta virt. eigenvalues --    0.12488   0.13165   0.13613   0.14586   0.15049
  Beta virt. eigenvalues --    0.15184   0.15824   0.16259   0.17118   0.18154

 Mulliken charges and spin densities:
               1          2
     1  C   -0.530661   0.022508
     2  C    0.060910  -0.024453
     3  C   -0.194908   0.057889
     4  S   -0.558582   0.162010
     5  C   -0.302866   0.335327
     6  C    1.788848   0.235183
     7  C   -1.570714  -0.060514
     8  N   -0.334967   0.124831
     9  N   -0.142957  -0.020540
    10  C    0.254726   0.085721
    11  O   -0.429848   0.059490
    12  N   -0.438630   0.009210
    13  H    0.145593   0.000238
    14  H    0.141041  -0.000159
    15  H    0.124767  -0.000974
    16  H    0.185916  -0.008986
    17  H    0.306969   0.022337
    18  H    0.207872   0.001260
    19  H    0.287492  -0.000378
 Sum of Mulliken charges =  -1.00000   1.00000

 Dipole moment (field-independent basis, Debye):
    X=              1.0397    Y=             -6.0126    Z=             -1.5905  Tot=              6.3057
 Quadrupole moment (field-independent basis, Debye-Ang):
   XX=           -106.6647   YY=           -110.5507   ZZ=            -84.0948
   XY=             -0.0283   XZ=              6.5521   YZ=              3.0352

 Summary of Natural Population Analysis:

                                       Natural Population
                Natural  -----------------------------------------------
    Atom  No    Charge         Core      Valence    Rydberg      Total
 -----------------------------------------------------------------------
      C    1   -0.28820      0.99963     2.28408    0.00450     3.28820
      C    2   -0.03085      0.99947     2.02278    0.00860     3.03085
      C    3   -0.19021      0.99945     2.17984    0.01092     3.19021
      S    4    0.18795      4.99947     2.79025    0.02234     7.81205
      C    5    0.16969      0.99945     1.81431    0.01655     2.83031
      C    6   -0.14568      0.99932     2.13567    0.01069     3.14568
      C    7    0.14904      0.99964     1.83274    0.01858     2.85096
      N    8   -0.18685      0.99979     2.67526    0.01180     3.68685
      N    9   -0.32637      0.99962     2.81638    0.01037     3.82637
      C   10    0.42373      0.99976     1.55470    0.02181     2.57627
      O   11   -0.32734      0.99987     3.32107    0.00640     4.32734
      N   12   -0.42139      0.99971     2.91417    0.00751     3.92139
      H   13    0.10193      0.00000     0.39692    0.00116     0.39807
      H   14    0.10152      0.00000     0.39731    0.00118     0.39848
      H   15    0.09542      0.00000     0.40365    0.00093     0.40458
      H   16    0.09718      0.00000     0.40184    0.00097     0.40282
      H   17    0.20794      0.00000     0.29052    0.00154     0.29206
      H   18    0.19402      0.00000     0.30400    0.00198     0.30598
      H   19    0.18848      0.00000     0.31005    0.00146     0.31152
 =======================================================================
   * Total *    0.00000     15.99519    30.84553    0.15929    47.00000

 Normal termination of Gaussian 16 at Wed Dec  9 16:56:29 2020.
