 Gaussian 16, Revision A.03,

 -----------------------------------------------------------
 # opt freq B3LYP/6-31G(d) empiricaldispersion=gd3bj scf=xqc
 -----------------------------------------------------------

 -------------------------------
 CID_107373000_JID_6786_neutraal
 -------------------------------
 Symbolic Z-matrix:
 Charge =  0 Multiplicity = 1

 SCF Done:  E(RB3LYP) =  -744.131638022     A.U. after   14 cycles
 SCF Done:  E(RB3LYP) =  -744.139438377     A.U. after   12 cycles
 SCF Done:  E(RB3LYP) =  -744.140513881     A.U. after   12 cycles
 SCF Done:  E(RB3LYP) =  -744.141594527     A.U. after   12 cycles
 SCF Done:  E(RB3LYP) =  -744.141922757     A.U. after   12 cycles
 SCF Done:  E(RB3LYP) =  -744.142144707     A.U. after   12 cycles
 SCF Done:  E(RB3LYP) =  -744.142249387     A.U. after   12 cycles
 SCF Done:  E(RB3LYP) =  -744.142385423     A.U. after   11 cycles
 SCF Done:  E(RB3LYP) =  -744.142464775     A.U. after   11 cycles
 SCF Done:  E(RB3LYP) =  -744.142461716     A.U. after   11 cycles
 SCF Done:  E(RB3LYP) =  -744.142476603     A.U. after   11 cycles
 SCF Done:  E(RB3LYP) =  -744.142478255     A.U. after    8 cycles
 SCF Done:  E(RB3LYP) =  -744.142478775     A.U. after    7 cycles
 SCF Done:  E(RB3LYP) =  -744.142478914     A.U. after    7 cycles
 SCF Done:  E(RB3LYP) =  -744.142478999     A.U. after    7 cycles
 Optimization completed.
    -- Stationary point found.
 Normal termination of Gaussian 16 at Fri Dec 11 00:32:24 2020.

 --------------------------------------------------------------------
 #N Geom=AllCheck Guess=TCheck SCRF=Check GenChk RB3LYP/6-31G(d) Freq
 --------------------------------------------------------------------

 Structure from the checkpoint file:  "JID_6786.chk"
 -------------------------------
 CID_107373000_JID_6786_neutraal
 -------------------------------
 Charge =  0 Multiplicity = 1

 SCF Done:  E(RB3LYP) =  -744.142478999     A.U. after    1 cycles

  Exact polarizability: 192.392  -3.602 125.787  15.706  14.489 106.848
 Approx polarizability: 262.666  -9.715 193.159  34.772  36.729 178.485

                      1                      2                      3
                      A                      A                      A
 Frequencies --     31.5524                38.3977                57.5254
 Red. masses --      5.8066                 3.4585                 3.5050
 Frc consts  --      0.0034                 0.0030                 0.0068
 IR Inten    --      1.3680                 1.3742                 5.5790

                      4                      5                      6
                      A                      A                      A
 Frequencies --     87.4764               101.3680               121.7708
 Red. masses --      3.9902                 2.2077                 2.4771
 Frc consts  --      0.0180                 0.0134                 0.0216
 IR Inten    --      0.8134                 1.8780                 1.1149

                      7                      8                      9
                      A                      A                      A
 Frequencies --    165.1324               187.3662               214.9709
 Red. masses --      3.1273                 2.0157                 3.0914
 Frc consts  --      0.0502                 0.0417                 0.0842
 IR Inten    --      1.0152                 2.3601                 1.0224

                     10                     11                     12
                      A                      A                      A
 Frequencies --    256.0730               304.3452               321.3307
 Red. masses --      3.8760                 3.2725                 2.5968
 Frc consts  --      0.1497                 0.1786                 0.1580
 IR Inten    --      8.9227                 1.3845                 0.7327

                     13                     14                     15
                      A                      A                      A
 Frequencies --    345.6949               379.1293               396.6492
 Red. masses --      2.7931                 3.6529                 2.7105
 Frc consts  --      0.1967                 0.3094                 0.2513
 IR Inten    --      2.2503                 3.8532                 3.9169

                     16                     17                     18
                      A                      A                      A
 Frequencies --    422.9907               438.7157               450.1579
 Red. masses --      2.0152                 2.0945                 2.1197
 Frc consts  --      0.2124                 0.2375                 0.2531
 IR Inten    --     24.1053                48.2168                65.8163

                     19                     20                     21
                      A                      A                      A
 Frequencies --    474.8164               503.8544               546.6400
 Red. masses --      2.2627                 2.9340                 2.6338
 Frc consts  --      0.3006                 0.4389                 0.4637
 IR Inten    --      7.3156                 8.2984                 4.3581

                     22                     23                     24
                      A                      A                      A
 Frequencies --    571.1339               593.1599               664.4427
 Red. masses --      4.4818                 4.3932                 9.9715
 Frc consts  --      0.8614                 0.9107                 2.5937
 IR Inten    --     14.1459                 2.4031                 2.8770

                     25                     26                     27
                      A                      A                      A
 Frequencies --    708.7153               731.0369               778.2184
 Red. masses --      3.2033                 3.2564                 4.5877
 Frc consts  --      0.9480                 1.0253                 1.6370
 IR Inten    --      9.1522                 2.3402                 0.7115

                     28                     29                     30
                      A                      A                      A
 Frequencies --    825.2512               847.8048               863.0147
 Red. masses --      2.9740                 3.1578                 2.4678
 Frc consts  --      1.1933                 1.3373                 1.0829
 IR Inten    --     12.0145                 3.6204                 6.7175

                     31                     32                     33
                      A                      A                      A
 Frequencies --    876.2296               888.1156               920.7274
 Red. masses --      1.9197                 1.6696                 2.4745
 Frc consts  --      0.8684                 0.7759                 1.2360
 IR Inten    --      5.5590                11.8709                12.5607

                     34                     35                     36
                      A                      A                      A
 Frequencies --    945.1150               950.9727               984.0459
 Red. masses --      1.2926                 2.4620                 2.1619
 Frc consts  --      0.6803                 1.3118                 1.2334
 IR Inten    --      1.0479                13.1188                 3.2712

                     37                     38                     39
                      A                      A                      A
 Frequencies --   1032.0744              1037.8547              1047.7896
 Red. masses --      2.5419                 2.3124                 2.3261
 Frc consts  --      1.5953                 1.4675                 1.5046
 IR Inten    --     30.5517                31.2956                 9.5979

                     40                     41                     42
                      A                      A                      A
 Frequencies --   1058.9401              1100.2550              1104.9872
 Red. masses --      2.0914                 1.7226                 5.3492
 Frc consts  --      1.3818                 1.2286                 3.8482
 IR Inten    --      6.7011                 9.1858                94.2898

                     43                     44                     45
                      A                      A                      A
 Frequencies --   1142.5020              1146.0455              1164.5282
 Red. masses --      2.4901                 2.7706                 2.0803
 Frc consts  --      1.9151                 2.1440                 1.6622
 IR Inten    --     43.1070                37.1625                46.7094

                     46                     47                     48
                      A                      A                      A
 Frequencies --   1192.8915              1217.8615              1231.7746
 Red. masses --      1.2945                 1.5839                 1.6916
 Frc consts  --      1.0853                 1.3841                 1.5122
 IR Inten    --      1.6932                26.1916                26.6064

                     49                     50                     51
                      A                      A                      A
 Frequencies --   1243.9478              1250.5903              1266.9708
 Red. masses --      1.4422                 1.6161                 2.7540
 Frc consts  --      1.3149                 1.4892                 2.6047
 IR Inten    --     37.0048                14.9052                 8.2583

                     52                     53                     54
                      A                      A                      A
 Frequencies --   1273.8199              1297.4886              1312.4029
 Red. masses --      2.0243                 1.5830                 1.2360
 Frc consts  --      1.9353                 1.5702                 1.2544
 IR Inten    --     16.1452                75.3152                16.4807

                     55                     56                     57
                      A                      A                      A
 Frequencies --   1344.1990              1356.9582              1358.0030
 Red. masses --      1.4974                 1.5841                 1.4148
 Frc consts  --      1.5941                 1.7186                 1.5372
 IR Inten    --      2.0968                10.4005                 7.7913

                     58                     59                     60
                      A                      A                      A
 Frequencies --   1373.6380              1387.5410              1397.9078
 Red. masses --      1.3381                 1.6321                 1.9266
 Frc consts  --      1.4876                 1.8513                 2.2182
 IR Inten    --      5.4644                23.2771                60.6102

                     61                     62                     63
                      A                      A                      A
 Frequencies --   1406.7433              1408.3405              1422.3920
 Red. masses --      1.3957                 1.5782                 1.3800
 Frc consts  --      1.6273                 1.8443                 1.6450
 IR Inten    --     11.4988                13.5337                 4.3725

                     64                     65                     66
                      A                      A                      A
 Frequencies --   1465.4859              1488.4139              1501.0557
 Red. masses --      2.3683                 1.3151                 1.1296
 Frc consts  --      2.9968                 1.7166                 1.4996
 IR Inten    --    185.9052               167.9595                 8.7715

                     67                     68                     69
                      A                      A                      A
 Frequencies --   1503.5426              1506.5611              1515.0518
 Red. masses --      1.1310                 1.0889                 1.0831
 Frc consts  --      1.5063                 1.4562                 1.4648
 IR Inten    --      7.2440                 3.1159                 2.5463

                     70                     71                     72
                      A                      A                      A
 Frequencies --   1521.7802              1531.4875              1535.3901
 Red. masses --      1.1181                 1.1131                 1.0582
 Frc consts  --      1.5256                 1.5382                 1.4698
 IR Inten    --      7.2546                13.5697                 5.3072

                     73                     74                     75
                      A                      A                      A
 Frequencies --   1542.1054              1555.3256              1584.7277
 Red. masses --      1.2093                 2.1448                 7.0347
 Frc consts  --      1.6944                 3.0569                10.4089
 IR Inten    --     23.4209               212.9824                32.8092

                     76                     77                     78
                      A                      A                      A
 Frequencies --   1645.1473              2956.7838              2979.4865
 Red. masses --      6.1276                 1.0745                 1.0824
 Frc consts  --      9.7713                 5.5349                 5.6613
 IR Inten    --    111.6016                78.9185                51.6704

                     79                     80                     81
                      A                      A                      A
 Frequencies --   3005.1663              3035.4348              3039.4619
 Red. masses --      1.0405                 1.0729                 1.0679
 Frc consts  --      5.5363                 5.8244                 5.8128
 IR Inten    --     68.0205                37.3414                26.7799

                     82                     83                     84
                      A                      A                      A
 Frequencies --   3056.6004              3056.8856              3059.2331
 Red. masses --      1.0863                 1.0851                 1.0888
 Frc consts  --      5.9794                 5.9740                 6.0038
 IR Inten    --     91.2429                50.8371                42.4461

                     85                     86                     87
                      A                      A                      A
 Frequencies --   3062.1305              3099.9974              3119.6524
 Red. masses --      1.0650                 1.0969                 1.1000
 Frc consts  --      5.8838                 6.2107                 6.3075
 IR Inten    --     39.1595                29.7540                33.2262

                     88                     89                     90
                      A                      A                      A
 Frequencies --   3144.3118              3152.4540              3164.4462
 Red. masses --      1.0972                 1.0922                 1.0911
 Frc consts  --      6.3915                 6.3948                 6.4372
 IR Inten    --     20.3339                16.4556                39.0237

                     91                     92                     93
                      A                      A                      A
 Frequencies --   3169.9996              3197.8358              3632.9999
 Red. masses --      1.0923                 1.0894                 1.0649
 Frc consts  --      6.4670                 6.5635                 8.2810
 IR Inten    --      4.4391                27.8497                81.7729

 - Thermochemistry -
 -------------------
 Temperature   298.150 Kelvin.  Pressure   1.00000 Atm.
 Atom     1 has atomic number  6 and mass  12.00000

 Molecular mass:   223.13208 amu.
 Principal axes and moments of inertia in atomic units:
                           1         2         3
     Eigenvalues --  1715.958855530.826366304.07860
           X            0.99999   0.00342   0.00300
           Y           -0.00350   0.99960   0.02806
           Z           -0.00290  -0.02807   0.99960
 This molecule is an asymmetric top.
 Rotational symmetry number  1.
 Warning -- assumption of classical behavior for rotation
           may cause significant error
 Rotational temperatures (Kelvin)      0.05048     0.01566     0.01374
 Rotational constants (GHZ):           1.05174     0.32631     0.28628
 Zero-point vibrational energy     744085.3 (Joules/Mol)
                                  177.84065 (Kcal/Mol)
 Warning -- explicit consideration of  23 degrees of freedom as
           vibrations may cause significant error
 Vibrational temperatures:     45.40    55.25    82.77   125.86   145.85
          (Kelvin)            175.20   237.59   269.58   309.30   368.43
                              437.88   462.32   497.38   545.48   570.69
                              608.59   631.21   647.68   683.15   724.93
                              786.49   821.73   853.42   955.98  1019.68
                             1051.80  1119.68  1187.35  1219.80  1241.69
                             1260.70  1277.80  1324.72  1359.81  1368.24
                             1415.82  1484.92  1493.24  1507.54  1523.58
                             1583.02  1589.83  1643.81  1648.90  1675.50
                             1716.30  1752.23  1772.25  1789.76  1799.32
                             1822.89  1832.74  1866.80  1888.26  1934.00
                             1952.36  1953.86  1976.36  1996.36  2011.28
                             2023.99  2026.29  2046.50  2108.51  2141.50
                             2159.68  2163.26  2167.61  2179.82  2189.50
                             2203.47  2209.08  2218.75  2237.77  2280.07
                             2367.00  4254.15  4286.82  4323.76  4367.31
                             4373.11  4397.77  4398.18  4401.55  4405.72
                             4460.20  4488.48  4523.96  4535.68  4552.93
                             4560.92  4600.97  5227.08

 Zero-point correction=                           0.283407 (Hartree/Particle)
 Thermal correction to Energy=                    0.298233
 Thermal correction to Enthalpy=                  0.299177
 Thermal correction to Gibbs Free Energy=         0.240381
 Sum of electronic and zero-point Energies=           -743.859072
 Sum of electronic and thermal Energies=              -743.844246
 Sum of electronic and thermal Enthalpies=            -743.843302
 Sum of electronic and thermal Free Energies=         -743.902098

                     E (Thermal)             CV                S
                      KCal/Mol        Cal/Mol-Kelvin    Cal/Mol-Kelvin
 Total                  187.144             56.679            123.747
 Electronic               0.000              0.000              0.000
 Translational            0.889              2.981             42.110
 Rotational               0.889              2.981             32.459
 Vibrational            185.367             50.717             49.178
 Vibration     1          0.594              1.983              5.729
 Vibration     2          0.594              1.982              5.340
 Vibration     3          0.596              1.974              4.540
 Vibration     4          0.601              1.958              3.716
 Vibration     5          0.604              1.948              3.428
 Vibration     6          0.609              1.931              3.072
 Vibration     7          0.624              1.885              2.490
 Vibration     8          0.632              1.857              2.254
 Vibration     9          0.645              1.818              2.001
 Vibration    10          0.666              1.753              1.688
 Vibration    11          0.695              1.665              1.393
 Vibration    12          0.707              1.633              1.303
 Vibration    13          0.724              1.584              1.186
 Vibration    14          0.749              1.515              1.043
 Vibration    15          0.763              1.477              0.975
 Vibration    16          0.785              1.420              0.882
 Vibration    17          0.799              1.386              0.831
 Vibration    18          0.809              1.361              0.795
 Vibration    19          0.832              1.306              0.724
 Vibration    20          0.859              1.241              0.649
 Vibration    21          0.902              1.147              0.551
 Vibration    22          0.927              1.094              0.502
 Vibration    23          0.951              1.046              0.462

                           ! Non-Optimized Parameters !
 Normal termination of Gaussian 16 at Fri Dec 11 00:43:23 2020.

 ----------------------------------------------------------------------
 # B3LYP/6-311++G(d,p) empiricaldispersion=gd3bj scf=xqc pop=npa geom=c
 heck
 ----------------------------------------------------------------------

 ---------------------------------------
 CID_107373000_JID_6786_Energie_neutraal
 ---------------------------------------
 Structure from the checkpoint file:  "JID_6786.chk"
 Charge =  0 Multiplicity = 1

 SCF Done:  E(RB3LYP) =  -744.353931402     A.U. after   15 cycles
 Normal termination of Gaussian 16 at Fri Dec 11 00:47:49 2020.

 ----------------------------------------------------------------------
 # B3LYP/6-311++G(d,p) empiricaldispersion=gd3bj scf=xqc pop=npa geom=c
 heck
 ----------------------------------------------------------------------

 -------------------------------------
 CID_107373000_JID_6786_Energie_kation
 -------------------------------------
 Structure from the checkpoint file:  "JID_6786.chk"
 Charge =  1 Multiplicity = 2

 SCF Done:  E(UB3LYP) =  -744.078065496     A.U. after   22 cycles
 Normal termination of Gaussian 16 at Fri Dec 11 00:56:44 2020.
 Gaussian 16:  ES64L-G16RevA.03 25-Dec-2016

 ----------------------------------------------------------------------
 # B3LYP/6-311++G(d,p) empiricaldispersion=gd3bj scf=xqc pop=npa geom=c
 heck
 ----------------------------------------------------------------------

 ------------------------------------
 CID_107373000_JID_6786_Energie_anion
 ------------------------------------
 Structure from the checkpoint file:  "JID_6786.chk"
 Charge = -1 Multiplicity = 2

                         Standard orientation:
 ---------------------------------------------------------------------
 Center     Atomic      Atomic             Coordinates (Angstroms)
 Number     Number       Type             X           Y           Z
 ---------------------------------------------------------------------
      1          6           0        1.058053    2.679095   -0.549559
      2          8           0        1.680061    1.454367   -0.880116
      3          6           0        2.650715    1.002655    0.054057
      4          6           0        3.495200   -0.056087   -0.659557
      5          6           0        2.675975   -1.322310   -0.946238
      6          6           0        2.014483   -1.831174    0.338977
      7          7           0        1.201509   -0.785968    0.972329
      8          6           0        1.987208    0.397252    1.309682
      9          6           0       -0.118563   -0.651411    0.580290
     10          7           0       -0.605572   -1.529247   -0.313161
     11          6           0       -1.889901   -1.416892   -0.658436
     12          6           0       -2.726250   -0.431221   -0.143733
     13          7           0       -2.250268    0.429511    0.770896
     14          6           0       -0.981570    0.325930    1.138825
     15          6           0       -4.191107   -0.273667   -0.501718
     16          8           0       -4.663763    1.018457   -0.194337
     17          1           0        0.430134    2.952810   -1.400530
     18          1           0        1.801491    3.473331   -0.379530
     19          1           0        0.416319    2.601722    0.339399
     20          1           0        3.287888    1.847786    0.365833
     21          1           0        3.893499    0.372991   -1.584813
     22          1           0        4.351256   -0.304098   -0.016635
     23          1           0        1.894383   -1.101638   -1.679771
     24          1           0        3.318391   -2.104190   -1.368931
     25          1           0        1.377166   -2.691837    0.142710
     26          1           0        2.781652   -2.123474    1.069193
     27          1           0        2.770566    0.102850    2.019771
     28          1           0        1.367038    1.137110    1.815524
     29          1           0       -2.259069   -2.139492   -1.385249
     30          1           0       -0.642962    1.016907    1.904549
     31          1           0       -4.338294   -0.455416   -1.574157
     32          1           0       -4.776357   -1.043498    0.033685
     33          1           0       -4.068619    1.342447    0.508585
 ---------------------------------------------------------------------

 SCF Done:  E(UB3LYP) =  -744.350488361     A.U. after   33 cycles
 SCF Done:  E(UB3LYP) =  -744.350488361     a.u. after    1 cycles

 The electronic state is 2-A.
 Alpha  occ. eigenvalues --  -19.01822 -19.00123 -14.21138 -14.17431 -14.16564
 Alpha  occ. eigenvalues --  -10.11577 -10.11321 -10.10619 -10.10386 -10.09453
 Alpha  occ. eigenvalues --  -10.08534 -10.07276 -10.06512 -10.06318 -10.06006
 Alpha  occ. eigenvalues --  -10.05796  -0.93286  -0.90935  -0.85823  -0.81682
 Alpha  occ. eigenvalues --   -0.76000  -0.69299  -0.65228  -0.64529  -0.58982
 Alpha  occ. eigenvalues --   -0.57806  -0.54003  -0.53005  -0.50866  -0.48671
 Alpha  occ. eigenvalues --   -0.45077  -0.41435  -0.40026  -0.39712  -0.37844
 Alpha  occ. eigenvalues --   -0.37580  -0.36052  -0.34875  -0.34027  -0.32890
 Alpha  occ. eigenvalues --   -0.32234  -0.31901  -0.30778  -0.29300  -0.29071
 Alpha  occ. eigenvalues --   -0.28563  -0.27846  -0.27578  -0.24628  -0.23451
 Alpha  occ. eigenvalues --   -0.23243  -0.22839  -0.20722  -0.19699  -0.17400
 Alpha  occ. eigenvalues --   -0.16919  -0.16216  -0.15309  -0.11823  -0.08462
 Alpha  occ. eigenvalues --    0.04620
 Alpha virt. eigenvalues --    0.06245   0.07768   0.08487   0.08692   0.09388
 Alpha virt. eigenvalues --    0.10340   0.10541   0.10685   0.11065   0.11959
 Alpha virt. eigenvalues --    0.12042   0.12298   0.12861   0.13367   0.13944

  Beta  occ. eigenvalues --  -19.01816 -19.00120 -14.21133 -14.17043 -14.16256
  Beta  occ. eigenvalues --  -10.11560 -10.11381 -10.10614 -10.10356 -10.09438
  Beta  occ. eigenvalues --  -10.08527 -10.07357 -10.06325 -10.06302 -10.05791
  Beta  occ. eigenvalues --  -10.05772  -0.93277  -0.90922  -0.85607  -0.81361
  Beta  occ. eigenvalues --   -0.75409  -0.69234  -0.65198  -0.64321  -0.58939
  Beta  occ. eigenvalues --   -0.57717  -0.53847  -0.52703  -0.50619  -0.48541
  Beta  occ. eigenvalues --   -0.44972  -0.41339  -0.39909  -0.39602  -0.37772
  Beta  occ. eigenvalues --   -0.37529  -0.36013  -0.34796  -0.33947  -0.32780
  Beta  occ. eigenvalues --   -0.32154  -0.31828  -0.30668  -0.29268  -0.28953
  Beta  occ. eigenvalues --   -0.28248  -0.27710  -0.27109  -0.24511  -0.23372
  Beta  occ. eigenvalues --   -0.23184  -0.22783  -0.20655  -0.18422  -0.16832
  Beta  occ. eigenvalues --   -0.16510  -0.16106  -0.14852  -0.11462  -0.07803
  Beta virt. eigenvalues --    0.07035   0.08121   0.08533   0.08882   0.09571
  Beta virt. eigenvalues --    0.09884   0.10371   0.10673   0.10813   0.11132
  Beta virt. eigenvalues --    0.12116   0.12196   0.12516   0.12955   0.13445

 Mulliken charges and spin densities:
               1          2
     1  C    0.191759  -0.425977
     2  O   -0.043482   0.015672
     3  C    0.037957   0.026815
     4  C    0.752139  -1.399761
     5  C   -0.391823   0.249610
     6  C   -0.204563  -0.076661
     7  N    0.344297  -0.033347
     8  C   -0.334186  -0.140503
     9  C   -0.207546  -0.208701
    10  N   -0.120743   0.146503
    11  C   -0.162208   0.219535
    12  C    0.100731  -0.104531
    13  N   -0.026844   0.167585
    14  C   -0.312349   0.146179
    15  C   -0.546729  -0.011586
    16  O   -0.302023  -0.001697
    17  H    0.079036   0.050625
    18  H   -0.184941   0.327733
    19  H    0.110069   0.035786
    20  H   -0.720354   0.896262
    21  H   -0.046920   0.217668
    22  H   -0.092472   0.224322
    23  H    0.219651  -0.029625
    24  H    0.099045   0.038286
    25  H    0.183073   0.026348
    26  H    0.025269   0.106435
    27  H   -0.391937   0.543620
    28  H    0.165260  -0.028351
    29  H    0.136497  -0.008638
    30  H    0.093601   0.019890
    31  H    0.142305   0.017620
    32  H    0.132317  -0.002772
    33  H    0.276113  -0.004346
 Sum of Mulliken charges =  -1.00000   1.00000

 Dipole moment (field-independent basis, Debye):
    X=             -0.8187    Y=             -2.8389    Z=             -0.4497  Tot=              2.9886
 Quadrupole moment (field-independent basis, Debye-Ang):
   XX=           -172.4342   YY=           -124.4089   ZZ=           -115.4744
   XY=             -5.1517   XZ=             -3.4791   YZ=              1.7956

 Summary of Natural Population Analysis:

                                       Natural Population
                Natural  -----------------------------------------------
    Atom  No    Charge         Core      Valence    Rydberg      Total
 -----------------------------------------------------------------------
      C    1   -0.09738      0.99960     2.08849    0.00928     3.09738
      O    2   -0.30181      0.99988     3.29198    0.00996     4.30181
      C    3    0.06040      0.99954     1.92329    0.01678     2.93960
      C    4   -0.19651      0.99960     2.18612    0.01079     3.19651
      C    5   -0.20116      0.99962     2.19309    0.00845     3.20116
      C    6   -0.08623      0.99962     2.07470    0.01192     3.08623
      N    7   -0.25674      0.99966     2.74526    0.01182     3.75674
      C    8   -0.09461      0.99959     2.08287    0.01215     3.09461
      C    9    0.18267      0.99952     1.80225    0.01557     2.81733
      N   10   -0.21490      0.99967     2.70495    0.01027     3.71490
      C   11    0.04443      0.99954     1.94343    0.01259     2.95557
      C   12    0.03224      0.99954     1.95628    0.01194     2.96776
      N   13   -0.19755      0.99965     2.68459    0.01331     3.69755
      C   14    0.03360      0.99957     1.95396    0.01287     2.96640
      C   15   -0.01281      0.99958     2.00202    0.01121     3.01281
      O   16   -0.38054      0.99990     3.37337    0.00727     4.38054
      H   17    0.09003      0.00000     0.40899    0.00097     0.40997
      H   18    0.07629      0.00000     0.42233    0.00138     0.42371
      H   19    0.08292      0.00000     0.41554    0.00154     0.41708
      H   20    0.08446      0.00000     0.41220    0.00334     0.41554
      H   21    0.10264      0.00000     0.39614    0.00122     0.39736
      H   22    0.09606      0.00000     0.40243    0.00151     0.40394
      H   23    0.10932      0.00000     0.38925    0.00143     0.39068
      H   24    0.09280      0.00000     0.40629    0.00091     0.40720
      H   25    0.11362      0.00000     0.38516    0.00123     0.38638
      H   26    0.08618      0.00000     0.41283    0.00099     0.41382
      H   27    0.09695      0.00000     0.40182    0.00124     0.40305
      H   28    0.10214      0.00000     0.39657    0.00128     0.39786
      H   29    0.08042      0.00000     0.41832    0.00126     0.41958
      H   30    0.08136      0.00000     0.41681    0.00182     0.41864
      H   31    0.08033      0.00000     0.41822    0.00145     0.41967
      H   32    0.07163      0.00000     0.42680    0.00158     0.42837
      H   33    0.23977      0.00000     0.25587    0.00435     0.26023
 =======================================================================
   * Total *   -0.00000     15.99409    43.79225    0.21367    60.00000

 Normal termination of Gaussian 16 at Fri Dec 11 01:10:54 2020.
