 Gaussian 16, Revision A.03,

 -----------------------------------------------------------
 # opt freq B3LYP/6-31G(d) empiricaldispersion=gd3bj scf=xqc
 -----------------------------------------------------------

 ------------------------------
 CID_116025409_JID_567_neutraal
 ------------------------------
 Symbolic Z-matrix:
 Charge =  0 Multiplicity = 1

 SCF Done:  E(RB3LYP) =  -443.782564345     A.U. after   13 cycles
 SCF Done:  E(RB3LYP) =  -443.801792611     A.U. after   12 cycles
 SCF Done:  E(RB3LYP) =  -443.803046134     A.U. after   12 cycles
 SCF Done:  E(RB3LYP) =  -443.798468304     A.U. after   14 cycles
 SCF Done:  E(RB3LYP) =  -443.803429721     A.U. after   12 cycles
 SCF Done:  E(RB3LYP) =  -443.802662590     A.U. after   12 cycles
 SCF Done:  E(RB3LYP) =  -443.803681512     A.U. after   11 cycles
 SCF Done:  E(RB3LYP) =  -443.803724638     A.U. after   10 cycles
 SCF Done:  E(RB3LYP) =  -443.803733946     A.U. after    9 cycles
 SCF Done:  E(RB3LYP) =  -443.803737788     A.U. after    8 cycles
 SCF Done:  E(RB3LYP) =  -443.803739227     A.U. after    8 cycles
 SCF Done:  E(RB3LYP) =  -443.803739859     A.U. after    8 cycles
 Optimization completed.
    -- Stationary point found.
 Normal termination of Gaussian 16 at Mon Dec 14 16:25:32 2020.

 --------------------------------------------------------------------
 #N Geom=AllCheck Guess=TCheck SCRF=Check GenChk RB3LYP/6-31G(d) Freq
 --------------------------------------------------------------------

 Structure from the checkpoint file:  "JID_567.chk"
 ------------------------------
 CID_116025409_JID_567_neutraal
 ------------------------------
 Charge =  0 Multiplicity = 1

 SCF Done:  E(RB3LYP) =  -443.803739859     A.U. after    1 cycles

  Exact polarizability: 124.614  14.102  85.966   0.748   0.662  71.757
 Approx polarizability: 155.919  25.857 122.581   1.998   2.447 103.109

 ******    1 imaginary frequencies (negative Signs) ******

                      1                      2                      3
                      A                      A                      A
 Frequencies --    -19.9156                27.4292                45.2633
 Red. masses --      1.0180                 4.5005                 3.5160
 Frc consts  --      0.0002                 0.0020                 0.0042
 IR Inten    --      0.0050                 0.1046                 0.1996

                      4                      5                      6
                      A                      A                      A
 Frequencies --     65.9414                92.0657               128.5090
 Red. masses --      3.2063                 3.6451                 3.3182
 Frc consts  --      0.0082                 0.0182                 0.0323
 IR Inten    --      2.1772                 1.0158                 7.9234

                      7                      8                      9
                      A                      A                      A
 Frequencies --    194.8388               213.5052               244.9469
 Red. masses --      2.5180                 2.5724                 2.3005
 Frc consts  --      0.0563                 0.0691                 0.0813
 IR Inten    --      6.4712                 7.3088                13.7637

                     10                     11                     12
                      A                      A                      A
 Frequencies --    291.5400               311.0536               329.8966
 Red. masses --      2.2012                 1.6333                 2.0811
 Frc consts  --      0.1102                 0.0931                 0.1334
 IR Inten    --     31.4769                40.2371                36.1548

                     13                     14                     15
                      A                      A                      A
 Frequencies --    368.2884               382.3077               461.8327
 Red. masses --      4.2679                 2.0551                 2.5938
 Frc consts  --      0.3411                 0.1770                 0.3260
 IR Inten    --      0.3500                 0.8316                 1.8752

                     16                     17                     18
                      A                      A                      A
 Frequencies --    496.9896               575.0428               717.8200
 Red. masses --      3.7055                 2.6288                 1.2399
 Frc consts  --      0.5393                 0.5122                 0.3764
 IR Inten    --      1.3593                 4.1023                55.6813

                     19                     20                     21
                      A                      A                      A
 Frequencies --    759.0197               788.7602               823.8463
 Red. masses --      1.6573                 3.2813                 2.3635
 Frc consts  --      0.5625                 1.2028                 0.9452
 IR Inten    --     36.6937                 4.4771                42.6812

                     22                     23                     24
                      A                      A                      A
 Frequencies --    887.4041               930.8510               994.5941
 Red. masses --      1.9034                 2.0177                 2.1433
 Frc consts  --      0.8831                 1.0301                 1.2492
 IR Inten    --      4.7491                16.6577                 3.7801

                     25                     26                     27
                      A                      A                      A
 Frequencies --   1005.0262              1037.2309              1070.4209
 Red. masses --      1.7271                 1.4899                 1.3952
 Frc consts  --      1.0278                 0.9444                 0.9419
 IR Inten    --      8.9276                14.5204                 2.4148

                     28                     29                     30
                      A                      A                      A
 Frequencies --   1071.6551              1089.3219              1106.6306
 Red. masses --      1.3879                 3.1533                 2.4065
 Frc consts  --      0.9391                 2.2046                 1.7363
 IR Inten    --      1.9863               111.5508                 3.6456

                     31                     32                     33
                      A                      A                      A
 Frequencies --   1118.3678              1153.6904              1184.4340
 Red. masses --      1.7534                 3.2856                 3.3806
 Frc consts  --      1.2921                 2.5766                 2.7943
 IR Inten    --     13.9580                17.1399                15.4862

                     34                     35                     36
                      A                      A                      A
 Frequencies --   1201.0155              1225.2975              1254.3860
 Red. masses --      1.2358                 1.3807                 1.2122
 Frc consts  --      1.0503                 1.2213                 1.1238
 IR Inten    --      6.4371                12.0160                10.3009

                     37                     38                     39
                      A                      A                      A
 Frequencies --   1312.7277              1334.3978              1385.8459
 Red. masses --      1.2277                 1.1595                 1.3631
 Frc consts  --      1.2465                 1.2164                 1.5424
 IR Inten    --      1.6605                 5.7708                22.1155

                     40                     41                     42
                      A                      A                      A
 Frequencies --   1393.7034              1409.6942              1413.2227
 Red. masses --      1.4991                 1.1879                 1.3124
 Frc consts  --      1.7156                 1.3909                 1.5443
 IR Inten    --      3.8276                37.6888                22.0590

                     43                     44                     45
                      A                      A                      A
 Frequencies --   1424.8313              1441.7921              1444.9118
 Red. masses --      1.3816                 1.2867                 1.2392
 Frc consts  --      1.6526                 1.5759                 1.5243
 IR Inten    --      3.5735                42.7969                 2.5821

                     46                     47                     48
                      A                      A                      A
 Frequencies --   1504.2168              1508.0972              1509.7275
 Red. masses --      1.0878                 1.0412                 1.0852
 Frc consts  --      1.4501                 1.3952                 1.4573
 IR Inten    --      9.7389                 4.9738                 6.0622

                     49                     50                     51
                      A                      A                      A
 Frequencies --   1510.1274              1514.1808              1530.0444
 Red. masses --      1.0665                 1.1667                 1.0948
 Frc consts  --      1.4330                 1.5760                 1.5100
 IR Inten    --      7.5929                29.3640                15.1530

                     52                     53                     54
                      A                      A                      A
 Frequencies --   1532.8844              1539.7660              2380.4570
 Red. masses --      1.0837                 1.0865                11.8235
 Frc consts  --      1.5004                 1.5177                39.4744
 IR Inten    --      0.5186                 1.4753                 4.3561

                     55                     56                     57
                      A                      A                      A
 Frequencies --   2942.1311              2992.6482              3030.1760
 Red. masses --      1.0729                 1.0726                 1.0696
 Frc consts  --      5.4717                 5.6596                 5.7863
 IR Inten    --     52.7122                60.7153                19.1787

                     58                     59                     60
                      A                      A                      A
 Frequencies --   3031.5896              3035.9083              3039.1845
 Red. masses --      1.0804                 1.0634                 1.0348
 Frc consts  --      5.8503                 5.7747                 5.6317
 IR Inten    --     28.6974                19.3839                42.6585

                     61                     62                     63
                      A                      A                      A
 Frequencies --   3041.5933              3065.9268              3083.9510
 Red. masses --      1.0627                 1.1019                 1.0982
 Frc consts  --      5.7924                 6.1027                 6.1536
 IR Inten    --     43.1591                22.4206                76.6815

                     64                     65                     66
                      A                      A                      A
 Frequencies --   3085.4515              3099.7887              3100.6047
 Red. masses --      1.0984                 1.1013                 1.1017
 Frc consts  --      6.1612                 6.2347                 6.2403
 IR Inten    --     48.0283                13.8021                13.4003

                     67                     68                     69
                      A                      A                      A
 Frequencies --   3103.9518              3508.2527              3754.3693
 Red. masses --      1.0932                 1.0740                 1.0660
 Frc consts  --      6.2055                 7.7881                 8.8531
 IR Inten    --     45.0681                 0.5414                 7.3741

 - Thermochemistry -
 -------------------
 Temperature   298.150 Kelvin.  Pressure   1.00000 Atm.
 Atom     1 has atomic number  6 and mass  12.00000

 Molecular mass:   141.11536 amu.
 Principal axes and moments of inertia in atomic units:
                           1         2         3
     Eigenvalues --   623.039424170.176934439.35624
           X            0.99992   0.01217   0.00216
           Y           -0.01219   0.99986   0.01144
           Z           -0.00202  -0.01146   0.99993
 This molecule is an asymmetric top.
 Rotational symmetry number  1.
 Warning -- assumption of classical behavior for rotation
           may cause significant error
 Rotational temperatures (Kelvin)      0.13902     0.02077     0.01951
 Rotational constants (GHZ):           2.89667     0.43277     0.40653
    1 imaginary frequencies ignored.
 Zero-point vibrational energy     584108.9 (Joules/Mol)
                                  139.60537 (Kcal/Mol)
 Warning -- explicit consideration of  16 degrees of freedom as
           vibrations may cause significant error
 Vibrational temperatures:     39.46    65.12    94.87   132.46   184.90
          (Kelvin)            280.33   307.19   352.42   419.46   447.54
                              474.65   529.88   550.06   664.47   715.06
                              827.36  1032.78  1092.06  1134.85  1185.33
                             1276.78  1339.29  1431.00  1446.01  1492.34
                             1540.10  1541.87  1567.29  1592.19  1609.08
                             1659.90  1704.14  1727.99  1762.93  1804.78
                             1888.72  1919.90  1993.92  2005.23  2028.24
                             2033.31  2050.01  2074.42  2078.91  2164.23
                             2169.82  2172.16  2172.74  2178.57  2201.39
                             2205.48  2215.38  3424.95  4233.07  4305.75
                             4359.75  4361.78  4367.99  4372.71  4376.17
                             4411.18  4437.12  4439.28  4459.90  4461.08
                             4465.89  5047.59  5401.70

 Zero-point correction=                           0.222475 (Hartree/Particle)
 Thermal correction to Energy=                    0.234295
 Thermal correction to Enthalpy=                  0.235239
 Thermal correction to Gibbs Free Energy=         0.183078
 Sum of electronic and zero-point Energies=           -443.581265
 Sum of electronic and thermal Energies=              -443.569445
 Sum of electronic and thermal Enthalpies=            -443.568501
 Sum of electronic and thermal Free Energies=         -443.620662

                     E (Thermal)             CV                S
                      KCal/Mol        Cal/Mol-Kelvin    Cal/Mol-Kelvin
 Total                  147.022             41.762            109.783
 Electronic               0.000              0.000              0.000
 Translational            0.889              2.981             40.745
 Rotational               0.889              2.981             30.823
 Vibrational            145.245             35.800             38.215
 Vibration     1          0.593              1.984              6.007
 Vibration     2          0.595              1.979              5.014
 Vibration     3          0.597              1.971              4.271
 Vibration     4          0.602              1.955              3.616
 Vibration     5          0.611              1.925              2.968
 Vibration     6          0.636              1.847              2.181
 Vibration     7          0.644              1.820              2.013
 Vibration     8          0.660              1.771              1.767
 Vibration     9          0.687              1.689              1.465
 Vibration    10          0.700              1.653              1.357
 Vibration    11          0.713              1.616              1.261
 Vibration    12          0.741              1.537              1.087
 Vibration    13          0.752              1.508              1.030
 Vibration    14          0.820              1.335              0.761
 Vibration    15          0.853              1.257              0.666
 Vibration    16          0.931              1.085              0.495

                           ! Non-Optimized Parameters !
 Normal termination of Gaussian 16 at Mon Dec 14 16:29:05 2020.

 ----------------------------------------------------------------------
 # B3LYP/6-311++G(d,p) empiricaldispersion=gd3bj scf=xqc pop=npa geom=c
 heck
 ----------------------------------------------------------------------

 --------------------------------------
 CID_116025409_JID_567_Energie_neutraal
 --------------------------------------
 Structure from the checkpoint file:  "JID_567.chk"
 Charge =  0 Multiplicity = 1

 SCF Done:  E(RB3LYP) =  -443.947846589     A.U. after   13 cycles
 Normal termination of Gaussian 16 at Mon Dec 14 16:30:21 2020.

 ----------------------------------------------------------------------
 # B3LYP/6-311++G(d,p) empiricaldispersion=gd3bj scf=xqc pop=npa geom=c
 heck
 ----------------------------------------------------------------------

 ------------------------------------
 CID_116025409_JID_567_Energie_kation
 ------------------------------------
 Structure from the checkpoint file:  "JID_567.chk"
 Charge =  1 Multiplicity = 2

 SCF Done:  E(UB3LYP) =  -443.638955944     A.U. after   22 cycles
 Normal termination of Gaussian 16 at Mon Dec 14 16:33:10 2020.
 Gaussian 16:  ES64L-G16RevA.03 25-Dec-2016

 ----------------------------------------------------------------------
 # B3LYP/6-311++G(d,p) empiricaldispersion=gd3bj scf=xqc pop=npa geom=c
 heck
 ----------------------------------------------------------------------

 -----------------------------------
 CID_116025409_JID_567_Energie_anion
 -----------------------------------
 Structure from the checkpoint file:  "JID_567.chk"
 Charge = -1 Multiplicity = 2

                         Standard orientation:
 ---------------------------------------------------------------------
 Center     Atomic      Atomic             Coordinates (Angstroms)
 Number     Number       Type             X           Y           Z
 ---------------------------------------------------------------------
      1          6           0       -4.883592   -1.020479   -0.109039
      2          6           0       -3.618488   -0.306910    0.040599
      3          6           0       -2.577336    0.295672    0.157396
      4          6           0       -1.297922    0.988491    0.314691
      5          7           0       -0.362850    0.623303   -0.753722
      6          6           0        0.951663    1.249725   -0.640146
      7          6           0        1.761889    0.964366    0.641620
      8          6           0        1.968118   -0.526082    0.947195
      9          6           0        2.706537   -1.296275   -0.151140
     10          8           0        4.006136   -0.780159   -0.417993
     11          1           0       -4.721264   -2.044399   -0.466867
     12          1           0       -5.542896   -0.518647   -0.827407
     13          1           0       -5.418986   -1.085185    0.845953
     14          1           0       -1.451272    2.075951    0.260213
     15          1           0       -0.912154    0.788225    1.331669
     16          1           0       -0.274819   -0.389938   -0.784991
     17          1           0        1.526262    0.938842   -1.522260
     18          1           0        0.811493    2.334576   -0.736701
     19          1           0        2.740013    1.457345    0.551349
     20          1           0        1.275797    1.438744    1.502566
     21          1           0        2.534661   -0.623764    1.880809
     22          1           0        0.996059   -1.010591    1.116908
     23          1           0        2.862634   -2.332091    0.165859
     24          1           0        2.102909   -1.331347   -1.072814
     25          1           0        3.897212    0.089380   -0.831347
 ---------------------------------------------------------------------

 SCF Done:  E(UB3LYP) =  -443.934317517     A.U. after   30 cycles

 The electronic state is 2-A.
 Alpha  occ. eigenvalues --  -19.02435 -14.20162 -10.11936 -10.11548 -10.09345
 Alpha  occ. eigenvalues --  -10.08779 -10.07145 -10.06800 -10.06502 -10.05896
 Alpha  occ. eigenvalues --   -0.92533  -0.81297  -0.69462  -0.67808  -0.63914
 Alpha  occ. eigenvalues --   -0.60421  -0.56907  -0.53366  -0.47358  -0.42821
 Alpha  occ. eigenvalues --   -0.40707  -0.38296  -0.36924  -0.35850  -0.34068
 Alpha  occ. eigenvalues --   -0.33914  -0.32849  -0.32750  -0.31817  -0.30622
 Alpha  occ. eigenvalues --   -0.29272  -0.26245  -0.24991  -0.24590  -0.22683
 Alpha  occ. eigenvalues --   -0.18097  -0.16208  -0.15814  -0.12951   0.04372
 Alpha virt. eigenvalues --    0.05862   0.07492   0.07566   0.08777   0.09510
 Alpha virt. eigenvalues --    0.09683   0.10257   0.10910   0.11203   0.11624
 Alpha virt. eigenvalues --    0.12038   0.13410   0.14350   0.14521   0.15090

  Beta  occ. eigenvalues --  -19.02395 -14.20156 -10.11918 -10.11525 -10.09316
  Beta  occ. eigenvalues --  -10.08722 -10.07133 -10.06772 -10.06498 -10.05893
  Beta  occ. eigenvalues --   -0.92447  -0.81276  -0.69417  -0.67761  -0.63858
  Beta  occ. eigenvalues --   -0.60355  -0.56840  -0.53297  -0.47284  -0.42775
  Beta  occ. eigenvalues --   -0.40643  -0.38255  -0.36862  -0.35789  -0.34032
  Beta  occ. eigenvalues --   -0.33858  -0.32797  -0.32692  -0.31781  -0.30570
  Beta  occ. eigenvalues --   -0.29237  -0.26208  -0.24946  -0.24545  -0.22649
  Beta  occ. eigenvalues --   -0.18049  -0.16186  -0.15794  -0.12931
  Beta virt. eigenvalues --    0.06562   0.07116   0.07913   0.08150   0.09202
  Beta virt. eigenvalues --    0.10121   0.10216   0.10709   0.11143   0.11663
  Beta virt. eigenvalues --    0.12026   0.12280   0.13607   0.14477   0.14789

 Mulliken charges and spin densities:
               1          2
     1  C    2.144491  -2.694299
     2  C   -0.789683   0.852506
     3  C    0.481267  -0.432087
     4  C   -0.898809   0.378490
     5  N   -0.113548   0.056631
     6  C    0.203747  -0.509566
     7  C    0.202665  -0.373888
     8  C   -0.502606   0.215086
     9  C    0.908341  -1.342067
    10  O   -0.276377   0.033986
    11  H   -0.397714   0.562467
    12  H   -0.280042   0.434269
    13  H   -0.374211   0.530026
    14  H   -0.104807   0.264623
    15  H    0.058368   0.060721
    16  H    0.224740  -0.049598
    17  H   -0.345839   0.522889
    18  H   -0.265104   0.416510
    19  H   -0.369205   0.530128
    20  H   -0.269702   0.416247
    21  H   -0.083617   0.251772
    22  H   -0.036855   0.184763
    23  H    0.059324   0.102701
    24  H   -0.110101   0.270659
    25  H   -0.064721   0.317031
 Sum of Mulliken charges =  -1.00000   1.00000

 Dipole moment (field-independent basis, Debye):
    X=              2.1414    Y=             -0.1976    Z=              1.0194  Tot=              2.3799
 Quadrupole moment (field-independent basis, Debye-Ang):
   XX=           -165.1921   YY=            -96.8761   ZZ=            -92.6304
   XY=            -10.9437   XZ=              2.3455   YZ=              0.5370

 Summary of Natural Population Analysis:

                                       Natural Population
                Natural  -----------------------------------------------
    Atom  No    Charge         Core      Valence    Rydberg      Total
 -----------------------------------------------------------------------
      C    1   -0.31734      0.99962     2.31234    0.00539     3.31734
      C    2   -0.00286      0.99923     1.99765    0.00598     3.00286
      C    3   -0.03686      0.99926     2.02470    0.01290     3.03686
      C    4   -0.07445      0.99957     2.06030    0.01458     3.07445
      N    5   -0.34167      0.99976     2.82578    0.01613     3.84167
      C    6   -0.09238      0.99962     2.07765    0.01511     3.09238
      C    7   -0.20791      0.99962     2.19752    0.01076     3.20791
      C    8   -0.20687      0.99962     2.19902    0.00822     3.20687
      C    9   -0.00975      0.99960     1.99799    0.01216     3.00975
      O   10   -0.37026      0.99990     3.36336    0.00700     4.37026
      H   11    0.11225      0.00000     0.38531    0.00244     0.38775
      H   12    0.10995      0.00000     0.38801    0.00204     0.39005
      H   13    0.11098      0.00000     0.38678    0.00224     0.38902
      H   14    0.10020      0.00000     0.39762    0.00218     0.39980
      H   15    0.08993      0.00000     0.40758    0.00248     0.41007
      H   16    0.17058      0.00000     0.32496    0.00446     0.32942
      H   17    0.09327      0.00000     0.40512    0.00161     0.40673
      H   18    0.09427      0.00000     0.40416    0.00157     0.40573
      H   19    0.10040      0.00000     0.39748    0.00213     0.39960
      H   20    0.09896      0.00000     0.39948    0.00157     0.40104
      H   21    0.10012      0.00000     0.39865    0.00124     0.39988
      H   22    0.09711      0.00000     0.40124    0.00165     0.40289
      H   23    0.08487      0.00000     0.41379    0.00134     0.41513
      H   24    0.07394      0.00000     0.42445    0.00160     0.42606
      H   25    0.23027      0.00000     0.26510    0.00463     0.26973
 =======================================================================
   * Total *    0.00673      9.99581    28.85605    0.14141    38.99327

 Normal termination of Gaussian 16 at Mon Dec 14 16:36:58 2020.
