 Gaussian 16, Revision A.03,

 -----------------------------------------------------------
 # opt freq B3LYP/6-31G(d) empiricaldispersion=gd3bj scf=xqc
 -----------------------------------------------------------

 -------------------------------
 CID_135637374_JID_3152_neutraal
 -------------------------------
 Symbolic Z-matrix:
 Charge =  0 Multiplicity = 1

 SCF Done:  E(RB3LYP) =  -661.945352148     A.U. after   15 cycles
 SCF Done:  E(RB3LYP) =  -661.947015630     A.U. after   13 cycles
 SCF Done:  E(RB3LYP) =  -661.945305599     A.U. after   13 cycles
 SCF Done:  E(RB3LYP) =  -661.948226441     A.U. after   12 cycles
 SCF Done:  E(RB3LYP) =  -661.949543601     A.U. after   12 cycles
 SCF Done:  E(RB3LYP) =  -661.950168310     A.U. after   12 cycles
 SCF Done:  E(RB3LYP) =  -661.950254836     A.U. after   12 cycles
 SCF Done:  E(RB3LYP) =  -661.950301107     A.U. after   10 cycles
 SCF Done:  E(RB3LYP) =  -661.950339634     A.U. after   10 cycles
 SCF Done:  E(RB3LYP) =  -661.950394449     A.U. after   12 cycles
 SCF Done:  E(RB3LYP) =  -661.950506041     A.U. after   10 cycles
 SCF Done:  E(RB3LYP) =  -661.950507662     A.U. after   10 cycles
 SCF Done:  E(RB3LYP) =  -661.950508424     A.U. after    9 cycles
 SCF Done:  E(RB3LYP) =  -661.950508288     A.U. after    9 cycles
 SCF Done:  E(RB3LYP) =  -661.950508666     A.U. after    8 cycles
 Optimization completed.
    -- Stationary point found.
 Normal termination of Gaussian 16 at Wed Dec  9 22:27:34 2020.

 --------------------------------------------------------------------
 #N Geom=AllCheck Guess=TCheck SCRF=Check GenChk RB3LYP/6-31G(d) Freq
 --------------------------------------------------------------------

 Structure from the checkpoint file:  "JID_3152.chk"
 -------------------------------
 CID_135637374_JID_3152_neutraal
 -------------------------------
 Charge =  0 Multiplicity = 1

 SCF Done:  E(RB3LYP) =  -661.950508666     A.U. after    1 cycles

  Exact polarizability: 132.685   9.410 107.001   9.963   0.285  65.394
 Approx polarizability: 197.289  22.080 186.229  21.043   4.640 102.051

                      1                      2                      3
                      A                      A                      A
 Frequencies --     43.8323                71.6499               115.5964
 Red. masses --      3.9721                 4.6952                 1.1778
 Frc consts  --      0.0045                 0.0142                 0.0093
 IR Inten    --      0.2084                 0.1709                 0.3374

                      4                      5                      6
                      A                      A                      A
 Frequencies --    137.3729               148.7826               153.9318
 Red. masses --      4.2819                 3.4953                 5.2685
 Frc consts  --      0.0476                 0.0456                 0.0736
 IR Inten    --      2.0789                 0.6796                 0.1188

                      7                      8                      9
                      A                      A                      A
 Frequencies --    189.4068               211.4953               261.0495
 Red. masses --      1.2038                 5.2389                 4.7040
 Frc consts  --      0.0254                 0.1381                 0.1889
 IR Inten    --      0.0419                 1.0770                 0.2739

                     10                     11                     12
                      A                      A                      A
 Frequencies --    298.8341               309.0582               323.0195
 Red. masses --      3.2271                 3.6600                 3.6000
 Frc consts  --      0.1698                 0.2060                 0.2213
 IR Inten    --      0.7752                 4.4622                 0.2655

                     13                     14                     15
                      A                      A                      A
 Frequencies --    367.6431               407.6954               419.4919
 Red. masses --      3.7673                 2.8801                 1.5579
 Frc consts  --      0.3000                 0.2820                 0.1615
 IR Inten    --     46.6523                 8.1994                60.3678

                     16                     17                     18
                      A                      A                      A
 Frequencies --    444.4617               502.7915               553.5491
 Red. masses --      1.5362                 4.7621                 3.1732
 Frc consts  --      0.1788                 0.7093                 0.5729
 IR Inten    --     94.9804                22.0937                17.8762

                     19                     20                     21
                      A                      A                      A
 Frequencies --    591.2976               597.2547               632.9864
 Red. masses --      4.6842                 5.1389                 4.4848
 Frc consts  --      0.9649                 1.0800                 1.0587
 IR Inten    --      4.4948                 2.7284                 5.2618

                     22                     23                     24
                      A                      A                      A
 Frequencies --    643.4164               740.5703               753.0937
 Red. masses --      5.1653                 3.9248                 4.4852
 Frc consts  --      1.2599                 1.2682                 1.4988
 IR Inten    --     11.7275                15.4662                24.1885

                     25                     26                     27
                      A                      A                      A
 Frequencies --    841.9506               898.4364               940.5138
 Red. masses --      1.5501                 6.8392                 9.4431
 Frc consts  --      0.6474                 3.2526                 4.9215
 IR Inten    --      9.2297                43.4056                 9.4841

                     28                     29                     30
                      A                      A                      A
 Frequencies --    957.0033               974.5341              1048.0218
 Red. masses --      6.1880                 3.6628                 2.5669
 Frc consts  --      3.3391                 2.0496                 1.6611
 IR Inten    --     67.6590               114.4102                11.2923

                     31                     32                     33
                      A                      A                      A
 Frequencies --   1053.8908              1067.2827              1073.7005
 Red. masses --      2.2578                 1.5704                 1.5219
 Frc consts  --      1.4775                 1.0539                 1.0337
 IR Inten    --    130.1736                15.2454                 4.6091

                     34                     35                     36
                      A                      A                      A
 Frequencies --   1084.7423              1175.0921              1185.8083
 Red. masses --      2.6834                 2.2503                 3.8954
 Frc consts  --      1.8603                 1.8308                 3.2272
 IR Inten    --     14.4904                28.1092                38.3417

                     37                     38                     39
                      A                      A                      A
 Frequencies --   1304.6869              1332.6764              1383.8041
 Red. masses --      2.4246                 3.7197                 1.6633
 Frc consts  --      2.4316                 3.8923                 1.8766
 IR Inten    --     19.6171                19.5114                31.4279

                     40                     41                     42
                      A                      A                      A
 Frequencies --   1404.9019              1428.9934              1436.1735
 Red. masses --      1.4513                 2.0007                 1.4014
 Frc consts  --      1.6877                 2.4070                 1.7031
 IR Inten    --     55.3213                25.9320                28.8531

                     43                     44                     45
                      A                      A                      A
 Frequencies --   1441.6189              1502.5794              1504.7322
 Red. masses --      1.5392                 1.4632                 1.0471
 Frc consts  --      1.8847                 1.9463                 1.3968
 IR Inten    --     10.5697                 0.3963                 7.4189

                     46                     47                     48
                      A                      A                      A
 Frequencies --   1507.8703              1512.1998              1538.6515
 Red. masses --      1.0571                 1.0518                 2.7520
 Frc consts  --      1.4161                 1.4171                 3.8387
 IR Inten    --      8.0151                 7.0621                23.6653

                     49                     50                     51
                      A                      A                      A
 Frequencies --   1616.0449              1716.5453              1726.6182
 Red. masses --      6.3298                 7.1980                 6.7827
 Frc consts  --      9.7397                12.4960                11.9136
 IR Inten    --     24.2501                 3.3573                14.1487

                     52                     53                     54
                      A                      A                      A
 Frequencies --   3048.4680              3066.2220              3102.5166
 Red. masses --      1.0397                 1.0421                 1.0990
 Frc consts  --      5.6927                 5.7726                 6.2328
 IR Inten    --     16.6774                 8.0963                14.7574

                     55                     56                     57
                      A                      A                      A
 Frequencies --   3132.3956              3160.6391              3173.2851
 Red. masses --      1.0933                 1.1004                 1.1031
 Frc consts  --      6.3206                 6.4764                 6.5446
 IR Inten    --      7.8757                 8.6518                 8.4163

                     58                     59                     60
                      A                      A                      A
 Frequencies --   3286.0584              3758.2760              3760.9288
 Red. masses --      1.0987                 1.0676                 1.0678
 Frc consts  --      6.9900                 8.8847                 8.8986
 IR Inten    --      0.2665                86.3322                86.2625

 - Thermochemistry -
 -------------------
 Temperature   298.150 Kelvin.  Pressure   1.00000 Atm.
 Atom     1 has atomic number  6 and mass  12.00000

 Molecular mass:   183.06439 amu.
 Principal axes and moments of inertia in atomic units:
                           1         2         3
     Eigenvalues --  1636.828002622.373053744.95375
           X            0.99998   0.00287   0.00581
           Y           -0.00278   0.99987  -0.01577
           Z           -0.00586   0.01576   0.99986
 This molecule is an asymmetric top.
 Rotational symmetry number  1.
 Warning -- assumption of classical behavior for rotation
           may cause significant error
 Rotational temperatures (Kelvin)      0.05292     0.03303     0.02313
 Rotational constants (GHZ):           1.10258     0.68821     0.48191
 Zero-point vibrational energy     437032.6 (Joules/Mol)
                                  104.45330 (Kcal/Mol)
 Warning -- explicit consideration of  20 degrees of freedom as
           vibrations may cause significant error
 Vibrational temperatures:     63.06   103.09   166.32   197.65   214.07
          (Kelvin)            221.47   272.51   304.29   375.59   429.96
                              444.67   464.75   528.96   586.58   603.56
                              639.48   723.40   796.43   850.75   859.32
                              910.73   925.73  1065.52  1083.53  1211.38
                             1292.65  1353.19  1376.91  1402.14  1507.87
                             1516.31  1535.58  1544.82  1560.70  1690.70
                             1706.11  1877.15  1917.42  1990.99  2021.34
                             2056.00  2066.33  2074.17  2161.88  2164.97
                             2169.49  2175.72  2213.78  2325.13  2469.73
                             2484.22  4386.07  4411.61  4463.83  4506.82
                             4547.45  4565.65  4727.91  5407.32  5411.14

 Zero-point correction=                           0.166457 (Hartree/Particle)
 Thermal correction to Energy=                    0.179321
 Thermal correction to Enthalpy=                  0.180265
 Thermal correction to Gibbs Free Energy=         0.127232
 Sum of electronic and zero-point Energies=           -661.784052
 Sum of electronic and thermal Energies=              -661.771187
 Sum of electronic and thermal Enthalpies=            -661.770243
 Sum of electronic and thermal Free Energies=         -661.823276

                     E (Thermal)             CV                S
                      KCal/Mol        Cal/Mol-Kelvin    Cal/Mol-Kelvin
 Total                  112.526             47.202            111.617
 Electronic               0.000              0.000              0.000
 Translational            0.889              2.981             41.520
 Rotational               0.889              2.981             31.153
 Vibrational            110.748             41.240             38.944
 Vibration     1          0.595              1.980              5.078
 Vibration     2          0.598              1.968              4.108
 Vibration     3          0.608              1.936              3.173
 Vibration     4          0.614              1.916              2.840
 Vibration     5          0.618              1.904              2.688
 Vibration     6          0.619              1.898              2.623
 Vibration     7          0.633              1.854              2.234
 Vibration     8          0.643              1.823              2.031
 Vibration     9          0.669              1.744              1.655
 Vibration    10          0.692              1.676              1.423
 Vibration    11          0.698              1.656              1.367
 Vibration    12          0.708              1.629              1.295
 Vibration    13          0.740              1.539              1.090
 Vibration    14          0.772              1.454              0.935
 Vibration    15          0.782              1.428              0.894
 Vibration    16          0.804              1.373              0.813
 Vibration    17          0.858              1.244              0.651
 Vibration    18          0.909              1.132              0.537
 Vibration    19          0.949              1.050              0.465
 Vibration    20          0.955              1.038              0.454

 Optimization completed.
    -- Stationary point found.
 Normal termination of Gaussian 16 at Wed Dec  9 22:32:55 2020.

 ----------------------------------------------------------------------
 # B3LYP/6-311++G(d,p) empiricaldispersion=gd3bj scf=xqc pop=npa geom=c
 heck
 ----------------------------------------------------------------------

 ---------------------------------------
 CID_135637374_JID_3152_Energie_neutraal
 ---------------------------------------
 Structure from the checkpoint file:  "JID_3152.chk"
 Charge =  0 Multiplicity = 1

 SCF Done:  E(RB3LYP) =  -662.150325544     A.U. after   16 cycles
 Normal termination of Gaussian 16 at Wed Dec  9 22:35:15 2020.

 ----------------------------------------------------------------------
 # B3LYP/6-311++G(d,p) empiricaldispersion=gd3bj scf=xqc pop=npa geom=c
 heck
 ----------------------------------------------------------------------

 -------------------------------------
 CID_135637374_JID_3152_Energie_kation
 -------------------------------------
 Structure from the checkpoint file:  "JID_3152.chk"
 Charge =  1 Multiplicity = 2

 SCF Done:  E(UB3LYP) =  -661.825250293     A.U. after   28 cycles
 Normal termination of Gaussian 16 at Wed Dec  9 22:41:00 2020.
 Gaussian 16:  ES64L-G16RevA.03 25-Dec-2016

 ----------------------------------------------------------------------
 # B3LYP/6-311++G(d,p) empiricaldispersion=gd3bj scf=xqc pop=npa geom=c
 heck
 ----------------------------------------------------------------------

 ------------------------------------
 CID_135637374_JID_3152_Energie_anion
 ------------------------------------
 Structure from the checkpoint file:  "JID_3152.chk"
 Charge = -1 Multiplicity = 2

                         Standard orientation:
 ---------------------------------------------------------------------
 Center     Atomic      Atomic             Coordinates (Angstroms)
 Number     Number       Type             X           Y           Z
 ---------------------------------------------------------------------
      1          6           0        3.080878   -1.031768    0.693812
      2          6           0        1.750879   -0.896584   -0.000963
      3          7           0        1.283246   -1.974731   -0.523762
      4          8           0        0.078311   -1.754962   -1.206939
      5          6           0        1.123904    0.433020   -0.044357
      6          6           0        1.792913    1.615661   -0.184497
      7          8           0        0.943041    2.649727   -0.187754
      8          7           0       -0.360246    2.169077   -0.015904
      9          6           0       -0.254377    0.857672    0.053087
     10          6           0       -1.465219    0.046153    0.292863
     11          7           0       -2.505817    0.399261   -0.371647
     12          8           0       -3.613742   -0.386805   -0.015155
     13          6           0       -1.440817   -1.058132    1.313489
     14          1           0        3.417091   -2.069761    0.653082
     15          1           0        3.009875   -0.711948    1.739656
     16          1           0        3.840143   -0.403142    0.211366
     17          1           0       -0.158725   -2.647161   -1.503551
     18          1           0        2.837954    1.859322   -0.311295
     19          1           0       -4.303253   -0.034350   -0.598981
     20          1           0       -1.911255   -1.956600    0.906996
     21          1           0       -0.422694   -1.294452    1.625113
     22          1           0       -2.019264   -0.756970    2.194988
 ---------------------------------------------------------------------

 SCF Done:  E(UB3LYP) =  -662.142662906     A.U. after   33 cycles
 SCF Done:  E(UB3LYP) =  -662.142662906     a.u. after    1 cycles

 The electronic state is 2-A.
 Alpha  occ. eigenvalues --  -19.06721 -19.05261 -19.04759 -14.23635 -14.23497
 Alpha  occ. eigenvalues --  -14.21904 -10.09936 -10.09890 -10.09621 -10.08851
 Alpha  occ. eigenvalues --  -10.06237 -10.05884 -10.05842  -1.00999  -0.97249
 Alpha  occ. eigenvalues --   -0.96933  -0.77508  -0.75980  -0.72072  -0.66810
 Alpha  occ. eigenvalues --   -0.61559  -0.60696  -0.52483  -0.49917  -0.45151
 Alpha  occ. eigenvalues --   -0.43455  -0.41093  -0.38664  -0.37371  -0.35920
 Alpha  occ. eigenvalues --   -0.34257  -0.33457  -0.32537  -0.31667  -0.29954
 Alpha  occ. eigenvalues --   -0.28931  -0.28318  -0.27867  -0.27504  -0.26842
 Alpha  occ. eigenvalues --   -0.25473  -0.19234  -0.18418  -0.16849  -0.16446
 Alpha  occ. eigenvalues --   -0.15907  -0.13421  -0.12365   0.05187
 Alpha virt. eigenvalues --    0.06974   0.07619   0.08345   0.08904   0.09451
 Alpha virt. eigenvalues --    0.09859   0.11751   0.12380   0.12758   0.13411
 Alpha virt. eigenvalues --    0.13720   0.15727   0.16488   0.16980   0.17337

  Beta  occ. eigenvalues --  -19.06417 -19.05234 -19.04733 -14.23542 -14.23381
  Beta  occ. eigenvalues --  -14.21632 -10.09876 -10.09862 -10.09324 -10.08862
  Beta  occ. eigenvalues --  -10.06291 -10.05866 -10.05814  -1.00490  -0.97161
  Beta  occ. eigenvalues --   -0.96837  -0.77336  -0.75845  -0.71760  -0.66501
  Beta  occ. eigenvalues --   -0.61471  -0.60589  -0.52347  -0.49561  -0.44926
  Beta  occ. eigenvalues --   -0.43327  -0.40963  -0.38543  -0.37204  -0.35702
  Beta  occ. eigenvalues --   -0.33724  -0.33086  -0.32158  -0.31290  -0.29894
  Beta  occ. eigenvalues --   -0.28852  -0.28215  -0.27725  -0.27365  -0.26673
  Beta  occ. eigenvalues --   -0.25271  -0.18612  -0.18082  -0.16673  -0.16227
  Beta  occ. eigenvalues --   -0.15328  -0.12847  -0.11366
  Beta virt. eigenvalues --    0.07194   0.08251   0.08934   0.09221   0.09554
  Beta virt. eigenvalues --    0.09896   0.10409   0.12076   0.12451   0.13143
  Beta virt. eigenvalues --    0.13887   0.14266   0.15775   0.16494   0.17152

 Mulliken charges and spin densities:
               1          2
     1  C    0.892633  -1.677884
     2  C   -2.305781   1.571666
     3  N   -0.216759   0.086735
     4  O   -0.072631   0.008746
     5  C    0.242320   0.259021
     6  C    0.249240  -0.132196
     7  O    0.198559   0.046917
     8  N   -0.400675   0.155289
     9  C    0.498398  -0.610255
    10  C    1.250845  -0.589860
    11  N   -0.332960   0.067543
    12  O   -0.041620  -0.008679
    13  C   -0.401962  -0.407075
    14  H   -0.128302   0.277261
    15  H    0.010619   0.139730
    16  H   -0.519006   0.689175
    17  H    0.223769   0.023081
    18  H   -0.516944   0.697600
    19  H    0.131000   0.131236
    20  H    0.085065   0.100409
    21  H    0.084143   0.084260
    22  H    0.070049   0.087280
 Sum of Mulliken charges =  -1.00000   1.00000

 Dipole moment (field-independent basis, Debye):
    X=             -4.4036    Y=             -2.9769    Z=              1.0330  Tot=              5.4149
 Quadrupole moment (field-independent basis, Debye-Ang):
   XX=           -130.4539   YY=           -104.7588   ZZ=            -89.7295
   XY=              3.4525   XZ=              4.7506   YZ=              4.3114

 Summary of Natural Population Analysis:

                                       Natural Population
                Natural  -----------------------------------------------
    Atom  No    Charge         Core      Valence    Rydberg      Total
 -----------------------------------------------------------------------
      C    1   -0.29566      0.99962     2.29042    0.00562     3.29566
      C    2    0.11327      0.99959     1.86914    0.01800     2.88673
      N    3   -0.08605      0.99960     2.57229    0.01416     3.58605
      O    4   -0.28261      0.99989     3.27483    0.00788     4.28261
      C    5   -0.12747      0.99944     2.11725    0.01078     3.12747
      C    6    0.14829      0.99950     1.83677    0.01543     2.85171
      O    7   -0.13847      0.99987     3.12952    0.00908     4.13847
      N    8   -0.03636      0.99967     2.52439    0.01230     3.53636
      C    9    0.06595      0.99951     1.92017    0.01437     2.93405
      C   10    0.11354      0.99957     1.87097    0.01592     2.88646
      N   11   -0.06868      0.99960     2.55495    0.01413     3.56868
      O   12   -0.29383      0.99990     3.28667    0.00726     4.29383
      C   13   -0.31248      0.99962     2.30730    0.00555     3.31248
      H   14    0.10647      0.00000     0.39190    0.00163     0.39353
      H   15    0.10142      0.00000     0.39752    0.00107     0.39858
      H   16    0.10910      0.00000     0.38606    0.00484     0.39090
      H   17    0.22926      0.00000     0.26779    0.00294     0.27074
      H   18    0.09555      0.00000     0.40269    0.00177     0.40445
      H   19    0.23130      0.00000     0.26492    0.00378     0.26870
      H   20    0.11177      0.00000     0.38668    0.00155     0.38823
      H   21    0.10897      0.00000     0.39005    0.00098     0.39103
      H   22    0.10671      0.00000     0.39204    0.00125     0.39329
 =======================================================================
   * Total *    0.00000     12.99540    34.83432    0.17028    48.00000

 Normal termination of Gaussian 16 at Wed Dec  9 22:47:57 2020.
