 Gaussian 16, Revision A.03,

 -----------------------------------------------------------
 # opt freq B3LYP/6-31G(d) empiricaldispersion=gd3bj scf=xqc
 -----------------------------------------------------------

 -------------------------------
 CID_61762146_JID_10390_neutraal
 -------------------------------
 Symbolic Z-matrix:
 Charge =  0 Multiplicity = 1

 SCF Done:  E(RB3LYP) =  -902.802495594     A.U. after   14 cycles
 SCF Done:  E(RB3LYP) =  -902.806403917     A.U. after   13 cycles
 SCF Done:  E(RB3LYP) =  -902.805326063     A.U. after   13 cycles
 SCF Done:  E(RB3LYP) =  -902.808230600     A.U. after   12 cycles
 SCF Done:  E(RB3LYP) =  -902.809059200     A.U. after   12 cycles
 SCF Done:  E(RB3LYP) =  -902.809513141     A.U. after   12 cycles
 SCF Done:  E(RB3LYP) =  -902.809699572     A.U. after   11 cycles
 SCF Done:  E(RB3LYP) =  -902.809759503     A.U. after   11 cycles
 SCF Done:  E(RB3LYP) =  -902.809790366     A.U. after   11 cycles
 SCF Done:  E(RB3LYP) =  -902.809803624     A.U. after   10 cycles
 SCF Done:  E(RB3LYP) =  -902.809812560     A.U. after   10 cycles
 SCF Done:  E(RB3LYP) =  -902.809813367     A.U. after    8 cycles
 SCF Done:  E(RB3LYP) =  -902.809813502     A.U. after    7 cycles
 SCF Done:  E(RB3LYP) =  -902.809813462     A.U. after    6 cycles
 Optimization completed.
    -- Stationary point found.
 Normal termination of Gaussian 16 at Sun Dec 13 12:54:48 2020.

 --------------------------------------------------------------------
 #N Geom=AllCheck Guess=TCheck SCRF=Check GenChk RB3LYP/6-31G(d) Freq
 --------------------------------------------------------------------

 Structure from the checkpoint file:  "JID_10390.chk"
 -------------------------------
 CID_61762146_JID_10390_neutraal
 -------------------------------
 Charge =  0 Multiplicity = 1

 SCF Done:  E(RB3LYP) =  -902.809813462     A.U. after    1 cycles

  Exact polarizability: 215.192  27.488 168.872 -22.426  14.311 149.321
 Approx polarizability: 297.321  45.154 262.163 -46.815  29.556 245.491

                      1                      2                      3
                      A                      A                      A
 Frequencies --     17.1055                37.5020                48.6655
 Red. masses --      4.7955                 4.2712                 4.4129
 Frc consts  --      0.0008                 0.0035                 0.0062
 IR Inten    --      0.0322                 0.0020                 0.3811

                      4                      5                      6
                      A                      A                      A
 Frequencies --     69.6877                83.3500               116.6046
 Red. masses --      4.5767                 2.2425                 3.9156
 Frc consts  --      0.0131                 0.0092                 0.0314
 IR Inten    --      0.0885                 0.0187                 0.0430

                      7                      8                      9
                      A                      A                      A
 Frequencies --    129.6192               155.1409               163.9594
 Red. masses --      5.2315                 4.1828                 2.6814
 Frc consts  --      0.0518                 0.0593                 0.0425
 IR Inten    --      0.9736                 2.9460                 2.2118

                     10                     11                     12
                      A                      A                      A
 Frequencies --    207.4872               225.2920               240.3972
 Red. masses --      1.8159                 2.2496                 1.7472
 Frc consts  --      0.0461                 0.0673                 0.0595
 IR Inten    --      3.3733                16.8948                 2.6322

                     13                     14                     15
                      A                      A                      A
 Frequencies --    253.8436               260.7870               273.0623
 Red. masses --      2.3468                 2.6112                 2.1331
 Frc consts  --      0.0891                 0.1046                 0.0937
 IR Inten    --      1.0100                40.5679                70.4841

                     16                     17                     18
                      A                      A                      A
 Frequencies --    314.8349               366.6245               382.6776
 Red. masses --      2.2909                 4.0336                 4.0625
 Frc consts  --      0.1338                 0.3194                 0.3505
 IR Inten    --     12.5563                10.3144                 1.5299

                     19                     20                     21
                      A                      A                      A
 Frequencies --    397.2741               413.7977               429.7481
 Red. masses --      3.4439                 3.2200                 2.9000
 Frc consts  --      0.3202                 0.3248                 0.3156
 IR Inten    --      1.4917                 7.9258                 3.2787

                     22                     23                     24
                      A                      A                      A
 Frequencies --    447.3254               472.9346               485.3363
 Red. masses --      3.4229                 4.3441                 2.1637
 Frc consts  --      0.4035                 0.5725                 0.3003
 IR Inten    --      1.7074                 8.4070                 1.0391

                     25                     26                     27
                      A                      A                      A
 Frequencies --    496.1121               512.6252               574.0280
 Red. masses --      2.9947                 3.9105                 4.7974
 Frc consts  --      0.4343                 0.6055                 0.9314
 IR Inten    --      3.2684                13.3047                 0.7632

                     28                     29                     30
                      A                      A                      A
 Frequencies --    581.7161               589.1332               626.4473
 Red. masses --      3.8205                 2.1149                 6.7578
 Frc consts  --      0.7617                 0.4325                 1.5625
 IR Inten    --      0.2132                10.6020                 1.6610

                     31                     32                     33
                      A                      A                      A
 Frequencies --    661.6862               726.0498               755.4886
 Red. masses --      4.1414                 4.0280                 1.9613
 Frc consts  --      1.0683                 1.2510                 0.6596
 IR Inten    --      1.0422                16.7859                 7.5730

                     34                     35                     36
                      A                      A                      A
 Frequencies --    763.0487               784.4835               820.5020
 Red. masses --      1.8876                 1.3384                 1.5377
 Frc consts  --      0.6475                 0.4853                 0.6099
 IR Inten    --     34.7865                 3.4287                23.8684

                     37                     38                     39
                      A                      A                      A
 Frequencies --    825.4694               830.1811               862.6371
 Red. masses --      2.0537                 3.9276                 2.3089
 Frc consts  --      0.8245                 1.5949                 1.0123
 IR Inten    --     11.7863                11.0348                 4.6116

                     40                     41                     42
                      A                      A                      A
 Frequencies --    867.9283               895.5340               899.8924
 Red. masses --      1.4571                 3.8789                 3.5370
 Frc consts  --      0.6467                 1.8329                 1.6876
 IR Inten    --      0.6825                12.3668                 3.3353

                     43                     44                     45
                      A                      A                      A
 Frequencies --    933.7576               936.6675               946.7848
 Red. masses --      1.3482                 1.9920                 2.1770
 Frc consts  --      0.6926                 1.0297                 1.1498
 IR Inten    --      1.8607                15.7454                 2.3591

                     46                     47                     48
                      A                      A                      A
 Frequencies --    955.7067               975.1417              1001.9986
 Red. masses --      2.2764                 1.2387                 2.1350
 Frc consts  --      1.2251                 0.6940                 1.2629
 IR Inten    --      1.2522                 0.0068                 4.6386

                     49                     50                     51
                      A                      A                      A
 Frequencies --   1007.2134              1037.4787              1040.4272
 Red. masses --      2.5428                 3.1874                 2.4231
 Frc consts  --      1.5199                 2.0214                 1.5454
 IR Inten    --     63.1972                47.4359                 4.1150

                     52                     53                     54
                      A                      A                      A
 Frequencies --   1042.2804              1058.1928              1087.8547
 Red. masses --      2.8426                 4.0117                 2.3989
 Frc consts  --      1.8194                 2.6467                 1.6727
 IR Inten    --     21.8520                67.0916                15.7873

                     55                     56                     57
                      A                      A                      A
 Frequencies --   1110.7011              1133.3908              1135.6731
 Red. masses --      1.9247                 4.9517                 1.8617
 Frc consts  --      1.3990                 3.7477                 1.4147
 IR Inten    --     15.7131               111.6263                 3.1351

                     58                     59                     60
                      A                      A                      A
 Frequencies --   1160.1562              1168.8819              1170.5194
 Red. masses --      1.9718                 1.6037                 1.9235
 Frc consts  --      1.5637                 1.2910                 1.5527
 IR Inten    --     15.6691                30.4736                 2.9046

                     61                     62                     63
                      A                      A                      A
 Frequencies --   1175.7749              1184.1898              1204.2389
 Red. masses --      2.0789                 1.2121                 2.0895
 Frc consts  --      1.6933                 1.0015                 1.7853
 IR Inten    --      9.6573                 7.1282                21.2255

                     64                     65                     66
                      A                      A                      A
 Frequencies --   1208.8663              1247.9776              1264.9992
 Red. masses --      2.0674                 1.7341                 1.2490
 Frc consts  --      1.7801                 1.5912                 1.1776
 IR Inten    --     16.7261                34.2587                 2.9038

                     67                     68                     69
                      A                      A                      A
 Frequencies --   1287.6995              1288.2740              1294.2822
 Red. masses --      1.8842                 1.2830                 2.0935
 Frc consts  --      1.8408                 1.2546                 2.0662
 IR Inten    --     15.7078                10.0848                36.2794

                     70                     71                     72
                      A                      A                      A
 Frequencies --   1302.7787              1341.1214              1348.9798
 Red. masses --      1.3357                 1.9083                 1.2625
 Frc consts  --      1.3356                 2.0223                 1.3536
 IR Inten    --      9.2941                 7.6046                14.9923

                     73                     74                     75
                      A                      A                      A
 Frequencies --   1362.6339              1371.7953              1392.5611
 Red. masses --      1.2668                 1.6666                 1.3326
 Frc consts  --      1.3859                 1.8478                 1.5226
 IR Inten    --      1.4783                26.1626                31.6446

                     76                     77                     78
                      A                      A                      A
 Frequencies --   1399.7961              1406.8966              1407.5565
 Red. masses --      1.3515                 2.5270                 1.5893
 Frc consts  --      1.5603                 2.9470                 1.8552
 IR Inten    --      0.7270                 2.9110                14.0215

                     79                     80                     81
                      A                      A                      A
 Frequencies --   1413.9997              1423.6196              1434.8243
 Red. masses --      1.3002                 1.7268                 1.3024
 Frc consts  --      1.5316                 2.0620                 1.5797
 IR Inten    --     12.2489                19.3977                 5.5632

                     82                     83                     84
                      A                      A                      A
 Frequencies --   1438.5615              1446.4641              1453.8698
 Red. masses --      1.6062                 1.2692                 1.4138
 Frc consts  --      1.9585                 1.5646                 1.7608
 IR Inten    --      8.1214                 3.4558                64.3964

                     85                     86                     87
                      A                      A                      A
 Frequencies --   1495.3458              1496.6100              1499.7745
 Red. masses --      2.4793                 1.0868                 1.0947
 Frc consts  --      3.2663                 1.4342                 1.4508
 IR Inten    --     25.9260                 3.5175                 2.3456

                     88                     89                     90
                      A                      A                      A
 Frequencies --   1508.3339              1520.5310              1522.2517
 Red. masses --      1.1190                 1.0833                 1.0805
 Frc consts  --      1.4999                 1.4757                 1.4752
 IR Inten    --     10.5972                 0.5852                 1.5134

                     91                     92                     93
                      A                      A                      A
 Frequencies --   1525.6830              1533.2385              1539.9910
 Red. masses --      2.7638                 1.0476                 1.0684
 Frc consts  --      3.7904                 1.4510                 1.4929
 IR Inten    --      2.5271                 5.0305                 7.6517

                     94                     95                     96
                      A                      A                      A
 Frequencies --   1633.3224              1647.3560              1674.8302
 Red. masses --      6.7012                 6.6158                 7.1448
 Frc consts  --     10.5328                10.5781                11.8082
 IR Inten    --      6.9168                 0.6182                 1.1894

                     97                     98                     99
                      A                      A                      A
 Frequencies --   2970.0834              2995.0314              3000.1506
 Red. masses --      1.0807                 1.0712                 1.0716
 Frc consts  --      5.6170                 5.6615                 5.6828
 IR Inten    --     23.6476                53.0222                92.4182

                    100                    101                    102
                      A                      A                      A
 Frequencies --   3028.1293              3047.3797              3048.7955
 Red. masses --      1.0597                 1.0458                 1.0594
 Frc consts  --      5.7253                 5.7222                 5.8021
 IR Inten    --     52.9707                15.5670                43.0934

                    103                    104                    105
                      A                      A                      A
 Frequencies --   3050.2708              3071.2753              3085.1694
 Red. masses --      1.0523                 1.1039                 1.1012
 Frc consts  --      5.7687                 6.1352                 6.1758
 IR Inten    --     41.6641                18.5923                 5.8144

                    106                    107                    108
                      A                      A                      A
 Frequencies --   3099.8463              3104.7499              3109.5243
 Red. masses --      1.0928                 1.1025                 1.0925
 Frc consts  --      6.1870                 6.2617                 6.2239
 IR Inten    --     28.7186                40.0408                15.5856

                    109                    110                    111
                      A                      A                      A
 Frequencies --   3111.2139              3114.3848              3121.8764
 Red. masses --      1.0891                 1.1018                 1.1013
 Frc consts  --      6.2115                 6.2963                 6.3239
 IR Inten    --     64.4012                51.2364                39.6136

                    112                    113                    114
                      A                      A                      A
 Frequencies --   3190.3161              3201.9859              3212.4811
 Red. masses --      1.0859                 1.0902                 1.0948
 Frc consts  --      6.5118                 6.5855                 6.6570
 IR Inten    --      1.1515                12.6807                26.4739

                    115                    116                    117
                      A                      A                      A
 Frequencies --   3227.2577              3261.7488              3734.6276
 Red. masses --      1.0951                 1.0960                 1.0662
 Frc consts  --      6.7203                 6.8701                 8.7616
 IR Inten    --      7.9260                 4.7680                12.7767

 - Thermochemistry -
 -------------------
 Temperature   298.150 Kelvin.  Pressure   1.00000 Atm.
 Atom     1 has atomic number  6 and mass  12.00000

 Molecular mass:   275.15214 amu.
 Principal axes and moments of inertia in atomic units:
                           1         2         3
     Eigenvalues --  3428.590588155.466959022.31812
           X            0.99987  -0.00443  -0.01544
           Y            0.00542   0.99789   0.06463
           Z            0.01512  -0.06470   0.99779
 This molecule is an asymmetric top.
 Rotational symmetry number  1.
 Warning -- assumption of classical behavior for rotation
           may cause significant error
 Rotational temperatures (Kelvin)      0.02526     0.01062     0.00960
 Rotational constants (GHZ):           0.52638     0.22129     0.20003
 Zero-point vibrational energy     923841.1 (Joules/Mol)
                                  220.80333 (Kcal/Mol)
 Warning -- explicit consideration of  29 degrees of freedom as
           vibrations may cause significant error
 Vibrational temperatures:     24.61    53.96    70.02   100.27   119.92
          (Kelvin)            167.77   186.49   223.21   235.90   298.53
                              324.14   345.88   365.22   375.21   392.88
                              452.98   527.49   550.59   571.59   595.36
                              618.31   643.60   680.45   698.29   713.79
                              737.55   825.90   836.96   847.63   901.32
                              952.02  1044.62  1086.98  1097.86  1128.70
                             1180.52  1187.67  1194.45  1241.14  1248.76
                             1288.47  1294.74  1343.47  1347.66  1362.21
                             1375.05  1403.01  1441.65  1449.16  1492.70
                             1496.94  1499.61  1522.50  1565.18  1598.05
                             1630.70  1633.98  1669.21  1681.76  1684.12
                             1691.68  1703.78  1732.63  1739.29  1795.56
                             1820.05  1852.71  1853.54  1862.18  1874.41
                             1929.57  1940.88  1960.53  1973.71  2003.58
                             2013.99  2024.21  2025.16  2034.43  2048.27
                             2064.39  2069.77  2081.14  2091.79  2151.47
                             2153.29  2157.84  2170.16  2187.71  2190.18
                             2195.12  2205.99  2215.70  2349.99  2370.18
                             2409.71  4273.29  4309.18  4316.55  4356.80
                             4384.50  4386.54  4388.66  4418.88  4438.87
                             4459.99  4467.04  4473.91  4476.34  4480.91
                             4491.68  4590.15  4606.94  4622.04  4643.30
                             4692.93  5373.30

 Zero-point correction=                           0.351872 (Hartree/Particle)
 Thermal correction to Energy=                    0.370103
 Thermal correction to Enthalpy=                  0.371047
 Thermal correction to Gibbs Free Energy=         0.304535
 Sum of electronic and zero-point Energies=           -902.457941
 Sum of electronic and thermal Energies=              -902.439711
 Sum of electronic and thermal Enthalpies=            -902.438767
 Sum of electronic and thermal Free Energies=         -902.505279

                     E (Thermal)             CV                S
                      KCal/Mol        Cal/Mol-Kelvin    Cal/Mol-Kelvin
 Total                  232.243             71.525            139.986
 Electronic               0.000              0.000              0.000
 Translational            0.889              2.981             42.735
 Rotational               0.889              2.981             33.889
 Vibrational            230.465             65.563             63.362
 Vibration     1          0.593              1.986              6.945
 Vibration     2          0.594              1.982              5.387
 Vibration     3          0.595              1.978              4.871
 Vibration     4          0.598              1.969              4.162
 Vibration     5          0.600              1.961              3.810
 Vibration     6          0.608              1.936              3.156
 Vibration     7          0.612              1.924              2.952
 Vibration     8          0.620              1.897              2.608
 Vibration     9          0.623              1.887              2.504
 Vibration    10          0.641              1.829              2.066
 Vibration    11          0.650              1.803              1.916
 Vibration    12          0.657              1.779              1.800
 Vibration    13          0.665              1.756              1.704
 Vibration    14          0.669              1.744              1.656
 Vibration    15          0.676              1.723              1.577
 Vibration    16          0.702              1.645              1.337
 Vibration    17          0.740              1.541              1.094
 Vibration    18          0.752              1.507              1.029
 Vibration    19          0.764              1.476              0.973
 Vibration    20          0.777              1.440              0.913
 Vibration    21          0.791              1.405              0.859
 Vibration    22          0.806              1.367              0.804
 Vibration    23          0.830              1.310              0.729
 Vibration    24          0.841              1.283              0.696
 Vibration    25          0.852              1.259              0.668
 Vibration    26          0.868              1.222              0.627
 Vibration    27          0.930              1.087              0.497
 Vibration    28          0.938              1.071              0.482
 Vibration    29          0.946              1.055              0.469

                           ! Non-Optimized Parameters !
 Normal termination of Gaussian 16 at Sun Dec 13 13:16:49 2020.

 ----------------------------------------------------------------------
 # B3LYP/6-311++G(d,p) empiricaldispersion=gd3bj scf=xqc pop=npa geom=c
 heck
 ----------------------------------------------------------------------

 ---------------------------------------
 CID_61762146_JID_10390_Energie_neutraal
 ---------------------------------------
 Structure from the checkpoint file:  "JID_10390.chk"
 Charge =  0 Multiplicity = 1

 SCF Done:  E(RB3LYP) =  -903.062694557     A.U. after   15 cycles
 Normal termination of Gaussian 16 at Sun Dec 13 13:25:25 2020.

 ----------------------------------------------------------------------
 # B3LYP/6-311++G(d,p) empiricaldispersion=gd3bj scf=xqc pop=npa geom=c
 heck
 ----------------------------------------------------------------------

 -------------------------------------
 CID_61762146_JID_10390_Energie_kation
 -------------------------------------
 Structure from the checkpoint file:  "JID_10390.chk"
 Charge =  1 Multiplicity = 2

 SCF Done:  E(UB3LYP) =  -902.795256789     A.U. after   27 cycles
 Normal termination of Gaussian 16 at Sun Dec 13 13:46:40 2020.
 Gaussian 16:  ES64L-G16RevA.03 25-Dec-2016

 ----------------------------------------------------------------------
 # B3LYP/6-311++G(d,p) empiricaldispersion=gd3bj scf=xqc pop=npa geom=c
 heck
 ----------------------------------------------------------------------

 ------------------------------------
 CID_61762146_JID_10390_Energie_anion
 ------------------------------------
 Structure from the checkpoint file:  "JID_10390.chk"
 Charge = -1 Multiplicity = 2

                         Standard orientation:
 ---------------------------------------------------------------------
 Center     Atomic      Atomic             Coordinates (Angstroms)
 Number     Number       Type             X           Y           Z
 ---------------------------------------------------------------------
      1          6           0        4.194072   -1.493577   -1.800370
      2          6           0        3.581169   -1.971295   -0.481058
      3          6           0        2.484906   -1.053617    0.047524
      4          6           0        2.996865    0.329795    0.479375
      5          7           0        1.977499    1.139661    1.130045
      6          6           0        1.242469    0.414461    2.156424
      7          6           0        0.799783   -0.979363    1.701762
      8          8           0        1.905017   -1.708158    1.178300
      9          6           0        1.354184    2.193398    0.365036
     10          6           0        0.490878    1.809382   -0.863577
     11          6           0       -0.782818    1.122862   -0.492759
     12          6           0       -1.725854    1.384351    0.455236
     13          6           0       -2.757803    0.388443    0.303396
     14          6           0       -3.967104    0.084901    0.945894
     15          6           0       -4.697576   -1.010598    0.496395
     16          6           0       -4.245650   -1.803611   -0.575276
     17          6           0       -3.047175   -1.522660   -1.229385
     18          6           0       -2.334954   -0.424354   -0.766777
     19          8           0       -1.136337    0.027435   -1.255261
     20          8           0        0.244182    2.969619   -1.670103
     21          1           0        3.423677   -1.359728   -2.569618
     22          1           0        4.918236   -2.222233   -2.179280
     23          1           0        4.719550   -0.538874   -1.686497
     24          1           0        3.142714   -2.967950   -0.607921
     25          1           0        4.357581   -2.067971    0.288962
     26          1           0        1.705087   -0.929816   -0.724711
     27          1           0        3.828389    0.163036    1.183485
     28          1           0        3.395191    0.883912   -0.376741
     29          1           0        1.899944    0.286878    3.031044
     30          1           0        0.377103    1.005256    2.471525
     31          1           0        0.421600   -1.561390    2.548702
     32          1           0        0.007119   -0.910498    0.944559
     33          1           0        0.746301    2.802888    1.047635
     34          1           0        2.138607    2.853428   -0.027384
     35          1           0        1.065273    1.139095   -1.508265
     36          1           0       -1.689112    2.175903    1.190962
     37          1           0       -4.323850    0.689491    1.774542
     38          1           0       -5.636275   -1.262231    0.981091
     39          1           0       -4.841204   -2.651867   -0.898792
     40          1           0       -2.683241   -2.123879   -2.055352
     41          1           0       -0.430414    3.496649   -1.212795
 ---------------------------------------------------------------------

 SCF Done:  E(UB3LYP) =  -903.055082194     A.U. after   33 cycles
 SCF Done:  E(UB3LYP) =  -903.055082194     a.u. after    1 cycles

 The electronic state is 2-A.
 Alpha  occ. eigenvalues --  -19.07003 -19.02610 -19.01805 -14.20670 -10.12260
 Alpha  occ. eigenvalues --  -10.12167 -10.11521 -10.11219 -10.10989 -10.09983
 Alpha  occ. eigenvalues --  -10.09855 -10.09853 -10.07554 -10.07260 -10.06473
 Alpha  occ. eigenvalues --  -10.06261 -10.05995 -10.05892 -10.05798 -10.05711
 Alpha  occ. eigenvalues --   -0.99557  -0.94259  -0.91987  -0.82671  -0.74404
 Alpha  occ. eigenvalues --   -0.70811  -0.69289  -0.66309  -0.64900  -0.63616
 Alpha  occ. eigenvalues --   -0.61940  -0.57777  -0.57125  -0.54027  -0.50740
 Alpha  occ. eigenvalues --   -0.49501  -0.49118  -0.47318  -0.46471  -0.42009
 Alpha  occ. eigenvalues --   -0.40697  -0.39615  -0.39031  -0.38715  -0.38233
 Alpha  occ. eigenvalues --   -0.36865  -0.36523  -0.35351  -0.33803  -0.33413
 Alpha  occ. eigenvalues --   -0.33057  -0.32577  -0.31905  -0.31526  -0.30410
 Alpha  occ. eigenvalues --   -0.29074  -0.28225  -0.28077  -0.27834  -0.27202
 Alpha  occ. eigenvalues --   -0.26545  -0.25941  -0.25046  -0.24361  -0.24261
 Alpha  occ. eigenvalues --   -0.23316  -0.22885  -0.21895  -0.19470  -0.18438
 Alpha  occ. eigenvalues --   -0.17045  -0.13398  -0.11575  -0.10189   0.04474
 Alpha virt. eigenvalues --    0.05955   0.06712   0.07432   0.08022   0.08355
 Alpha virt. eigenvalues --    0.08717   0.09070   0.09758   0.10006   0.10459
 Alpha virt. eigenvalues --    0.10592   0.10906   0.11447   0.12097   0.12218

  Beta  occ. eigenvalues --  -19.06943 -19.02609 -19.01716 -14.20661 -10.12260
  Beta  occ. eigenvalues --  -10.12167 -10.11559 -10.11218 -10.10780 -10.09973
  Beta  occ. eigenvalues --  -10.09848 -10.09836 -10.07547 -10.07232 -10.06429
  Beta  occ. eigenvalues --  -10.06307 -10.05864 -10.05763 -10.05751 -10.05518
  Beta  occ. eigenvalues --   -0.99427  -0.94255  -0.91773  -0.82648  -0.74208
  Beta  occ. eigenvalues --   -0.70796  -0.69034  -0.66182  -0.64849  -0.63452
  Beta  occ. eigenvalues --   -0.61698  -0.57680  -0.57095  -0.53917  -0.50662
  Beta  occ. eigenvalues --   -0.49345  -0.49019  -0.47240  -0.46357  -0.41884
  Beta  occ. eigenvalues --   -0.40614  -0.39528  -0.38999  -0.38687  -0.38114
  Beta  occ. eigenvalues --   -0.36791  -0.36440  -0.35159  -0.33663  -0.33361
  Beta  occ. eigenvalues --   -0.32915  -0.32535  -0.31845  -0.31434  -0.30307
  Beta  occ. eigenvalues --   -0.29038  -0.28166  -0.28000  -0.27777  -0.27174
  Beta  occ. eigenvalues --   -0.26526  -0.25848  -0.24993  -0.24245  -0.23773
  Beta  occ. eigenvalues --   -0.23240  -0.22794  -0.21876  -0.19307  -0.17832
  Beta  occ. eigenvalues --   -0.16990  -0.12880  -0.10614  -0.10149
  Beta virt. eigenvalues --    0.06426   0.07019   0.07479   0.07963   0.08521
  Beta virt. eigenvalues --    0.08605   0.08752   0.09243   0.09941   0.10139
  Beta virt. eigenvalues --    0.10525   0.10746   0.10984   0.11634   0.12156

 Mulliken charges and spin densities:
               1          2
     1  C    0.350903  -0.937507
     2  C   -0.904917   0.569617
     3  C    0.023321  -0.247836
     4  C   -0.444122  -0.124173
     5  N    0.114399   0.031469
     6  C   -0.075723  -0.119460
     7  C    0.040876  -0.028734
     8  O   -0.055829   0.002649
     9  C    0.033623  -0.408262
    10  C   -0.424989   0.102403
    11  C    0.006165  -0.243020
    12  C    0.297228  -0.338985
    13  C    0.599246   0.125029
    14  C   -0.221573   0.208978
    15  C   -0.260511  -0.085540
    16  C   -0.222394  -0.029571
    17  C   -0.413921   0.125568
    18  C   -0.190407  -0.123208
    19  O    0.052876   0.013766
    20  O   -0.086924  -0.028114
    21  H    0.011249   0.126020
    22  H   -0.313241   0.469043
    23  H   -0.177991   0.318508
    24  H    0.081011   0.076312
    25  H    0.077239   0.054694
    26  H    0.256083  -0.102599
    27  H    0.063938   0.118908
    28  H    0.270758  -0.114551
    29  H    0.123221   0.020041
    30  H    0.049238   0.061849
    31  H    0.182405   0.020504
    32  H    0.178777  -0.040751
    33  H   -0.078970   0.262845
    34  H   -0.038253   0.192861
    35  H    0.172872   0.102168
    36  H   -0.404831   0.546991
    37  H   -0.008967   0.136458
    38  H    0.098221   0.028711
    39  H    0.126871  -0.003933
    40  H    0.084098   0.049617
    41  H    0.028946   0.211232
 Sum of Mulliken charges =  -1.00000   1.00000

 Dipole moment (field-independent basis, Debye):
    X=             -0.3215    Y=             -1.6732    Z=              2.8048  Tot=              3.2817
 Quadrupole moment (field-independent basis, Debye-Ang):
   XX=           -191.0961   YY=           -164.3623   ZZ=           -151.4695
   XY=              8.1586   XZ=              6.3932   YZ=              3.5938

 Summary of Natural Population Analysis:

                                       Natural Population
                Natural  -----------------------------------------------
    Atom  No    Charge         Core      Valence    Rydberg      Total
 -----------------------------------------------------------------------
      C    1   -0.28766      0.99967     2.28319    0.00480     3.28766
      C    2   -0.19768      0.99962     2.18736    0.01071     3.19768
      C    3    0.05350      0.99954     1.93348    0.01349     2.94650
      C    4   -0.09415      0.99959     2.08389    0.01067     3.09415
      N    5   -0.28361      0.99972     2.77084    0.01305     3.78361
      C    6   -0.09450      0.99962     2.08425    0.01063     3.09450
      C    7   -0.01950      0.99958     2.00898    0.01094     3.01950
      O    8   -0.30450      0.99988     3.29631    0.00831     4.30450
      C    9   -0.08158      0.99959     2.06848    0.01351     3.08158
      C   10    0.02822      0.99949     1.95867    0.01362     2.97178
      C   11    0.18243      0.99942     1.80125    0.01690     2.81757
      C   12   -0.14880      0.99945     2.14075    0.00861     3.14880
      C   13   -0.05154      0.99949     2.04236    0.00970     3.05154
      C   14   -0.06558      0.99954     2.05690    0.00914     3.06558
      C   15   -0.12438      0.99958     2.11524    0.00956     3.12438
      C   16   -0.08700      0.99959     2.07736    0.01005     3.08700
      C   17   -0.10385      0.99952     2.09556    0.00877     3.10385
      C   18    0.14552      0.99935     1.84041    0.01472     2.85448
      O   19   -0.23984      0.99985     3.23243    0.00756     4.23984
      O   20   -0.36195      0.99990     3.35592    0.00612     4.36195
      H   21    0.09820      0.00000     0.40078    0.00102     0.40180
      H   22    0.10049      0.00000     0.39853    0.00098     0.39951
      H   23    0.09665      0.00000     0.40230    0.00105     0.40335
      H   24    0.10175      0.00000     0.39701    0.00124     0.39825
      H   25    0.09626      0.00000     0.40244    0.00130     0.40374
      H   26    0.08222      0.00000     0.41536    0.00242     0.41778
      H   27    0.09049      0.00000     0.40823    0.00129     0.40951
      H   28    0.10036      0.00000     0.39859    0.00105     0.39964
      H   29    0.08646      0.00000     0.41233    0.00120     0.41354
      H   30    0.10334      0.00000     0.39562    0.00105     0.39666
      H   31    0.08765      0.00000     0.41142    0.00093     0.41235
      H   32    0.08858      0.00000     0.40960    0.00182     0.41142
      H   33    0.09419      0.00000     0.40459    0.00122     0.40581
      H   34    0.09614      0.00000     0.40259    0.00127     0.40386
      H   35    0.09388      0.00000     0.40363    0.00249     0.40612
      H   36    0.10685      0.00000     0.39189    0.00125     0.39315
      H   37    0.09426      0.00000     0.40439    0.00134     0.40574
      H   38    0.09463      0.00000     0.40460    0.00078     0.40537
      H   39    0.09286      0.00000     0.40623    0.00091     0.40714
      H   40    0.10170      0.00000     0.39739    0.00091     0.39830
      H   41    0.22949      0.00000     0.26670    0.00381     0.27051
 =======================================================================
   * Total *   -0.00000     19.99197    53.76785    0.24018    74.00000

 Normal termination of Gaussian 16 at Sun Dec 13 14:12:25 2020.
