 Gaussian 16, Revision A.03,

 -----------------------------------------------------------
 # opt freq B3LYP/6-31G(d) empiricaldispersion=gd3bj scf=xqc
 -----------------------------------------------------------

 -------------------------------
 CID_112605172_JID_7380_neutraal
 -------------------------------
 Symbolic Z-matrix:
 Charge =  0 Multiplicity = 1

 SCF Done:  E(RB3LYP) =  -790.929954650     A.U. after   14 cycles
 SCF Done:  E(RB3LYP) =  -790.932981644     A.U. after   12 cycles
 SCF Done:  E(RB3LYP) =  -790.931741293     A.U. after   12 cycles
 SCF Done:  E(RB3LYP) =  -790.933118545     A.U. after   12 cycles
 SCF Done:  E(RB3LYP) =  -790.934954198     A.U. after   11 cycles
 SCF Done:  E(RB3LYP) =  -790.935611187     A.U. after   11 cycles
 SCF Done:  E(RB3LYP) =  -790.935273767     A.U. after   12 cycles
 SCF Done:  E(RB3LYP) =  -790.935764256     A.U. after   11 cycles
 SCF Done:  E(RB3LYP) =  -790.935961308     A.U. after   11 cycles
 SCF Done:  E(RB3LYP) =  -790.936016528     A.U. after   10 cycles
 SCF Done:  E(RB3LYP) =  -790.936752188     A.U. after   10 cycles
 SCF Done:  E(RB3LYP) =  -790.936762957     A.U. after    9 cycles
 SCF Done:  E(RB3LYP) =  -790.936765454     A.U. after    8 cycles
 SCF Done:  E(RB3LYP) =  -790.936766064     A.U. after    8 cycles
 SCF Done:  E(RB3LYP) =  -790.936766264     A.U. after    7 cycles
 Optimization completed.
    -- Stationary point found.
 Normal termination of Gaussian 16 at Mon Dec 14 16:57:02 2020.

 --------------------------------------------------------------------
 #N Geom=AllCheck Guess=TCheck SCRF=Check GenChk RB3LYP/6-31G(d) Freq
 --------------------------------------------------------------------

 Structure from the checkpoint file:  "JID_7380.chk"
 -------------------------------
 CID_112605172_JID_7380_neutraal
 -------------------------------
 Charge =  0 Multiplicity = 1

 SCF Done:  E(RB3LYP) =  -790.936766264     A.U. after    1 cycles

  Exact polarizability: 176.040   1.995 140.265   3.496   3.960 136.131
 Approx polarizability: 207.941   3.505 196.849   1.529   7.347 220.786

                      1                      2                      3
                      A                      A                      A
 Frequencies --     26.8213                31.3025                46.8529
 Red. masses --      3.3997                 2.8997                 4.1768
 Frc consts  --      0.0014                 0.0017                 0.0054
 IR Inten    --      0.8727                 0.0288                 0.7063

                      4                      5                      6
                      A                      A                      A
 Frequencies --     62.3775                68.2669                99.9319
 Red. masses --      3.7218                 4.1683                 3.2707
 Frc consts  --      0.0085                 0.0114                 0.0192
 IR Inten    --      1.2120                 3.5965                 1.8863

                      7                      8                      9
                      A                      A                      A
 Frequencies --    128.6119               147.9440               176.8340
 Red. masses --      4.3031                 2.0134                 1.8103
 Frc consts  --      0.0419                 0.0260                 0.0334
 IR Inten    --      2.5213                 0.2270                 0.9173

                     10                     11                     12
                      A                      A                      A
 Frequencies --    193.1984               219.1473               234.2489
 Red. masses --      2.3524                 1.1585                 2.4107
 Frc consts  --      0.0517                 0.0328                 0.0779
 IR Inten    --      3.6851                 0.8359                 0.4017

                     13                     14                     15
                      A                      A                      A
 Frequencies --    248.3983               258.6164               269.4274
 Red. masses --      2.0217                 2.5086                 1.1309
 Frc consts  --      0.0735                 0.0989                 0.0484
 IR Inten    --      1.5354                 2.2708                 0.2310

                     16                     17                     18
                      A                      A                      A
 Frequencies --    288.0941               306.1039               341.8036
 Red. masses --      3.3168                 1.0836                 2.6219
 Frc consts  --      0.1622                 0.0598                 0.1805
 IR Inten    --      1.5784                 0.3001                 2.6187

                     19                     20                     21
                      A                      A                      A
 Frequencies --    348.7993               356.7491               375.3041
 Red. masses --      2.3763                 2.4603                 2.5954
 Frc consts  --      0.1703                 0.1845                 0.2154
 IR Inten    --      2.6591                 2.2040                 3.9070

                     22                     23                     24
                      A                      A                      A
 Frequencies --    412.1765               417.3052               439.9074
 Red. masses --      2.2897                 2.3813                 1.8578
 Frc consts  --      0.2292                 0.2443                 0.2118
 IR Inten    --      4.9618                 3.3983                 1.4321

                     25                     26                     27
                      A                      A                      A
 Frequencies --    455.7906               464.8311               476.8541
 Red. masses --      3.5671                 2.8697                 2.6488
 Frc consts  --      0.4366                 0.3653                 0.3549
 IR Inten    --      4.2611                10.9258                 1.7586

                     28                     29                     30
                      A                      A                      A
 Frequencies --    493.0548               552.3262               577.3942
 Red. masses --      3.2434                 3.8089                 3.4799
 Frc consts  --      0.4646                 0.6846                 0.6835
 IR Inten    --      3.3656                 2.3372                15.4257

                     31                     32                     33
                      A                      A                      A
 Frequencies --    602.7618               703.7453               744.9658
 Red. masses --      2.3233                 5.0278                 4.1656
 Frc consts  --      0.4973                 1.4671                 1.3621
 IR Inten    --     11.0130                 1.8451                11.0121

                     34                     35                     36
                      A                      A                      A
 Frequencies --    776.4225               823.6623               869.2150
 Red. masses --      4.1202                 2.4110                 2.0158
 Frc consts  --      1.4634                 0.9637                 0.8973
 IR Inten    --     13.7891                 3.3131                 1.9764

                     37                     38                     39
                      A                      A                      A
 Frequencies --    871.5010               876.8895               898.8526
 Red. masses --      2.2665                 1.7279                 1.8698
 Frc consts  --      1.0142                 0.7828                 0.8901
 IR Inten    --     36.5419                 1.1295                 6.7803

                     40                     41                     42
                      A                      A                      A
 Frequencies --    925.9972               931.3077               938.6459
 Red. masses --      1.6697                 2.6449                 1.6191
 Frc consts  --      0.8436                 1.3516                 0.8405
 IR Inten    --      0.1568                13.6889                 0.1995

                     43                     44                     45
                      A                      A                      A
 Frequencies --    979.1512               991.3971               999.1207
 Red. masses --      1.2038                 1.9225                 2.7554
 Frc consts  --      0.6800                 1.1133                 1.6206
 IR Inten    --      0.1455                 0.5557                 3.3727

                     46                     47                     48
                      A                      A                      A
 Frequencies --   1007.8175              1034.2626              1058.0509
 Red. masses --      1.9665                 1.9113                 1.6612
 Frc consts  --      1.1768                 1.2046                 1.0957
 IR Inten    --     20.3241                26.2313                 2.0885

                     49                     50                     51
                      A                      A                      A
 Frequencies --   1059.6413              1069.0006              1112.1072
 Red. masses --      1.4186                 1.5535                 2.2811
 Frc consts  --      0.9385                 1.0460                 1.6622
 IR Inten    --      2.1780                28.4255                12.1097

                     52                     53                     54
                      A                      A                      A
 Frequencies --   1116.8459              1122.2854              1142.7868
 Red. masses --      4.9869                 3.3482                 2.9583
 Frc consts  --      3.6649                 2.4847                 2.2762
 IR Inten    --    148.8304                42.9601                79.4064

                     55                     56                     57
                      A                      A                      A
 Frequencies --   1163.6992              1172.1314              1198.2735
 Red. masses --      1.5465                 1.7724                 2.2524
 Frc consts  --      1.2339                 1.4347                 1.9055
 IR Inten    --      6.0806                 8.2126                29.7055

                     58                     59                     60
                      A                      A                      A
 Frequencies --   1212.9008              1230.3732              1239.1530
 Red. masses --      1.3561                 1.9644                 2.2301
 Frc consts  --      1.1754                 1.7521                 2.0176
 IR Inten    --     17.7794                48.6994                56.7086

                     61                     62                     63
                      A                      A                      A
 Frequencies --   1258.4714              1277.0814              1289.3148
 Red. masses --      1.4910                 2.6846                 2.0376
 Frc consts  --      1.3913                 2.5796                 1.9956
 IR Inten    --     16.2018                23.1765                26.0285

                     64                     65                     66
                      A                      A                      A
 Frequencies --   1311.6076              1322.8080              1328.4878
 Red. masses --      1.6335                 1.4093                 1.3984
 Frc consts  --      1.6557                 1.4530                 1.4541
 IR Inten    --      8.7855                27.0585                18.7443

                     67                     68                     69
                      A                      A                      A
 Frequencies --   1332.2893              1348.7459              1370.7968
 Red. masses --      1.2196                 1.2494                 1.2727
 Frc consts  --      1.2754                 1.3391                 1.4090
 IR Inten    --      0.6437                24.6145                13.0652

                     70                     71                     72
                      A                      A                      A
 Frequencies --   1392.5029              1396.9356              1399.5532
 Red. masses --      1.4017                 1.3139                 1.3816
 Frc consts  --      1.6014                 1.5107                 1.5945
 IR Inten    --      1.0355                 2.6189                 5.2254

                     73                     74                     75
                      A                      A                      A
 Frequencies --   1419.8120              1425.8095              1427.2411
 Red. masses --      1.3273                 1.4003                 1.2873
 Frc consts  --      1.5765                 1.6773                 1.5450
 IR Inten    --      1.5055                13.2041                17.2876

                     76                     77                     78
                      A                      A                      A
 Frequencies --   1430.9632              1445.1191              1454.9694
 Red. masses --      1.2776                 1.3817                 1.2285
 Frc consts  --      1.5413                 1.7001                 1.5323
 IR Inten    --     10.5533                 9.4923                10.0911

                     79                     80                     81
                      A                      A                      A
 Frequencies --   1467.0938              1494.5479              1503.1977
 Red. masses --      1.8983                 1.1738                 1.0563
 Frc consts  --      2.4073                 1.5448                 1.4063
 IR Inten    --     57.3399                 9.7290                 0.5054

                     82                     83                     84
                      A                      A                      A
 Frequencies --   1506.7330              1508.9231              1510.4804
 Red. masses --      1.1445                 1.0883                 1.1035
 Frc consts  --      1.5309                 1.4600                 1.4834
 IR Inten    --     12.1307                 6.8682                 8.0029

                     85                     86                     87
                      A                      A                      A
 Frequencies --   1512.2930              1516.0698              1520.3450
 Red. masses --      1.0910                 1.0477                 1.0589
 Frc consts  --      1.4701                 1.4188                 1.4420
 IR Inten    --      2.0019                 0.2222                 4.8045

                     88                     89                     90
                      A                      A                      A
 Frequencies --   1520.6309              1533.1210              1533.7394
 Red. masses --      1.0892                 1.0964                 1.0615
 Frc consts  --      1.4839                 1.5184                 1.4712
 IR Inten    --      1.7665                 6.0099                 5.0670

                     91                     92                     93
                      A                      A                      A
 Frequencies --   1536.2883              1544.4494              1552.9908
 Red. masses --      1.0745                 1.1195                 1.0566
 Frc consts  --      1.4941                 1.5734                 1.5014
 IR Inten    --      7.5128                 5.2410                13.5005

                     94                     95                     96
                      A                      A                      A
 Frequencies --   1555.7380              1741.3513              2970.3006
 Red. masses --      1.1664                 9.1475                 1.0722
 Frc consts  --      1.6632                16.3428                 5.5735
 IR Inten    --     27.5401               224.0786                57.1895

                     97                     98                     99
                      A                      A                      A
 Frequencies --   2995.9585              3015.6679              3025.1047
 Red. masses --      1.0731                 1.0712                 1.0617
 Frc consts  --      5.6748                 5.7396                 5.7246
 IR Inten    --     27.4254                 4.0230                40.6393

                    100                    101                    102
                      A                      A                      A
 Frequencies --   3026.8018              3042.4194              3044.2679
 Red. masses --      1.0605                 1.0634                 1.0674
 Frc consts  --      5.7246                 5.7995                 5.8285
 IR Inten    --     57.6435                30.3363                47.3153

                    103                    104                    105
                      A                      A                      A
 Frequencies --   3051.3340              3056.7811              3057.3384
 Red. masses --      1.0604                 1.0379                 1.0352
 Frc consts  --      5.8171                 5.7138                 5.7011
 IR Inten    --     27.4553                27.9018                20.2464

                    106                    107                    108
                      A                      A                      A
 Frequencies --   3064.8203              3067.5167              3085.8779
 Red. masses --      1.0366                 1.0960                 1.0969
 Frc consts  --      5.7369                 6.0765                 6.1543
 IR Inten    --      2.8744                56.2762                26.1103

                    109                    110                    111
                      A                      A                      A
 Frequencies --   3087.0904              3105.0783              3120.5210
 Red. masses --      1.1036                 1.0928                 1.1012
 Frc consts  --      6.1967                 6.2079                 6.3181
 IR Inten    --     57.8148                53.0202                11.4524

                    112                    113                    114
                      A                      A                      A
 Frequencies --   3125.7462              3127.7236              3129.8860
 Red. masses --      1.1018                 1.1019                 1.0959
 Frc consts  --      6.3425                 6.3509                 6.3253
 IR Inten    --     11.2974                 7.0178                 8.1581

                    115                    116                    117
                      A                      A                      A
 Frequencies --   3132.5059              3134.4276              3138.2499
 Red. masses --      1.1029                 1.1020                 1.1025
 Frc consts  --      6.3762                 6.3792                 6.3976
 IR Inten    --     14.1755                52.4090                49.6899

                    118                    119                    120
                      A                      A                      A
 Frequencies --   3142.7689              3163.9922              3205.9307
 Red. masses --      1.1024                 1.0903                 1.0957
 Frc consts  --      6.4155                 6.4307                 6.6349
 IR Inten    --     19.5045                18.8342                 3.4679

 - Thermochemistry -
 -------------------
 Temperature   298.150 Kelvin.  Pressure   1.00000 Atm.
 Atom     1 has atomic number  6 and mass  12.00000

 Molecular mass:   243.18344 amu.
 Principal axes and moments of inertia in atomic units:
                           1         2         3
     Eigenvalues --  2258.066087441.284558220.13839
           X            0.99989   0.01458   0.00033
           Y           -0.01459   0.99948   0.02860
           Z            0.00009  -0.02860   0.99959
 This molecule is an asymmetric top.
 Rotational symmetry number  1.
 Warning -- assumption of classical behavior for rotation
           may cause significant error
 Rotational temperatures (Kelvin)      0.03836     0.01164     0.01054
 Rotational constants (GHZ):           0.79924     0.24253     0.21955
 Zero-point vibrational energy     994097.1 (Joules/Mol)
                                  237.59490 (Kcal/Mol)
 Warning -- explicit consideration of  31 degrees of freedom as
           vibrations may cause significant error
 Vibrational temperatures:     38.59    45.04    67.41    89.75    98.22
          (Kelvin)            143.78   185.04   212.86   254.42   277.97
                              315.30   337.03   357.39   372.09   387.65
                              414.50   440.42   491.78   501.84   513.28
                              539.98   593.03   600.41   632.93   655.78
                              668.79   686.09   709.40   794.67   830.74
                              867.24  1012.53  1071.84  1117.10  1185.07
                             1250.61  1253.90  1261.65  1293.25  1332.30
                             1339.94  1350.50  1408.78  1426.40  1437.51
                             1450.02  1488.07  1522.30  1524.59  1538.05
                             1600.07  1606.89  1614.72  1644.22  1674.30
                             1686.44  1724.05  1745.09  1770.23  1782.86
                             1810.66  1837.44  1855.04  1887.11  1903.23
                             1911.40  1916.87  1940.54  1972.27  2003.50
                             2009.88  2013.64  2042.79  2051.42  2053.48
                             2058.84  2079.20  2093.38  2110.82  2150.32
                             2162.77  2167.85  2171.00  2173.24  2175.85
                             2181.29  2187.44  2187.85  2205.82  2206.71
                             2210.38  2222.12  2234.41  2238.36  2505.42
                             4273.60  4310.52  4338.87  4352.45  4354.89
                             4377.36  4380.02  4390.19  4398.03  4398.83
                             4409.59  4413.47  4439.89  4441.63  4467.52
                             4489.73  4497.25  4500.10  4503.21  4506.98
                             4509.74  4515.24  4521.74  4552.28  4612.62

 Zero-point correction=                           0.378632 (Hartree/Particle)
 Thermal correction to Energy=                    0.397434
 Thermal correction to Enthalpy=                  0.398378
 Thermal correction to Gibbs Free Energy=         0.331081
 Sum of electronic and zero-point Energies=           -790.558135
 Sum of electronic and thermal Energies=              -790.539333
 Sum of electronic and thermal Enthalpies=            -790.538388
 Sum of electronic and thermal Free Energies=         -790.605686

                     E (Thermal)             CV                S
                      KCal/Mol        Cal/Mol-Kelvin    Cal/Mol-Kelvin
 Total                  249.393             71.307            141.639
 Electronic               0.000              0.000              0.000
 Translational            0.889              2.981             42.367
 Rotational               0.889              2.981             33.290
 Vibrational            247.616             65.346             65.982
 Vibration     1          0.593              1.984              6.052
 Vibration     2          0.594              1.983              5.745
 Vibration     3          0.595              1.979              4.946
 Vibration     4          0.597              1.972              4.381
 Vibration     5          0.598              1.969              4.203
 Vibration     6          0.604              1.949              3.456
 Vibration     7          0.611              1.925              2.967
 Vibration     8          0.617              1.905              2.699
 Vibration     9          0.628              1.871              2.362
 Vibration    10          0.635              1.849              2.197
 Vibration    11          0.647              1.812              1.966
 Vibration    12          0.654              1.788              1.846
 Vibration    13          0.662              1.765              1.742
 Vibration    14          0.667              1.748              1.671
 Vibration    15          0.674              1.729              1.600
 Vibration    16          0.685              1.696              1.485
 Vibration    17          0.696              1.662              1.383
 Vibration    18          0.721              1.592              1.204
 Vibration    19          0.726              1.578              1.172
 Vibration    20          0.732              1.561              1.136
 Vibration    21          0.746              1.523              1.058
 Vibration    22          0.776              1.444              0.919
 Vibration    23          0.780              1.433              0.901
 Vibration    24          0.800              1.383              0.827
 Vibration    25          0.814              1.348              0.778
 Vibration    26          0.822              1.328              0.752
 Vibration    27          0.833              1.301              0.719
 Vibration    28          0.849              1.265              0.676
 Vibration    29          0.908              1.135              0.539
 Vibration    30          0.934              1.080              0.490
 Vibration    31          0.961              1.026              0.445

 Optimization completed.
    -- Stationary point found.
 Normal termination of Gaussian 16 at Mon Dec 14 17:17:32 2020.

 ----------------------------------------------------------------------
 # B3LYP/6-311++G(d,p) empiricaldispersion=gd3bj scf=xqc pop=npa geom=c
 heck
 ----------------------------------------------------------------------

 ---------------------------------------
 CID_112605172_JID_7380_Energie_neutraal
 ---------------------------------------
 Structure from the checkpoint file:  "JID_7380.chk"
 Charge =  0 Multiplicity = 1

 SCF Done:  E(RB3LYP) =  -791.163163369     A.U. after   15 cycles
 Normal termination of Gaussian 16 at Mon Dec 14 17:27:33 2020.

 ----------------------------------------------------------------------
 # B3LYP/6-311++G(d,p) empiricaldispersion=gd3bj scf=xqc pop=npa geom=c
 heck
 ----------------------------------------------------------------------

 -------------------------------------
 CID_112605172_JID_7380_Energie_kation
 -------------------------------------
 Structure from the checkpoint file:  "JID_7380.chk"
 Charge =  1 Multiplicity = 2

 SCF Done:  E(UB3LYP) =  -790.858704260     A.U. after   27 cycles
 Normal termination of Gaussian 16 at Mon Dec 14 17:53:15 2020.
 Gaussian 16:  ES64L-G16RevA.03 25-Dec-2016

 ----------------------------------------------------------------------
 # B3LYP/6-311++G(d,p) empiricaldispersion=gd3bj scf=xqc pop=npa geom=c
 heck
 ----------------------------------------------------------------------

 ------------------------------------
 CID_112605172_JID_7380_Energie_anion
 ------------------------------------
 Structure from the checkpoint file:  "JID_7380.chk"
 Charge = -1 Multiplicity = 2

                         Standard orientation:
 ---------------------------------------------------------------------
 Center     Atomic      Atomic             Coordinates (Angstroms)
 Number     Number       Type             X           Y           Z
 ---------------------------------------------------------------------
      1          6           0       -3.587725   -1.326217    1.654496
      2          6           0       -3.149541   -0.893619    0.254758
      3          6           0       -1.876463   -1.635343   -0.163487
      4          6           0       -4.281857   -1.126134   -0.753398
      5          8           0       -2.905935    0.527737    0.412109
      6          6           0       -2.386496    1.245909   -0.692661
      7          6           0       -0.859728    1.213573   -0.893939
      8          8           0       -0.410165    0.934487   -2.006245
      9          7           0       -0.049878    1.549205    0.152810
     10          6           0       -0.515497    1.954506    1.472050
     11          6           0        1.388676    1.669637   -0.088307
     12          6           0        2.198182    0.438062    0.333290
     13          6           0        3.703339    0.749755    0.344715
     14          6           0        4.514532   -0.511913    0.665713
     15          6           0        4.093934   -1.656646   -0.256971
     16          8           0        2.697326   -1.899770   -0.181621
     17          6           0        1.940483   -0.764508   -0.584186
     18          1           0       -3.827931   -2.394120    1.670416
     19          1           0       -4.472852   -0.762986    1.966433
     20          1           0       -2.787120   -1.138591    2.377179
     21          1           0       -2.059534   -2.714878   -0.185051
     22          1           0       -1.538084   -1.331766   -1.158301
     23          1           0       -1.071401   -1.440112    0.552061
     24          1           0       -5.164801   -0.543642   -0.471339
     25          1           0       -3.989801   -0.847002   -1.770706
     26          1           0       -4.556508   -2.186078   -0.772968
     27          1           0       -2.808144    0.910761   -1.643814
     28          1           0       -2.693935    2.288075   -0.538633
     29          1           0        0.088916    1.457667    2.239685
     30          1           0       -0.411675    3.040266    1.608316
     31          1           0       -1.551321    1.657599    1.616770
     32          1           0        1.532389    1.865134   -1.153681
     33          1           0        1.742190    2.545922    0.470372
     34          1           0        1.899425    0.145423    1.350785
     35          1           0        3.995028    1.128272   -0.646704
     36          1           0        3.924026    1.548226    1.064836
     37          1           0        5.590487   -0.322944    0.561961
     38          1           0        4.332191   -0.813384    1.705242
     39          1           0        4.377251   -1.420280   -1.298248
     40          1           0        4.582621   -2.594989    0.022419
     41          1           0        0.894467   -1.070165   -0.557868
     42          1           0        2.182407   -0.492845   -1.625212
 ---------------------------------------------------------------------

 SCF Done:  E(UB3LYP) =  -791.149923969     A.U. after   33 cycles
 SCF Done:  E(UB3LYP) =  -791.149923969     a.u. after    1 cycles

 The electronic state is 2-A.
 Alpha  occ. eigenvalues --  -19.03855 -19.03127 -18.99632 -14.25378 -10.17836
 Alpha  occ. eigenvalues --  -10.14548 -10.13617 -10.12585 -10.11625 -10.10986
 Alpha  occ. eigenvalues --  -10.10242 -10.08264 -10.07863 -10.07802 -10.07338
 Alpha  occ. eigenvalues --  -10.06925 -10.06828  -0.95647  -0.94581  -0.94048
 Alpha  occ. eigenvalues --   -0.84560  -0.72345  -0.71642  -0.68270  -0.63712
 Alpha  occ. eigenvalues --   -0.62127  -0.60759  -0.60355  -0.58744  -0.55498
 Alpha  occ. eigenvalues --   -0.52963  -0.48180  -0.47519  -0.45338  -0.41777
 Alpha  occ. eigenvalues --   -0.40572  -0.40177  -0.39361  -0.38892  -0.37538
 Alpha  occ. eigenvalues --   -0.36967  -0.36334  -0.35643  -0.34258  -0.33471
 Alpha  occ. eigenvalues --   -0.33234  -0.31988  -0.31461  -0.31069  -0.30603
 Alpha  occ. eigenvalues --   -0.29895  -0.29382  -0.29127  -0.28649  -0.28238
 Alpha  occ. eigenvalues --   -0.27876  -0.26195  -0.25876  -0.25484  -0.24441
 Alpha  occ. eigenvalues --   -0.23791  -0.22514  -0.21382  -0.19545  -0.16530
 Alpha  occ. eigenvalues --   -0.15565  -0.15314   0.04110
 Alpha virt. eigenvalues --    0.05582   0.06363   0.07278   0.07754   0.08069
 Alpha virt. eigenvalues --    0.08290   0.08903   0.09244   0.09597   0.09767
 Alpha virt. eigenvalues --    0.10470   0.10819   0.11147   0.11241   0.11975

  Beta  occ. eigenvalues --  -19.03850 -19.03124 -18.99631 -14.25375 -10.17835
  Beta  occ. eigenvalues --  -10.14547 -10.13605 -10.12579 -10.11623 -10.10974
  Beta  occ. eigenvalues --  -10.10200 -10.08255 -10.07845 -10.07783 -10.07310
  Beta  occ. eigenvalues --  -10.06910 -10.06801  -0.95642  -0.94575  -0.94043
  Beta  occ. eigenvalues --   -0.84548  -0.72322  -0.71622  -0.68247  -0.63690
  Beta  occ. eigenvalues --   -0.62076  -0.60715  -0.60318  -0.58707  -0.55466
  Beta  occ. eigenvalues --   -0.52931  -0.48147  -0.47482  -0.45301  -0.41749
  Beta  occ. eigenvalues --   -0.40539  -0.40143  -0.39332  -0.38866  -0.37511
  Beta  occ. eigenvalues --   -0.36943  -0.36313  -0.35623  -0.34227  -0.33453
  Beta  occ. eigenvalues --   -0.33209  -0.31966  -0.31434  -0.31040  -0.30575
  Beta  occ. eigenvalues --   -0.29867  -0.29351  -0.29092  -0.28619  -0.28215
  Beta  occ. eigenvalues --   -0.27853  -0.26171  -0.25852  -0.25461  -0.24412
  Beta  occ. eigenvalues --   -0.23768  -0.22497  -0.21365  -0.19533  -0.16514
  Beta  occ. eigenvalues --   -0.15551  -0.15299
  Beta virt. eigenvalues --    0.06099   0.06378   0.07247   0.07670   0.08195
  Beta virt. eigenvalues --    0.08353   0.08590   0.09137   0.09674   0.09847
  Beta virt. eigenvalues --    0.10145   0.10617   0.11124   0.11329   0.11398

 Mulliken charges and spin densities:
               1          2
     1  C    0.652601  -1.095288
     2  C   -1.284814   1.423783
     3  C    0.210810  -0.842888
     4  C    0.246740  -0.769151
     5  O    0.026085   0.008175
     6  C   -0.167097  -0.398893
     7  C   -0.331995   0.111866
     8  O   -0.232730   0.007769
     9  N    0.162186   0.151058
    10  C    1.059463  -1.330202
    11  C   -0.696492   0.004431
    12  C    0.362669   0.406225
    13  C   -0.154964  -0.321321
    14  C    0.299060  -0.692586
    15  C   -0.042696  -0.158116
    16  O   -0.087584   0.018016
    17  C   -0.347739  -0.374086
    18  H   -0.095715   0.235581
    19  H   -0.120729   0.284477
    20  H   -0.023511   0.162526
    21  H   -0.004164   0.180468
    22  H    0.127744   0.077797
    23  H   -0.071165   0.251715
    24  H   -0.071502   0.242228
    25  H    0.011239   0.120782
    26  H   -0.145589   0.287650
    27  H    0.130447   0.037697
    28  H   -0.014163   0.214359
    29  H   -0.459858   0.631057
    30  H   -0.371428   0.529195
    31  H    0.068389   0.134759
    32  H    0.141029   0.062563
    33  H   -0.082324   0.275820
    34  H    0.256035  -0.091616
    35  H    0.123010   0.023042
    36  H   -0.431676   0.593221
    37  H   -0.328464   0.490450
    38  H   -0.021796   0.174459
    39  H    0.112186  -0.019381
    40  H   -0.024454   0.204309
    41  H    0.556066  -0.347718
    42  H    0.066887   0.095770
 Sum of Mulliken charges =  -1.00000   1.00000

 Dipole moment (field-independent basis, Debye):
    X=             -0.1999    Y=             -1.0397    Z=             -3.7983  Tot=              3.9431
 Quadrupole moment (field-independent basis, Debye-Ang):
   XX=           -195.5258   YY=           -155.8302   ZZ=           -151.7334
   XY=             -7.9417   XZ=             -5.6579   YZ=             -6.5230

 Summary of Natural Population Analysis:

                                       Natural Population
                Natural  -----------------------------------------------
    Atom  No    Charge         Core      Valence    Rydberg      Total
 -----------------------------------------------------------------------
      C    1   -0.28822      0.99960     2.28151    0.00711     3.28822
      C    2    0.13609      0.99954     1.84996    0.01442     2.86391
      C    3   -0.30646      0.99960     2.30028    0.00658     3.30646
      C    4   -0.30033      0.99960     2.29427    0.00645     3.30033
      O    5   -0.31443      0.99987     3.30280    0.01175     4.31443
      C    6   -0.05054      0.99952     2.03867    0.01235     3.05054
      C    7    0.32956      0.99963     1.64771    0.02310     2.67044
      O    8   -0.33276      0.99988     3.32787    0.00500     4.33276
      N    9   -0.25125      0.99964     2.73944    0.01217     3.75125
      C   10   -0.17951      0.99962     2.17194    0.00796     3.17951
      C   11   -0.08325      0.99957     2.07180    0.01188     3.08325
      C   12   -0.13021      0.99958     2.11981    0.01082     3.13021
      C   13   -0.18996      0.99961     2.18016    0.01019     3.18996
      C   14   -0.20319      0.99963     2.19504    0.00852     3.20319
      C   15   -0.00870      0.99958     1.99618    0.01294     3.00870
      O   16   -0.29896      0.99989     3.29070    0.00836     4.29896
      C   17   -0.00791      0.99954     1.99701    0.01135     3.00791
      H   18    0.10021      0.00000     0.39882    0.00096     0.39979
      H   19    0.10359      0.00000     0.39525    0.00116     0.39641
      H   20    0.10459      0.00000     0.39423    0.00118     0.39541
      H   21    0.10477      0.00000     0.39444    0.00079     0.39523
      H   22    0.10776      0.00000     0.39104    0.00120     0.39224
      H   23    0.10476      0.00000     0.39387    0.00137     0.39524
      H   24    0.10399      0.00000     0.39501    0.00099     0.39601
      H   25    0.09969      0.00000     0.39938    0.00092     0.40031
      H   26    0.10427      0.00000     0.39480    0.00093     0.39573
      H   27    0.09576      0.00000     0.40293    0.00131     0.40424
      H   28    0.09967      0.00000     0.39920    0.00113     0.40033
      H   29    0.09860      0.00000     0.39963    0.00177     0.40140
      H   30    0.09265      0.00000     0.40562    0.00173     0.40735
      H   31    0.11609      0.00000     0.38208    0.00183     0.38391
      H   32    0.11009      0.00000     0.38868    0.00122     0.38991
      H   33    0.09940      0.00000     0.39931    0.00129     0.40060
      H   34    0.09824      0.00000     0.39913    0.00263     0.40176
      H   35    0.09243      0.00000     0.40624    0.00133     0.40757
      H   36    0.10454      0.00000     0.39385    0.00161     0.39546
      H   37    0.09994      0.00000     0.39881    0.00125     0.40006
      H   38    0.09887      0.00000     0.39975    0.00138     0.40113
      H   39    0.07349      0.00000     0.42533    0.00117     0.42651
      H   40    0.08986      0.00000     0.40907    0.00107     0.41014
      H   41    0.09774      0.00000     0.40063    0.00163     0.40226
      H   42    0.07902      0.00000     0.41978    0.00120     0.42098
 =======================================================================
   * Total *   -0.00000     16.99391    49.79207    0.21402    67.00000

 Normal termination of Gaussian 16 at Mon Dec 14 18:24:28 2020.
