 Gaussian 16, Revision A.03,

 -----------------------------------------------------------
 # opt freq B3LYP/6-31G(d) empiricaldispersion=gd3bj scf=xqc
 -----------------------------------------------------------

 ------------------------------
 CID_53431574_JID_2086_neutraal
 ------------------------------
 Symbolic Z-matrix:
 Charge =  0 Multiplicity = 1

 SCF Done:  E(RB3LYP) =  -519.861418310     A.U. after   13 cycles
 SCF Done:  E(RB3LYP) =  -519.866632340     A.U. after   11 cycles
 SCF Done:  E(RB3LYP) =  -519.867202156     A.U. after   11 cycles
 SCF Done:  E(RB3LYP) =  -519.868890649     A.U. after   10 cycles
 SCF Done:  E(RB3LYP) =  -519.869603516     A.U. after   10 cycles
 SCF Done:  E(RB3LYP) =  -519.869982385     A.U. after   13 cycles
 SCF Done:  E(RB3LYP) =  -519.870441190     A.U. after   11 cycles
 SCF Done:  E(RB3LYP) =  -519.870544280     A.U. after   10 cycles
 SCF Done:  E(RB3LYP) =  -519.870627482     A.U. after   10 cycles
 SCF Done:  E(RB3LYP) =  -519.870661941     A.U. after    9 cycles
 SCF Done:  E(RB3LYP) =  -519.870695727     A.U. after    9 cycles
 SCF Done:  E(RB3LYP) =  -519.870700087     A.U. after    9 cycles
 SCF Done:  E(RB3LYP) =  -519.870701477     A.U. after    8 cycles
 SCF Done:  E(RB3LYP) =  -519.870702417     A.U. after    8 cycles
 SCF Done:  E(RB3LYP) =  -519.870702417     A.U. after    7 cycles
 SCF Done:  E(RB3LYP) =  -519.870702386     A.U. after    6 cycles
 Optimization completed.
    -- Stationary point found.

 1\1\GINC-NODE314\FOpt\RB3LYP\6-31G(d)\C9H21N3\VSC10255\09-Dec-2020\0\\
 # opt freq B3LYP/6-31G(d) empiricaldispersion=gd3bj scf=xqc\\CID_53431
 574_JID_2086_neutraal\\0,1\C,1.0388987433,0.0137111531,0.0590201769\C,
 0.5093631827,1.2085570975,-0.7535115529\C,0.9248542696,1.1058295836,-2
 .2361254228\N,0.4396033316,-0.1024224207,-2.9210552361\C,-0.3524214404
 ,0.1972028753,-4.1046109249\C,1.4976083063,-1.0570321643,-3.2114623814
 \N,-0.9248535236,1.4945077145,-0.6361120465\C,-1.8745497948,0.39104110
 27,-0.7971571346\C,-2.2908976961,-0.27020144,0.5295587566\N,-2.7308015

 Normal termination of Gaussian 16 at Wed Dec  9 16:52:59 2020.

 --------------------------------------------------------------------
 #N Geom=AllCheck Guess=TCheck SCRF=Check GenChk RB3LYP/6-31G(d) Freq
 --------------------------------------------------------------------

 Structure from the checkpoint file:  "JID_2086.chk"
 ------------------------------
 CID_53431574_JID_2086_neutraal
 ------------------------------
 Charge =  0 Multiplicity = 1

 SCF Done:  E(RB3LYP) =  -519.870702386     A.U. after    1 cycles

  Exact polarizability: 131.067   1.142 111.201  -5.177   0.728 102.115
 Approx polarizability: 160.217   3.196 161.379  -7.193   1.152 149.898

                      1                      2                      3
                      A                      A                      A
 Frequencies --     19.5998                60.2799                81.6619
 Red. masses --      2.8868                 2.9176                 3.2822
 Frc consts  --      0.0007                 0.0062                 0.0129
 IR Inten    --      0.0891                 0.0516                 0.2771

                      4                      5                      6
                      A                      A                      A
 Frequencies --    110.9634               175.0631               206.6567
 Red. masses --      3.6056                 2.6876                 2.5131
 Frc consts  --      0.0262                 0.0485                 0.0632
 IR Inten    --      1.7250                 0.2574                 0.1553

                      7                      8                      9
                      A                      A                      A
 Frequencies --    238.0826               254.7217               271.4898
 Red. masses --      1.3765                 1.0499                 2.1957
 Frc consts  --      0.0460                 0.0401                 0.0954
 IR Inten    --      0.3929                 0.1109                 5.0410

                     10                     11                     12
                      A                      A                      A
 Frequencies --    277.4219               308.3487               331.7687
 Red. masses --      2.3624                 1.0364                 2.2579
 Frc consts  --      0.1071                 0.0581                 0.1464
 IR Inten    --      0.8641                 0.3576                 7.3062

                     13                     14                     15
                      A                      A                      A
 Frequencies --    340.5681               384.9459               423.7532
 Red. masses --      2.0532                 2.1721                 2.9831
 Frc consts  --      0.1403                 0.1896                 0.3156
 IR Inten    --      2.2103                 1.3491                 2.9379

                     16                     17                     18
                      A                      A                      A
 Frequencies --    437.5149               459.2390               481.1712
 Red. masses --      2.1752                 1.7300                 2.6062
 Frc consts  --      0.2453                 0.2150                 0.3555
 IR Inten    --      0.5609                 0.8030                 0.3193

                     19                     20                     21
                      A                      A                      A
 Frequencies --    494.8751               606.0397               661.8732
 Red. masses --      2.4522                 1.7509                 2.7710
 Frc consts  --      0.3538                 0.3789                 0.7152
 IR Inten    --     13.6473                 6.4741                 0.5719

                     22                     23                     24
                      A                      A                      A
 Frequencies --    711.6950               818.4603               824.1701
 Red. masses --      2.7786                 2.5774                 2.9691
 Frc consts  --      0.8292                 1.0172                 1.1882
 IR Inten    --      1.2372               117.8919                56.3322

                     25                     26                     27
                      A                      A                      A
 Frequencies --    841.6474               872.5914               893.7473
 Red. masses --      1.6223                 2.0344                 2.2554
 Frc consts  --      0.6771                 0.9126                 1.0614
 IR Inten    --      0.0686                15.5572                 8.6258

                     28                     29                     30
                      A                      A                      A
 Frequencies --    908.1227               927.2005               990.8037
 Red. masses --      1.9529                 1.8645                 2.1683
 Frc consts  --      0.9489                 0.9444                 1.2541
 IR Inten    --     12.6073                 4.4369                 9.3587

                     31                     32                     33
                      A                      A                      A
 Frequencies --   1022.8723              1038.8227              1048.2231
 Red. masses --      2.0439                 1.5907                 2.2125
 Frc consts  --      1.2599                 1.0114                 1.4324
 IR Inten    --     29.1928                 4.5346                14.3952

                     34                     35                     36
                      A                      A                      A
 Frequencies --   1053.8173              1077.1916              1088.7837
 Red. masses --      2.0849                 1.6438                 2.0050
 Frc consts  --      1.3642                 1.1238                 1.4004
 IR Inten    --     25.9676                16.9308                39.7988

                     37                     38                     39
                      A                      A                      A
 Frequencies --   1111.7120              1137.2935              1142.2109
 Red. masses --      2.0142                 1.2883                 4.2161
 Frc consts  --      1.4667                 0.9818                 3.2408
 IR Inten    --      9.7415                 9.8290                30.6998

                     40                     41                     42
                      A                      A                      A
 Frequencies --   1159.9236              1194.9689              1207.8409
 Red. masses --      1.8922                 1.5600                 2.0550
 Frc consts  --      1.5000                 1.3125                 1.7664
 IR Inten    --     15.7758                13.3509                35.8020

                     43                     44                     45
                      A                      A                      A
 Frequencies --   1211.9287              1225.4543              1244.0997
 Red. masses --      1.7030                 1.4276                 1.9388
 Frc consts  --      1.4737                 1.2631                 1.7681
 IR Inten    --     14.4195                 3.7002                17.8575

                     46                     47                     48
                      A                      A                      A
 Frequencies --   1292.8463              1313.5234              1348.5661
 Red. masses --      1.2950                 2.3057                 1.5256
 Frc consts  --      1.2753                 2.3439                 1.6347
 IR Inten    --     19.1295                10.7485                 5.3036

                     49                     50                     51
                      A                      A                      A
 Frequencies --   1353.4826              1369.0107              1375.9016
 Red. masses --      1.2909                 1.2712                 1.4633
 Frc consts  --      1.3933                 1.4038                 1.6321
 IR Inten    --      2.2235                 2.9623                10.2504

                     52                     53                     54
                      A                      A                      A
 Frequencies --   1390.5973              1396.8524              1408.5334
 Red. masses --      1.4624                 1.2549                 1.2743
 Frc consts  --      1.6662                 1.4427                 1.4896
 IR Inten    --      3.7561                15.7589                13.3705

                     55                     56                     57
                      A                      A                      A
 Frequencies --   1416.8447              1422.6138              1434.6570
 Red. masses --      1.2745                 1.4092                 1.3037
 Frc consts  --      1.5074                 1.6804                 1.5810
 IR Inten    --     13.1638                20.2950                16.9600

                     58                     59                     60
                      A                      A                      A
 Frequencies --   1436.6217              1468.1106              1489.2342
 Red. masses --      1.3054                 1.1540                 1.1360
 Frc consts  --      1.5874                 1.4655                 1.4844
 IR Inten    --      9.0769                 0.8316                 2.3643

                     61                     62                     63
                      A                      A                      A
 Frequencies --   1494.8132              1504.9016              1508.3547
 Red. masses --      1.1111                 1.0851                 1.0940
 Frc consts  --      1.4628                 1.4479                 1.4665
 IR Inten    --      8.3951                 3.5958                 3.0315

                     64                     65                     66
                      A                      A                      A
 Frequencies --   1510.4986              1515.4832              1521.2944
 Red. masses --      1.1304                 1.0666                 1.0883
 Frc consts  --      1.5196                 1.4433                 1.4839
 IR Inten    --      3.6813                 5.1072                 3.4726

                     67                     68                     69
                      A                      A                      A
 Frequencies --   1522.0806              1527.6075              1531.9568
 Red. masses --      1.1036                 1.0563                 1.0739
 Frc consts  --      1.5064                 1.4523                 1.4849
 IR Inten    --      7.7419                 5.2295                10.1546

                     70                     71                     72
                      A                      A                      A
 Frequencies --   1533.8451              1538.5332              1545.5604
 Red. masses --      1.0619                 1.0558                 1.0573
 Frc consts  --      1.4720                 1.4724                 1.4880
 IR Inten    --      2.2302                 0.6282                 8.6189

                     73                     74                     75
                      A                      A                      A
 Frequencies --   2930.9539              2941.1118              2971.2761
 Red. masses --      1.0617                 1.0619                 1.0716
 Frc consts  --      5.3737                 5.4118                 5.5742
 IR Inten    --     57.0359               161.4995                27.8048

                     76                     77                     78
                      A                      A                      A
 Frequencies --   2977.9516              2992.3997              3034.7150
 Red. masses --      1.0738                 1.0696                 1.0790
 Frc consts  --      5.6105                 5.6431                 5.8548
 IR Inten    --    107.3816                59.1849                41.0029

                     79                     80                     81
                      A                      A                      A
 Frequencies --   3037.5819              3047.8593              3050.5124
 Red. masses --      1.0637                 1.0537                 1.0487
 Frc consts  --      5.7825                 5.7673                 5.7500
 IR Inten    --     24.6614                38.2616                31.0716

                     82                     83                     84
                      A                      A                      A
 Frequencies --   3074.8997              3077.0227              3081.6628
 Red. masses --      1.0909                 1.0728                 1.0728
 Frc consts  --      6.0773                 5.9848                 6.0028
 IR Inten    --     59.3637                17.9268                54.9556

                     85                     86                     87
                      A                      A                      A
 Frequencies --   3082.0913              3087.4544              3093.3876
 Red. masses --      1.1053                 1.0928                 1.1039
 Frc consts  --      6.1864                 6.1373                 6.2238
 IR Inten    --     62.4048                13.8092                67.2502

                     88                     89                     90
                      A                      A                      A
 Frequencies --   3116.5588              3129.2367              3131.9941
 Red. masses --      1.0955                 1.1017                 1.0940
 Frc consts  --      6.2690                 6.3559                 6.3226
 IR Inten    --     28.9852                27.1913                15.6416

                     91                     92                     93
                      A                      A                      A
 Frequencies --   3132.5238              3141.3554              3442.4151
 Red. masses --      1.0989                 1.1021                 1.0732
 Frc consts  --      6.3531                 6.4078                 7.4932
 IR Inten    --     34.4965                18.9532                 6.6144

 - Thermochemistry -
 -------------------
 Temperature   298.150 Kelvin.  Pressure   1.00000 Atm.
 Atom     1 has atomic number  6 and mass  12.00000

 Molecular mass:   171.17355 amu.
 Principal axes and moments of inertia in atomic units:
                           1         2         3
     Eigenvalues --  1040.391753397.860683545.78353
           X            0.99997  -0.00599  -0.00531
           Y            0.00559   0.99735  -0.07260
           Z            0.00573   0.07257   0.99735
 This molecule is an asymmetric top.
 Rotational symmetry number  1.
 Warning -- assumption of classical behavior for rotation
           may cause significant error
 Rotational temperatures (Kelvin)      0.08325     0.02549     0.02443
 Rotational constants (GHZ):           1.73467     0.53114     0.50898
 Zero-point vibrational energy     808238.4 (Joules/Mol)
                                  193.17361 (Kcal/Mol)
 Warning -- explicit consideration of  20 degrees of freedom as
           vibrations may cause significant error
 Vibrational temperatures:     28.20    86.73   117.49   159.65   251.88
          (Kelvin)            297.33   342.55   366.49   390.61   399.15
                              443.64   477.34   490.00   553.85   609.69
                              629.49   660.74   692.30   712.01   871.96
                              952.29  1023.97  1177.58  1185.80  1210.94
                             1255.46  1285.90  1306.59  1334.03  1425.55
                             1471.69  1494.63  1508.16  1516.21  1549.84
                             1566.52  1599.51  1636.31  1643.39  1668.87
                             1719.29  1737.81  1743.70  1763.16  1789.98
                             1860.12  1889.87  1940.29  1947.36  1969.70
                             1979.62  2000.76  2009.76  2026.57  2038.52
                             2046.82  2064.15  2066.98  2112.28  2142.68
                             2150.70  2165.22  2170.19  2173.27  2180.44
                             2188.80  2189.93  2197.89  2204.14  2206.86
                             2213.61  2223.72  4216.99  4231.60  4275.00
                             4284.61  4305.40  4366.28  4370.40  4385.19
                             4389.01  4424.09  4427.15  4433.83  4434.44
                             4442.16  4450.69  4484.03  4502.27  4506.24
                             4507.00  4519.71  4952.87

 Zero-point correction=                           0.307842 (Hartree/Particle)
 Thermal correction to Energy=                    0.321060
 Thermal correction to Enthalpy=                  0.322004
 Thermal correction to Gibbs Free Energy=         0.267916
 Sum of electronic and zero-point Energies=           -519.562861
 Sum of electronic and thermal Energies=              -519.549643
 Sum of electronic and thermal Enthalpies=            -519.548699
 Sum of electronic and thermal Free Energies=         -519.602787

                     E (Thermal)             CV                S
                      KCal/Mol        Cal/Mol-Kelvin    Cal/Mol-Kelvin
 Total                  201.468             50.884            113.838
 Electronic               0.000              0.000              0.000
 Translational            0.889              2.981             41.320
 Rotational               0.889              2.981             30.906
 Vibrational            199.690             44.923             41.612
 Vibration     1          0.593              1.986              6.674
 Vibration     2          0.597              1.973              4.448
 Vibration     3          0.600              1.962              3.851
 Vibration     4          0.607              1.940              3.252
 Vibration     5          0.627              1.873              2.380
 Vibration     6          0.641              1.830              2.073
 Vibration     7          0.656              1.782              1.817
 Vibration     8          0.665              1.755              1.698
 Vibration     9          0.675              1.726              1.587
 Vibration    10          0.678              1.715              1.550
 Vibration    11          0.698              1.658              1.371
 Vibration    12          0.714              1.612              1.251
 Vibration    13          0.720              1.594              1.209
 Vibration    14          0.754              1.502              1.020
 Vibration    15          0.786              1.419              0.879
 Vibration    16          0.798              1.388              0.834
 Vibration    17          0.817              1.340              0.768
 Vibration    18          0.837              1.292              0.707
 Vibration    19          0.850              1.261              0.671
 Vibration    20          0.965              1.019              0.439

                           ! Non-Optimized Parameters !

 1\1\GINC-NODE314\Freq\RB3LYP\6-31G(d)\C9H21N3\VSC10255\09-Dec-2020\0\\
 #N Geom=AllCheck Guess=TCheck SCRF=Check GenChk RB3LYP/6-31G(d) Freq\\
 CID_53431574_JID_2086_neutraal\\0,1\C,1.0388987433,0.0137111531,0.0590
 201769\C,0.5093631827,1.2085570975,-0.7535115529\C,0.9248542696,1.1058
 295836,-2.2361254228\N,0.4396033316,-0.1024224207,-2.9210552361\C,-0.3
 524214404,0.1972028753,-4.1046109249\C,1.4976083063,-1.0570321643,-3.2
 114623814\N,-0.9248535236,1.4945077145,-0.6361120465\C,-1.8745497948,0
 .3910411027,-0.7971571346\C,-2.2908976961,-0.27020144,0.5295587566\N,-

 Normal termination of Gaussian 16 at Wed Dec  9 17:01:51 2020.

 ----------------------------------------------------------------------
 # B3LYP/6-311++G(d,p) empiricaldispersion=gd3bj scf=xqc pop=npa geom=c
 heck
 ----------------------------------------------------------------------

 --------------------------------------
 CID_53431574_JID_2086_Energie_neutraal
 --------------------------------------
 Structure from the checkpoint file:  "JID_2086.chk"
 Charge =  0 Multiplicity = 1

 SCF Done:  E(RB3LYP) =  -520.018192072     A.U. after   14 cycles
 Normal termination of Gaussian 16 at Wed Dec  9 17:05:40 2020.

 ----------------------------------------------------------------------
 # B3LYP/6-311++G(d,p) empiricaldispersion=gd3bj scf=xqc pop=npa geom=c
 heck
 ----------------------------------------------------------------------

 ------------------------------------
 CID_53431574_JID_2086_Energie_kation
 ------------------------------------
 Structure from the checkpoint file:  "JID_2086.chk"
 Charge =  1 Multiplicity = 2

 SCF Done:  E(UB3LYP) =  -519.769153491     A.U. after   18 cycles
 Normal termination of Gaussian 16 at Wed Dec  9 17:11:59 2020.
 Gaussian 16:  ES64L-G16RevA.03 25-Dec-2016

 -----------------------------------
 CID_53431574_JID_2086_Energie_anion
 -----------------------------------
 Structure from the checkpoint file:  "JID_2086.chk"
 Charge = -1 Multiplicity = 2

                         Standard orientation:
 ---------------------------------------------------------------------
 Center     Atomic      Atomic             Coordinates (Angstroms)
 Number     Number       Type             X           Y           Z
 ---------------------------------------------------------------------
      1          6           0       -0.206912   -1.576088    1.125821
      2          6           0       -0.281078   -1.124251   -0.343401
      3          6           0       -1.727676   -0.771249   -0.748461
      4          7           0       -2.333997    0.310148    0.043640
      5          6           0       -2.798116    1.420032   -0.775282
      6          6           0       -3.371180   -0.158674    0.948874
      7          7           0        0.644327   -0.059820   -0.747308
      8          6           0        0.734363    1.142786    0.084033
      9          6           0        1.860526    1.091347    1.132782
     10          7           0        3.166873    0.708307    0.578677
     11          6           0        3.054308   -0.529446   -0.202756
     12          6           0        1.947314   -0.459702   -1.267949
     13          1           0       -0.491942   -0.762662    1.799545
     14          1           0        0.801572   -1.905933    1.391202
     15          1           0       -0.892721   -2.413864    1.303384
     16          1           0       -0.015736   -1.987931   -0.967485
     17          1           0       -1.705402   -0.481444   -1.804260
     18          1           0       -2.345979   -1.680953   -0.680339
     19          1           0       -3.632048    1.147462   -1.451462
     20          1           0       -3.142358    2.235012   -0.128514
     21          1           0       -1.971246    1.795836   -1.384849
     22          1           0       -4.255692   -0.568297    0.421530
     23          1           0       -2.974006   -0.941734    1.600674
     24          1           0       -3.709103    0.668335    1.583243
     25          1           0        0.930278    1.999164   -0.583811
     26          1           0       -0.236631    1.310630    0.554803
     27          1           0        1.612420    0.365596    1.916115
     28          1           0        1.964134    2.069168    1.619822
     29          1           0        3.478345    1.451661   -0.049302
     30          1           0        2.851092   -1.349569    0.498376
     31          1           0        4.024305   -0.736822   -0.672493
     32          1           0        1.845412   -1.417905   -1.791237
     33          1           0        2.255593    0.285270   -2.021970
 ---------------------------------------------------------------------

 SCF Done:  E(UB3LYP) =  -520.001601233     A.U. after   29 cycles

 The electronic state is 2-A.
 Alpha  occ. eigenvalues --  -14.20080 -14.19612 -14.19141 -10.09555 -10.08690
 Alpha  occ. eigenvalues --  -10.08650 -10.08484 -10.08285 -10.08263 -10.08221
 Alpha  occ. eigenvalues --  -10.07864 -10.05492  -0.83468  -0.81682  -0.78347
 Alpha  occ. eigenvalues --   -0.66755  -0.65434  -0.60420  -0.59120  -0.56715
 Alpha  occ. eigenvalues --   -0.53667  -0.51269  -0.48568  -0.44817  -0.39803
 Alpha  occ. eigenvalues --   -0.37934  -0.36789  -0.36160  -0.35287  -0.34826
 Alpha  occ. eigenvalues --   -0.33908  -0.33370  -0.31332  -0.30739  -0.29653
 Alpha  occ. eigenvalues --   -0.28959  -0.28178  -0.27835  -0.26836  -0.26326
 Alpha  occ. eigenvalues --   -0.25167  -0.24263  -0.23874  -0.22847  -0.22031
 Alpha  occ. eigenvalues --   -0.14727  -0.11564  -0.08475   0.04577
 Alpha virt. eigenvalues --    0.06510   0.06999   0.07915   0.08600   0.08731
 Alpha virt. eigenvalues --    0.09509   0.09827   0.10264   0.11229   0.11308
 Alpha virt. eigenvalues --    0.11932   0.12063   0.13022   0.13397   0.13748

  Beta  occ. eigenvalues --  -14.20065 -14.19600 -14.19141 -10.09542 -10.08674
  Beta  occ. eigenvalues --  -10.08630 -10.08475 -10.08267 -10.08230 -10.08193
  Beta  occ. eigenvalues --  -10.07849 -10.05473  -0.83447  -0.81654  -0.78322
  Beta  occ. eigenvalues --   -0.66724  -0.65404  -0.60367  -0.59077  -0.56679
  Beta  occ. eigenvalues --   -0.53624  -0.51212  -0.48504  -0.44769  -0.39768
  Beta  occ. eigenvalues --   -0.37885  -0.36745  -0.36128  -0.35249  -0.34789
  Beta  occ. eigenvalues --   -0.33884  -0.33330  -0.31306  -0.30709  -0.29617
  Beta  occ. eigenvalues --   -0.28925  -0.28145  -0.27799  -0.26806  -0.26290
  Beta  occ. eigenvalues --   -0.25126  -0.24233  -0.23850  -0.22821  -0.21993
  Beta  occ. eigenvalues --   -0.14699  -0.11486  -0.08443
  Beta virt. eigenvalues --    0.06707   0.07404   0.07770   0.08305   0.09166
  Beta virt. eigenvalues --    0.09292   0.09955   0.10232   0.10630   0.11652
  Beta virt. eigenvalues --    0.11802   0.12251   0.12484   0.13130   0.13671

 Mulliken charges and spin densities:
               1          2
     1  C    0.338846  -1.007366
     2  C   -0.902915   0.833225
     3  C    0.120476  -0.851003
     4  N   -0.088947   0.219095
     5  C    0.581813  -0.930059
     6  C    0.653428  -0.995173
     7  N    0.191691   0.059498
     8  C   -0.244047  -0.011029
     9  C    0.379032  -0.935257
    10  N   -0.273984   0.177331
    11  C    0.509881  -0.915488
    12  C   -0.105902   0.008088
    13  H   -0.025948   0.193846
    14  H    0.040874   0.067623
    15  H   -0.127204   0.276289
    16  H   -0.509665   0.646476
    17  H    0.039421   0.131394
    18  H   -0.218059   0.362245
    19  H   -0.240436   0.352315
    20  H   -0.164039   0.295776
    21  H   -0.158406   0.311692
    22  H   -0.261802   0.371334
    23  H   -0.135047   0.272735
    24  H   -0.277410   0.420972
    25  H   -0.156879   0.311279
    26  H    0.438357  -0.234264
    27  H    0.108058   0.078430
    28  H   -0.044050   0.204354
    29  H    0.042581   0.177237
    30  H    0.128172   0.016639
    31  H   -0.298011   0.472795
    32  H   -0.161596   0.283031
    33  H   -0.178283   0.335938
 Sum of Mulliken charges =  -1.00000   1.00000

 Dipole moment (field-independent basis, Debye):
    X=              1.9058    Y=              0.1750    Z=              0.9521  Tot=              2.1375
 Quadrupole moment (field-independent basis, Debye-Ang):
   XX=           -154.9921   YY=           -119.8974   ZZ=           -115.1708
   XY=             -0.0631   XZ=              3.0330   YZ=             -1.3312

 Summary of Natural Population Analysis:

                                       Natural Population
                Natural  -----------------------------------------------
    Atom  No    Charge         Core      Valence    Rydberg      Total
 -----------------------------------------------------------------------
      C    1   -0.29915      0.99964     2.29317    0.00634     3.29915
      C    2   -0.00237      0.99956     1.98872    0.01408     3.00237
      C    3   -0.08070      0.99957     2.06884    0.01228     3.08070
      N    4   -0.29497      0.99973     2.78141    0.01383     3.79497
      C    5   -0.17362      0.99964     2.16545    0.00854     3.17362
      C    6   -0.17264      0.99964     2.16446    0.00855     3.17264
      N    7   -0.28815      0.99972     2.77283    0.01561     3.78815
      C    8   -0.10198      0.99960     2.08983    0.01255     3.10198
      C    9   -0.09788      0.99962     2.08792    0.01034     3.09788
      N   10   -0.33821      0.99977     2.82545    0.01299     3.83821
      C   11   -0.09740      0.99962     2.08678    0.01100     3.09740
      C   12   -0.08810      0.99960     2.07665    0.01185     3.08810
      H   13    0.10040      0.00000     0.39822    0.00139     0.39960
      H   14    0.09814      0.00000     0.40064    0.00122     0.40186
      H   15    0.09989      0.00000     0.39907    0.00103     0.40011
      H   16    0.09399      0.00000     0.40412    0.00188     0.40601
      H   17    0.09801      0.00000     0.39972    0.00228     0.40199
      H   18    0.08901      0.00000     0.40928    0.00171     0.41099
      H   19    0.07999      0.00000     0.41859    0.00141     0.42001
      H   20    0.09448      0.00000     0.40432    0.00120     0.40552
      H   21    0.09858      0.00000     0.40024    0.00118     0.40142
      H   22    0.07996      0.00000     0.41842    0.00162     0.42004
      H   23    0.09618      0.00000     0.40250    0.00132     0.40382
      H   24    0.09508      0.00000     0.40369    0.00123     0.40492
      H   25    0.08721      0.00000     0.41114    0.00165     0.41279
      H   26    0.11191      0.00000     0.38605    0.00204     0.38809
      H   27    0.08920      0.00000     0.40930    0.00151     0.41080
      H   28    0.09235      0.00000     0.40670    0.00095     0.40765
      H   29    0.16638      0.00000     0.33102    0.00260     0.33362
      H   30    0.08727      0.00000     0.41134    0.00139     0.41273
      H   31    0.09309      0.00000     0.40569    0.00122     0.40691
      H   32    0.09671      0.00000     0.40176    0.00153     0.40329
      H   33    0.08735      0.00000     0.41106    0.00159     0.41265
 =======================================================================
   * Total *    0.00000     11.99571    35.83439    0.16990    48.00000

 Normal termination of Gaussian 16 at Wed Dec  9 17:22:17 2020.
