 Gaussian 16, Revision A.03,

 -----------------------------------------------------------
 # opt freq B3LYP/6-31G(d) empiricaldispersion=gd3bj scf=xqc
 -----------------------------------------------------------

 -------------------------------
 CID_130532578_JID_3380_neutraal
 -------------------------------
 Symbolic Z-matrix:
 Charge =  0 Multiplicity = 1

 SCF Done:  E(RB3LYP) =  -586.514219930     A.U. after   14 cycles
 SCF Done:  E(RB3LYP) =  -586.521542304     A.U. after   12 cycles
 SCF Done:  E(RB3LYP) =  -586.523194401     A.U. after   11 cycles
 SCF Done:  E(RB3LYP) =  -586.523825633     A.U. after   12 cycles
 SCF Done:  E(RB3LYP) =  -586.524144590     A.U. after   11 cycles
 SCF Done:  E(RB3LYP) =  -586.524220651     A.U. after   10 cycles
 SCF Done:  E(RB3LYP) =  -586.524234263     A.U. after    9 cycles
 SCF Done:  E(RB3LYP) =  -586.524237296     A.U. after    8 cycles
 SCF Done:  E(RB3LYP) =  -586.524238177     A.U. after    8 cycles
 SCF Done:  E(RB3LYP) =  -586.524238489     A.U. after    7 cycles
 Optimization completed.
    -- Stationary point found.

 1\1\GINC-NODE106\FOpt\RB3LYP\6-31G(d)\C8H13N5\VSC10255\09-Dec-2020\0\\
 # opt freq B3LYP/6-31G(d) empiricaldispersion=gd3bj scf=xqc\\CID_13053
 2578_JID_3380_neutraal\\0,1\C,1.0411561296,-0.0161345083,-0.0542864513
 \C,0.5395650925,-1.3039509971,0.5965167015\C,0.4597882882,-2.488252272
 7,-0.3911141371\C,0.8369495165,-3.7214721795,0.4404783882\C,1.91232154
 63,-3.1751617974,1.3850568764\N,1.4481416214,-1.8112258079,1.646813047
 \C,1.6065431403,-1.2032138908,2.843098328\N,0.935814312,-0.0387530277,
 3.0469694385\C,1.1441147579,0.4981374643,4.2455353764\N,1.9071434639,0

 Normal termination of Gaussian 16 at Wed Dec  9 23:03:34 2020.

 --------------------------------------------------------------------
 #N Geom=AllCheck Guess=TCheck SCRF=Check GenChk RB3LYP/6-31G(d) Freq
 --------------------------------------------------------------------

 Structure from the checkpoint file:  "JID_3380.chk"
 -------------------------------
 CID_130532578_JID_3380_neutraal
 -------------------------------
 Charge =  0 Multiplicity = 1

 SCF Done:  E(RB3LYP) =  -586.524238489     A.U. after    1 cycles

  Exact polarizability: 159.908   2.593 115.387   0.818  -7.842  71.308
 Approx polarizability: 219.981   6.352 175.213   3.357 -18.056 109.693

                      1                      2                      3
                      A                      A                      A
 Frequencies --     57.7851                75.5093               111.0719
 Red. masses --      3.2548                 3.5380                 3.0165
 Frc consts  --      0.0064                 0.0119                 0.0219
 IR Inten    --      1.1116                 1.0857                 1.5656

                      4                      5                      6
                      A                      A                      A
 Frequencies --    149.3282               185.7409               204.3536
 Red. masses --      4.2023                 4.4290                 6.9869
 Frc consts  --      0.0552                 0.0900                 0.1719
 IR Inten    --      1.6653                 0.0805                 3.3787

                      7                      8                      9
                      A                      A                      A
 Frequencies --    246.9368               266.3785               290.8021
 Red. masses --      1.2006                 1.9578                 2.4214
 Frc consts  --      0.0431                 0.0818                 0.1206
 IR Inten    --      0.8666                 0.9453                 2.1400

                     10                     11                     12
                      A                      A                      A
 Frequencies --    352.9418               390.0809               407.1981
 Red. masses --      1.2337                 3.2342                 3.1716
 Frc consts  --      0.0905                 0.2900                 0.3098
 IR Inten    --    331.2024                 7.7600                 0.4374

                     13                     14                     15
                      A                      A                      A
 Frequencies --    452.8618               478.6499               526.6303
 Red. masses --      2.8584                 3.0931                 1.7723
 Frc consts  --      0.3454                 0.4175                 0.2896
 IR Inten    --      0.2977                 8.7923                 2.7714

                     16                     17                     18
                      A                      A                      A
 Frequencies --    552.8872               578.5463               605.6880
 Red. masses --      1.5811                 2.0201                 6.8665
 Frc consts  --      0.2848                 0.3984                 1.4842
 IR Inten    --      5.9426                 0.1765                 9.9098

                     19                     20                     21
                      A                      A                      A
 Frequencies --    680.8883               747.6109               767.7800
 Red. masses --      3.6114                11.4926                 4.5486
 Frc consts  --      0.9865                 3.7846                 1.5798
 IR Inten    --      5.8159                 0.7837                 2.4481

                     22                     23                     24
                      A                      A                      A
 Frequencies --    831.2227               862.0741               892.7235
 Red. masses --     11.2200                 1.8468                 1.9079
 Frc consts  --      4.5675                 0.8086                 0.8958
 IR Inten    --     44.7163                 1.2627                 5.3341

                     25                     26                     27
                      A                      A                      A
 Frequencies --    903.6898               934.3603               956.4618
 Red. masses --      2.0753                 2.8313                 2.1681
 Frc consts  --      0.9986                 1.4564                 1.1686
 IR Inten    --      3.1944                 1.9562                 2.5641

                     28                     29                     30
                      A                      A                      A
 Frequencies --    995.8490              1005.5518              1010.9425
 Red. masses --      8.3513                 1.5345                 1.4700
 Frc consts  --      4.8797                 0.9142                 0.8852
 IR Inten    --     16.6259                 1.0983                 0.9791

                     31                     32                     33
                      A                      A                      A
 Frequencies --   1022.2464              1034.3979              1067.0540
 Red. masses --      1.8259                 1.5457                 2.2003
 Frc consts  --      1.1242                 0.9744                 1.4760
 IR Inten    --      0.2079                 6.5357                17.3603

                     34                     35                     36
                      A                      A                      A
 Frequencies --   1140.8900              1145.5500              1173.1604
 Red. masses --      2.2012                 1.8973                 2.0332
 Frc consts  --      1.6881                 1.4669                 1.6488
 IR Inten    --      7.3715                 4.9219                 8.7944

                     37                     38                     39
                      A                      A                      A
 Frequencies --   1215.5893              1232.9195              1236.4152
 Red. masses --      2.4630                 1.8007                 1.5972
 Frc consts  --      2.1443                 1.6127                 1.4386
 IR Inten    --     28.8852                 3.3213                 7.5881

                     40                     41                     42
                      A                      A                      A
 Frequencies --   1283.7656              1293.4073              1324.7380
 Red. masses --      1.8206                 2.9842                 1.3795
 Frc consts  --      1.7678                 2.9414                 1.4264
 IR Inten    --     12.0148                26.2634                 2.3405

                     43                     44                     45
                      A                      A                      A
 Frequencies --   1354.4514              1362.6337              1377.3791
 Red. masses --      2.9362                 1.3588                 1.6222
 Frc consts  --      3.1736                 1.4865                 1.8133
 IR Inten    --     62.1538                 1.8622                 7.8085

                     46                     47                     48
                      A                      A                      A
 Frequencies --   1384.1895              1398.8985              1408.5614
 Red. masses --      1.4119                 1.3921                 1.6096
 Frc consts  --      1.5939                 1.6051                 1.8816
 IR Inten    --      8.6300                65.5808                14.7056

                     49                     50                     51
                      A                      A                      A
 Frequencies --   1428.5073              1498.6024              1513.0525
 Red. masses --      1.2709                 2.6020                 1.1007
 Frc consts  --      1.5280                 3.4430                 1.4847
 IR Inten    --     19.5027               355.1308                26.8332

                     52                     53                     54
                      A                      A                      A
 Frequencies --   1518.9744              1528.7568              1542.5021
 Red. masses --      1.0853                 1.0986                 1.0554
 Frc consts  --      1.4753                 1.5127                 1.4795
 IR Inten    --      2.9624                 6.0817                11.9622

                     55                     56                     57
                      A                      A                      A
 Frequencies --   1551.8462              1574.6222              1587.9241
 Red. masses --      1.1202                 8.5164                 3.1458
 Frc consts  --      1.5894                12.4411                 4.6735
 IR Inten    --     36.7680               261.1179               379.8461

                     58                     59                     60
                      A                      A                      A
 Frequencies --   1639.0779              1672.5612              3025.9389
 Red. masses --      5.5263                 1.9608                 1.0740
 Frc consts  --      8.7475                 3.2319                 5.7939
 IR Inten    --    819.7384               385.3356                46.7920

                     61                     62                     63
                      A                      A                      A
 Frequencies --   3049.3479              3050.4150              3058.4882
 Red. masses --      1.0549                 1.0672                 1.0695
 Frc consts  --      5.7794                 5.8508                 5.8947
 IR Inten    --      4.3054                24.9203                29.9789

                     64                     65                     66
                      A                      A                      A
 Frequencies --   3065.5534              3112.6805              3116.9485
 Red. masses --      1.0625                 1.1010                 1.0983
 Frc consts  --      5.8829                 6.2849                 6.2868
 IR Inten    --     38.7521                15.2490                44.2270

                     67                     68                     69
                      A                      A                      A
 Frequencies --   3123.1951              3147.4292              3163.7822
 Red. masses --      1.1028                 1.0923                 1.0991
 Frc consts  --      6.3381                 6.3756                 6.4819
 IR Inten    --     54.1277                10.1044                10.7683

                     70                     71                     72
                      A                      A                      A
 Frequencies --   3168.5594              3605.5854              3731.2006
 Red. masses --      1.0911                 1.0450                 1.1043
 Frc consts  --      6.4540                 8.0042                 9.0579
 IR Inten    --     42.4725                71.7486                41.6801

 - Thermochemistry -
 -------------------
 Temperature   298.150 Kelvin.  Pressure   1.00000 Atm.
 Atom     1 has atomic number  6 and mass  12.00000

 Molecular mass:   179.11710 amu.
 Principal axes and moments of inertia in atomic units:
                           1         2         3
     Eigenvalues --  1063.515993398.095744220.55534
           X            0.99997   0.00803  -0.00112
           Y           -0.00802   0.99993   0.00825
           Z            0.00118  -0.00824   0.99997
 This molecule is an asymmetric top.
 Rotational symmetry number  1.
 Warning -- assumption of classical behavior for rotation
           may cause significant error
 Rotational temperatures (Kelvin)      0.08144     0.02549     0.02052
 Rotational constants (GHZ):           1.69696     0.53110     0.42761
 Zero-point vibrational energy     582906.4 (Joules/Mol)
                                  139.31798 (Kcal/Mol)
 Warning -- explicit consideration of  18 degrees of freedom as
           vibrations may cause significant error
 Vibrational temperatures:     83.14   108.64   159.81   214.85   267.24
          (Kelvin)            294.02   355.29   383.26   418.40   507.80
                              561.24   585.87   651.57   688.67   757.70
                              795.48   832.40   871.45   979.65  1075.65
                             1104.66  1195.94  1240.33  1284.43  1300.21
                             1344.34  1376.14  1432.80  1446.76  1454.52
                             1470.78  1488.27  1535.25  1641.49  1648.19
                             1687.92  1748.96  1773.90  1778.93  1847.05
                             1860.92  1906.00  1948.75  1960.53  1981.74
                             1991.54  2012.70  2026.61  2055.30  2156.15
                             2176.95  2185.47  2199.54  2219.32  2232.76
                             2265.53  2284.67  2358.27  2406.44  4353.65
                             4387.33  4388.87  4400.48  4410.65  4478.45
                             4484.59  4493.58  4528.45  4551.98  4558.85
                             5187.63  5368.37

 Zero-point correction=                           0.222017 (Hartree/Particle)
 Thermal correction to Energy=                    0.233608
 Thermal correction to Enthalpy=                  0.234552
 Thermal correction to Gibbs Free Energy=         0.184359
 Sum of electronic and zero-point Energies=           -586.302221
 Sum of electronic and thermal Energies=              -586.290630
 Sum of electronic and thermal Enthalpies=            -586.289686
 Sum of electronic and thermal Free Energies=         -586.339880

                     E (Thermal)             CV                S
                      KCal/Mol        Cal/Mol-Kelvin    Cal/Mol-Kelvin
 Total                  146.591             44.802            105.641
 Electronic               0.000              0.000              0.000
 Translational            0.889              2.981             41.455
 Rotational               0.889              2.981             31.101
 Vibrational            144.814             38.840             33.085
 Vibration     1          0.596              1.974              4.531
 Vibration     2          0.599              1.965              4.004
 Vibration     3          0.607              1.940              3.250
 Vibration     4          0.618              1.903              2.681
 Vibration     5          0.632              1.859              2.270
 Vibration     6          0.640              1.834              2.094
 Vibration     7          0.661              1.768              1.752
 Vibration     8          0.672              1.735              1.620
 Vibration     9          0.687              1.691              1.469
 Vibration    10          0.729              1.569              1.153
 Vibration    11          0.758              1.491              1.000
 Vibration    12          0.772              1.455              0.937
 Vibration    13          0.811              1.355              0.787
 Vibration    14          0.835              1.297              0.714
 Vibration    15          0.882              1.191              0.595
 Vibration    16          0.908              1.133              0.538
 Vibration    17          0.935              1.078              0.488
 Vibration    18          0.964              1.020              0.440

                           ! Non-Optimized Parameters !

 1\1\GINC-NODE106\Freq\RB3LYP\6-31G(d)\C8H13N5\VSC10255\09-Dec-2020\0\\
 #N Geom=AllCheck Guess=TCheck SCRF=Check GenChk RB3LYP/6-31G(d) Freq\\
 CID_130532578_JID_3380_neutraal\\0,1\C,1.0411561296,-0.0161345083,-0.0
 542864513\C,0.5395650925,-1.3039509971,0.5965167015\C,0.4597882882,-2.
 4882522727,-0.3911141371\C,0.8369495165,-3.7214721795,0.4404783882\C,1
 .9123215463,-3.1751617974,1.3850568764\N,1.4481416214,-1.8112258079,1.
 646813047\C,1.6065431403,-1.2032138908,2.843098328\N,0.935814312,-0.03
 87530277,3.0469694385\C,1.1441147579,0.4981374643,4.2455353764\N,1.907

 Normal termination of Gaussian 16 at Wed Dec  9 23:10:32 2020.

 ----------------------------------------------------------------------
 # B3LYP/6-311++G(d,p) empiricaldispersion=gd3bj scf=xqc pop=npa geom=c
 heck
 ----------------------------------------------------------------------

 ---------------------------------------
 CID_130532578_JID_3380_Energie_neutraal
 ---------------------------------------
 Structure from the checkpoint file:  "JID_3380.chk"
 Charge =  0 Multiplicity = 1

 SCF Done:  E(RB3LYP) =  -586.686557743     A.U. after   14 cycles
 Normal termination of Gaussian 16 at Wed Dec  9 23:13:27 2020.

 ----------------------------------------------------------------------
 # B3LYP/6-311++G(d,p) empiricaldispersion=gd3bj scf=xqc pop=npa geom=c
 heck
 ----------------------------------------------------------------------

 -------------------------------------
 CID_130532578_JID_3380_Energie_kation
 -------------------------------------
 Structure from the checkpoint file:  "JID_3380.chk"
 Charge =  1 Multiplicity = 2

 SCF Done:  E(UB3LYP) =  -586.392077048     A.U. after   22 cycles
 Normal termination of Gaussian 16 at Wed Dec  9 23:20:00 2020.
 Gaussian 16:  ES64L-G16RevA.03 25-Dec-2016

 ------------------------------------
 CID_130532578_JID_3380_Energie_anion
 ------------------------------------
 Structure from the checkpoint file:  "JID_3380.chk"
 Charge = -1 Multiplicity = 2

                         Standard orientation:
 ---------------------------------------------------------------------
 Center     Atomic      Atomic             Coordinates (Angstroms)
 Number     Number       Type             X           Y           Z
 ---------------------------------------------------------------------
      1          6           0        2.139923    1.847576    0.850104
      2          6           0        2.016370    0.731177   -0.185269
      3          6           0        3.254649   -0.190219   -0.230445
      4          6           0        2.695960   -1.587379   -0.531174
      5          6           0        1.373235   -1.595129    0.241773
      6          7           0        0.915465   -0.210396    0.110385
      7          6           0       -0.389719    0.118833   -0.007810
      8          7           0       -0.683014    1.399006   -0.357874
      9          6           0       -1.986454    1.644749   -0.451979
     10          7           0       -2.992085    0.793861   -0.253332
     11          6           0       -2.574514   -0.450359    0.077556
     12          7           0       -1.304096   -0.844763    0.225753
     13          7           0       -3.542830   -1.389106    0.253365
     14          1           0        1.247865    2.476333    0.842213
     15          1           0        3.013418    2.470571    0.623777
     16          1           0        2.270299    1.424463    1.852854
     17          1           0        1.827903    1.178090   -1.168916
     18          1           0        3.987973    0.153692   -0.965381
     19          1           0        3.745210   -0.189157    0.751107
     20          1           0        3.367695   -2.395511   -0.227061
     21          1           0        2.495655   -1.696941   -1.603507
     22          1           0        1.529352   -1.853880    1.298762
     23          1           0        0.619890   -2.274411   -0.158994
     24          1           0       -2.264769    2.662501   -0.724736
     25          1           0       -3.280306   -2.252591    0.703925
     26          1           0       -4.490981   -1.058878    0.351347
 ---------------------------------------------------------------------

 SCF Done:  E(UB3LYP) =  -586.669351238     A.U. after   33 cycles
 SCF Done:  E(UB3LYP) =  -586.671374481     a.u. after    6 cycles

 The electronic state is 2-A.
 Alpha  occ. eigenvalues --  -14.24027 -14.22798 -14.20245 -14.20228 -14.20051
 Alpha  occ. eigenvalues --  -10.17975 -10.17700 -10.14544 -10.11256 -10.10060
 Alpha  occ. eigenvalues --  -10.07304 -10.07245 -10.06100  -0.92839  -0.87165
 Alpha  occ. eigenvalues --   -0.82944  -0.78572  -0.75933  -0.69466  -0.66881
 Alpha  occ. eigenvalues --   -0.58861  -0.56635  -0.56223  -0.50376  -0.49013
 Alpha  occ. eigenvalues --   -0.46145  -0.44169  -0.40717  -0.39222  -0.38380
 Alpha  occ. eigenvalues --   -0.35547  -0.34303  -0.33921  -0.32771  -0.31318
 Alpha  occ. eigenvalues --   -0.30298  -0.29315  -0.27709  -0.26991  -0.25685
 Alpha  occ. eigenvalues --   -0.25116  -0.23756  -0.23517  -0.22846  -0.17107
 Alpha  occ. eigenvalues --   -0.16184  -0.15369  -0.13185   0.04468
 Alpha virt. eigenvalues --    0.05971   0.06910   0.07524   0.07795   0.08532
 Alpha virt. eigenvalues --    0.08943   0.09735   0.10253   0.10470   0.11135
 Alpha virt. eigenvalues --    0.11581   0.12164   0.13225   0.14039   0.14112

  Beta  occ. eigenvalues --  -14.24028 -14.22738 -14.20238 -14.20226 -14.20034
  Beta  occ. eigenvalues --  -10.17970 -10.17699 -10.14539 -10.11249 -10.10041
  Beta  occ. eigenvalues --  -10.07276 -10.07215 -10.06085  -0.92825  -0.87146
  Beta  occ. eigenvalues --   -0.82906  -0.78554  -0.75887  -0.69437  -0.66851
  Beta  occ. eigenvalues --   -0.58823  -0.56597  -0.56171  -0.50314  -0.48949
  Beta  occ. eigenvalues --   -0.46104  -0.44129  -0.40679  -0.39177  -0.38327
  Beta  occ. eigenvalues --   -0.35522  -0.34267  -0.33895  -0.32744  -0.31286
  Beta  occ. eigenvalues --   -0.30258  -0.29272  -0.27678  -0.26966  -0.25651
  Beta  occ. eigenvalues --   -0.25071  -0.23720  -0.23478  -0.22822  -0.17095
  Beta  occ. eigenvalues --   -0.16156  -0.15321  -0.13175
  Beta virt. eigenvalues --    0.06765   0.06985   0.07654   0.07978   0.08261
  Beta virt. eigenvalues --    0.08976   0.09381   0.10197   0.10733   0.10886
  Beta virt. eigenvalues --    0.11757   0.11894   0.12611   0.13393   0.14214

 Mulliken charges and spin densities:
               1          2
     1  C    0.676590  -1.182213
     2  C   -0.488886   0.554075
     3  C    0.376010  -0.867301
     4  C   -0.096450  -0.191595
     5  C    1.018181  -1.321761
     6  N    0.252389  -0.030693
     7  C    0.104636  -0.553066
     8  N   -0.206778   0.047942
     9  C    0.172016  -0.087721
    10  N   -0.109608  -0.128258
    11  C   -0.164983   0.257887
    12  N   -0.183733  -0.001661
    13  N   -0.517755   0.256073
    14  H    0.098720   0.058113
    15  H   -0.063984   0.195172
    16  H   -0.005436   0.157328
    17  H    0.056491   0.165176
    18  H   -0.518009   0.675060
    19  H   -0.084369   0.236742
    20  H   -0.508445   0.680481
    21  H    0.039561   0.111074
    22  H   -0.312704   0.484630
    23  H    0.151815   0.046671
    24  H    0.067549   0.118214
    25  H   -0.349795   0.629475
    26  H   -0.403024   0.690156
 Sum of Mulliken charges =  -1.00000   1.00000

 Dipole moment (field-independent basis, Debye):
    X=              0.5971    Y=              4.3058    Z=             -1.1108  Tot=              4.4867
 Quadrupole moment (field-independent basis, Debye-Ang):
   XX=           -167.5505   YY=           -119.8788   ZZ=           -104.2849
   XY=             -6.7447   XZ=              5.0671   YZ=              5.7455

 Summary of Natural Population Analysis:

                                       Natural Population
                Natural  -----------------------------------------------
    Atom  No    Charge         Core      Valence    Rydberg      Total
 -----------------------------------------------------------------------
      C    1   -0.28767      0.99964     2.28337    0.00467     3.28767
      C    2   -0.00140      0.99961     1.98967    0.01212     3.00140
      C    3   -0.19188      0.99962     2.18336    0.00891     3.19188
      C    4   -0.19350      0.99963     2.18591    0.00796     3.19350
      C    5   -0.08021      0.99962     2.07006    0.01053     3.08021
      N    6   -0.23976      0.99962     2.72915    0.01099     3.73976
      C    7    0.32023      0.99957     1.66274    0.01745     2.67977
      N    8   -0.30171      0.99968     2.79316    0.00887     3.80171
      C    9    0.16345      0.99967     1.81825    0.01863     2.83655
      N   10   -0.30257      0.99968     2.79252    0.01037     3.80257
      C   11    0.30773      0.99962     1.67342    0.01922     2.69227
      N   12   -0.30334      0.99964     2.79405    0.00965     3.80334
      N   13   -0.38087      0.99969     2.87168    0.00949     3.88087
      H   14    0.11095      0.00000     0.38779    0.00126     0.38905
      H   15    0.09790      0.00000     0.40114    0.00096     0.40210
      H   16    0.09696      0.00000     0.40185    0.00119     0.40304
      H   17    0.09856      0.00000     0.39934    0.00210     0.40144
      H   18    0.10569      0.00000     0.39270    0.00161     0.39431
      H   19    0.09719      0.00000     0.40119    0.00162     0.40281
      H   20    0.10504      0.00000     0.39317    0.00180     0.39496
      H   21    0.09612      0.00000     0.40260    0.00128     0.40388
      H   22    0.09370      0.00000     0.40480    0.00150     0.40630
      H   23    0.11116      0.00000     0.38708    0.00176     0.38884
      H   24    0.08040      0.00000     0.41855    0.00105     0.41960
      H   25    0.19981      0.00000     0.29404    0.00615     0.30019
      H   26    0.19800      0.00000     0.29733    0.00467     0.30200
 =======================================================================
   * Total *    0.00000     12.99529    34.82891    0.17580    48.00000

 Normal termination of Gaussian 16 at Thu Dec 10 00:05:15 2020.
