 Gaussian 16, Revision A.03,

 -----------------------------------------------------------
 # opt freq B3LYP/6-31G(d) empiricaldispersion=gd3bj scf=xqc
 -----------------------------------------------------------

 ------------------------------
 CID_62500426_JID_7880_neutraal
 ------------------------------
 Symbolic Z-matrix:
 Charge =  0 Multiplicity = 1

 SCF Done:  E(RB3LYP) =  -705.618940034     A.U. after   15 cycles
 SCF Done:  E(RB3LYP) =  -705.624227436     A.U. after   13 cycles
 SCF Done:  E(RB3LYP) =  -705.625037128     A.U. after   12 cycles
 SCF Done:  E(RB3LYP) =  -705.625441093     A.U. after   13 cycles
 SCF Done:  E(RB3LYP) =  -705.625593245     A.U. after   11 cycles
 SCF Done:  E(RB3LYP) =  -705.625747816     A.U. after   12 cycles
 SCF Done:  E(RB3LYP) =  -705.625769830     A.U. after   11 cycles
 SCF Done:  E(RB3LYP) =  -705.625792847     A.U. after   11 cycles
 SCF Done:  E(RB3LYP) =  -705.626091811     A.U. after   13 cycles
 SCF Done:  E(RB3LYP) =  -705.626173018     A.U. after   16 cycles
 SCF Done:  E(RB3LYP) =  -705.627562147     A.U. after   11 cycles
 SCF Done:  E(RB3LYP) =  -705.627565679     A.U. after    9 cycles
 SCF Done:  E(RB3LYP) =  -705.627567437     A.U. after   10 cycles
 SCF Done:  E(RB3LYP) =  -705.627567236     A.U. after    9 cycles
 SCF Done:  E(RB3LYP) =  -705.627567396     A.U. after    8 cycles
 Optimization completed.
    -- Stationary point found.
 Normal termination of Gaussian 16 at Mon Dec 14 13:26:30 2020.

 --------------------------------------------------------------------
 #N Geom=AllCheck Guess=TCheck SCRF=Check GenChk RB3LYP/6-31G(d) Freq
 --------------------------------------------------------------------

 Structure from the checkpoint file:  "JID_7880.chk"
 ------------------------------
 CID_62500426_JID_7880_neutraal
 ------------------------------
 Charge =  0 Multiplicity = 1

 SCF Done:  E(RB3LYP) =  -705.627567396     A.U. after    1 cycles

  Exact polarizability: 189.345  21.218 157.192  14.131   3.074 133.647
 Approx polarizability: 266.671  47.252 281.003  28.797   6.557 226.589

                      1                      2                      3
                      A                      A                      A
 Frequencies --     25.4108                26.7915                39.0461
 Red. masses --      5.0901                 5.5506                 5.0267
 Frc consts  --      0.0019                 0.0023                 0.0045
 IR Inten    --      0.3647                 1.2071                 1.7980

                      4                      5                      6
                      A                      A                      A
 Frequencies --    118.3965               121.5238               164.0132
 Red. masses --      8.5953                 4.4186                 5.7012
 Frc consts  --      0.0710                 0.0384                 0.0904
 IR Inten    --      6.1493                 4.3560                 1.6020

                      7                      8                      9
                      A                      A                      A
 Frequencies --    180.0927               225.4126               248.1778
 Red. masses --      4.7122                 3.6400                 5.1427
 Frc consts  --      0.0900                 0.1090                 0.1866
 IR Inten    --      2.5900                 4.4131                 5.1192

                     10                     11                     12
                      A                      A                      A
 Frequencies --    255.6870               305.8287               311.6441
 Red. masses --      2.6665                 2.0443                 1.4323
 Frc consts  --      0.1027                 0.1127                 0.0820
 IR Inten    --      2.5195                 6.6306                31.4132

                     13                     14                     15
                      A                      A                      A
 Frequencies --    385.0402               403.8629               410.3844
 Red. masses --      1.2160                 3.7740                 3.2288
 Frc consts  --      0.1062                 0.3627                 0.3204
 IR Inten    --     73.0142                 4.9938                 1.2975

                     16                     17                     18
                      A                      A                      A
 Frequencies --    445.1156               456.9642               506.1488
 Red. masses --      3.3597                 4.4091                 5.1342
 Frc consts  --      0.3922                 0.5425                 0.7750
 IR Inten    --      5.8786                 8.4365                 2.3625

                     19                     20                     21
                      A                      A                      A
 Frequencies --    514.0079               540.7296               545.7988
 Red. masses --      3.6636                 3.0713                 4.7770
 Frc consts  --      0.5703                 0.5291                 0.8384
 IR Inten    --      9.1279                77.0593                 1.4478

                     22                     23                     24
                      A                      A                      A
 Frequencies --    583.1255               589.8313               604.5902
 Red. masses --      5.2877                 3.1653                 7.1879
 Frc consts  --      1.0593                 0.6488                 1.5480
 IR Inten    --      3.3292                66.7941                 3.8372

                     25                     26                     27
                      A                      A                      A
 Frequencies --    621.2457               667.1165               705.0844
 Red. masses --      2.0107                 4.7821                 2.4529
 Frc consts  --      0.4572                 1.2539                 0.7185
 IR Inten    --    182.0443                11.6570                 5.1149

                     28                     29                     30
                      A                      A                      A
 Frequencies --    744.7195               747.2937               764.1216
 Red. masses --      4.4561                 3.7006                 1.5421
 Frc consts  --      1.4561                 1.2176                 0.5305
 IR Inten    --      2.7627                 1.2352                43.8179

                     31                     32                     33
                      A                      A                      A
 Frequencies --    767.1265               787.7336               838.2888
 Red. masses --      2.6716                 1.5880                 4.4297
 Frc consts  --      0.9263                 0.5806                 1.8341
 IR Inten    --      6.8624                44.4313                 2.5719

                     34                     35                     36
                      A                      A                      A
 Frequencies --    864.6818               866.2580               880.5278
 Red. masses --      1.4178                 1.4071                 1.4579
 Frc consts  --      0.6245                 0.6221                 0.6660
 IR Inten    --      5.9563                 0.2066                18.3605

                     37                     38                     39
                      A                      A                      A
 Frequencies --    944.5750               959.1697               972.3351
 Red. masses --      1.3246                 1.2550                 3.0233
 Frc consts  --      0.6963                 0.6803                 1.6841
 IR Inten    --      1.4696                 0.4844                 3.6141

                     40                     41                     42
                      A                      A                      A
 Frequencies --    982.5567              1016.7395              1020.8771
 Red. masses --      1.2688                 5.5809                 2.1124
 Frc consts  --      0.7217                 3.3992                 1.2971
 IR Inten    --      0.5039                 3.9457                 1.4400

                     43                     44                     45
                      A                      A                      A
 Frequencies --   1078.3307              1091.3469              1108.5046
 Red. masses --      2.1758                 2.9310                 1.8508
 Frc consts  --      1.4906                 2.0568                 1.3399
 IR Inten    --      5.5712                10.5169                 1.3999

                     46                     47                     48
                      A                      A                      A
 Frequencies --   1140.7617              1155.7860              1193.7044
 Red. masses --      1.7349                 1.5499                 1.5875
 Frc consts  --      1.3302                 1.2198                 1.3328
 IR Inten    --      1.8156                 1.7557                11.7806

                     49                     50                     51
                      A                      A                      A
 Frequencies --   1202.8245              1205.0640              1223.3438
 Red. masses --      1.1225                 1.2141                 2.2636
 Frc consts  --      0.9569                 1.0388                 1.9960
 IR Inten    --      7.2691                 7.9374                 8.1942

                     52                     53                     54
                      A                      A                      A
 Frequencies --   1287.7186              1309.2797              1317.6607
 Red. masses --      1.3497                 1.6085                 1.8113
 Frc consts  --      1.3186                 1.6245                 1.8529
 IR Inten    --      1.4204                19.5576                83.9176

                     55                     56                     57
                      A                      A                      A
 Frequencies --   1351.8374              1357.1781              1370.3475
 Red. masses --      3.2362                 3.1415                 2.0622
 Frc consts  --      3.4845                 3.4092                 2.2816
 IR Inten    --     60.4350                34.0906                84.1183

                     58                     59                     60
                      A                      A                      A
 Frequencies --   1377.7594              1413.8641              1496.5369
 Red. masses --      2.6461                 1.5494                 1.7750
 Frc consts  --      2.9594                 1.8249                 2.3422
 IR Inten    --     35.2782                22.5914                 4.3667

                     61                     62                     63
                      A                      A                      A
 Frequencies --   1500.4782              1520.8912              1522.7760
 Red. masses --      1.6490                 2.5420                 1.6150
 Frc consts  --      2.1874                 3.4643                 2.2065
 IR Inten    --     47.4521                20.5077                36.0929

                     64                     65                     66
                      A                      A                      A
 Frequencies --   1547.1659              1576.4225              1635.2646
 Red. masses --      2.5572                 2.3890                 3.6050
 Frc consts  --      3.6065                 3.4980                 5.6797
 IR Inten    --     22.8543               148.0979                75.9161

                     67                     68                     69
                      A                      A                      A
 Frequencies --   1651.1266              1666.6429              1672.9821
 Red. masses --      5.5804                 5.2805                 3.6629
 Frc consts  --      8.9635                 8.6419                 6.0402
 IR Inten    --     16.4898               109.6166                53.7414

                     70                     71                     72
                      A                      A                      A
 Frequencies --   1695.4719              2326.1495              3011.0552
 Red. masses --      1.3263                12.6684                 1.0691
 Frc consts  --      2.2463                40.3875                 5.7112
 IR Inten    --    131.8958                74.8710                46.6160

                     73                     74                     75
                      A                      A                      A
 Frequencies --   3079.5258              3175.2721              3183.2050
 Red. masses --      1.0941                 1.0857                 1.0901
 Frc consts  --      6.1135                 6.4497                 6.5082
 IR Inten    --     16.5498                 2.5065                23.8472

                     76                     77                     78
                      A                      A                      A
 Frequencies --   3190.0636              3193.6016              3201.6543
 Red. masses --      1.0893                 1.0873                 1.0963
 Frc consts  --      6.5314                 6.5339                 6.6209
 IR Inten    --      9.3813                 5.4439                27.3551

                     79                     80                     81
                      A                      A                      A
 Frequencies --   3207.7307              3223.2559              3237.0149
 Red. masses --      1.0896                 1.0962                 1.0923
 Frc consts  --      6.6059                 6.7102                 6.7436
 IR Inten    --      7.4128                17.0475                 3.3207

                     82                     83                     84
                      A                      A                      A
 Frequencies --   3555.0409              3614.4818              3654.7469
 Red. masses --      1.0477                 1.0773                 1.0985
 Frc consts  --      7.8018                 8.2926                 8.6447
 IR Inten    --     14.0649                36.2571                 8.7159

 - Thermochemistry -
 -------------------
 Temperature   298.150 Kelvin.  Pressure   1.00000 Atm.
 Atom     1 has atomic number  6 and mass  12.00000

 Molecular mass:   223.11095 amu.
 Principal axes and moments of inertia in atomic units:
                           1         2         3
     Eigenvalues --  2251.752516690.792787058.46253
           X            0.99994  -0.01077  -0.00091
           Y            0.01078   0.99993   0.00544
           Z            0.00085  -0.00545   0.99998
 This molecule is an asymmetric top.
 Rotational symmetry number  1.
 Warning -- assumption of classical behavior for rotation
           may cause significant error
 Rotational temperatures (Kelvin)      0.03847     0.01295     0.01227
 Rotational constants (GHZ):           0.80148     0.26974     0.25568
 Zero-point vibrational energy     638099.7 (Joules/Mol)
                                  152.50950 (Kcal/Mol)
 Warning -- explicit consideration of  24 degrees of freedom as
           vibrations may cause significant error
 Vibrational temperatures:     36.56    38.55    56.18   170.35   174.85
          (Kelvin)            235.98   259.11   324.32   357.07   367.88
                              440.02   448.39   553.99   581.07   590.45
                              640.42   657.47   728.24   739.54   777.99
                              785.28   838.99   848.64   869.87   893.83
                              959.83  1014.46  1071.49  1075.19  1099.40
                             1103.72  1133.37  1206.11  1244.08  1246.35
                             1266.88  1359.03  1380.03  1398.97  1413.68
                             1462.86  1468.81  1551.48  1570.20  1594.89
                             1641.30  1662.92  1717.47  1730.60  1733.82
                             1760.12  1852.74  1883.76  1895.82  1944.99
                             1952.68  1971.62  1982.29  2034.24  2153.18
                             2158.85  2188.22  2190.94  2226.03  2268.12
                             2352.78  2375.60  2397.93  2407.05  2439.41
                             3346.81  4332.24  4430.75  4568.51  4579.92
                             4589.79  4594.88  4606.47  4615.21  4637.55
                             4657.34  5114.91  5200.43  5258.37

 Zero-point correction=                           0.243039 (Hartree/Particle)
 Thermal correction to Energy=                    0.257806
 Thermal correction to Enthalpy=                  0.258750
 Thermal correction to Gibbs Free Energy=         0.199699
 Sum of electronic and zero-point Energies=           -705.384528
 Sum of electronic and thermal Energies=              -705.369761
 Sum of electronic and thermal Enthalpies=            -705.368817
 Sum of electronic and thermal Free Energies=         -705.427868

                     E (Thermal)             CV                S
                      KCal/Mol        Cal/Mol-Kelvin    Cal/Mol-Kelvin
 Total                  161.776             57.865            124.284
 Electronic               0.000              0.000              0.000
 Translational            0.889              2.981             42.110
 Rotational               0.889              2.981             33.030
 Vibrational            159.998             51.903             49.143
 Vibration     1          0.593              1.985              6.159
 Vibration     2          0.593              1.984              6.054
 Vibration     3          0.594              1.981              5.307
 Vibration     4          0.609              1.934              3.126
 Vibration     5          0.609              1.931              3.076
 Vibration     6          0.623              1.887              2.503
 Vibration     7          0.629              1.867              2.327
 Vibration     8          0.650              1.802              1.915
 Vibration     9          0.662              1.766              1.743
 Vibration    10          0.666              1.753              1.691
 Vibration    11          0.696              1.663              1.385
 Vibration    12          0.700              1.651              1.354
 Vibration    13          0.754              1.502              1.019
 Vibration    14          0.769              1.462              0.949
 Vibration    15          0.775              1.448              0.925
 Vibration    16          0.804              1.372              0.811
 Vibration    17          0.815              1.345              0.775
 Vibration    18          0.861              1.236              0.643
 Vibration    19          0.869              1.219              0.624
 Vibration    20          0.896              1.160              0.564
 Vibration    21          0.901              1.149              0.553
 Vibration    22          0.940              1.068              0.480
 Vibration    23          0.947              1.053              0.467
 Vibration    24          0.963              1.022              0.442

 Optimization completed.
    -- Stationary point found.
 Normal termination of Gaussian 16 at Mon Dec 14 13:36:58 2020.

 ----------------------------------------------------------------------
 # B3LYP/6-311++G(d,p) empiricaldispersion=gd3bj scf=xqc pop=npa geom=c
 heck
 ----------------------------------------------------------------------

 --------------------------------------
 CID_62500426_JID_7880_Energie_neutraal
 --------------------------------------
 Structure from the checkpoint file:  "JID_7880.chk"
 Charge =  0 Multiplicity = 1

 SCF Done:  E(RB3LYP) =  -705.822048462     A.U. after   16 cycles
 Normal termination of Gaussian 16 at Mon Dec 14 13:41:57 2020.

 ----------------------------------------------------------------------
 # B3LYP/6-311++G(d,p) empiricaldispersion=gd3bj scf=xqc pop=npa geom=c
 heck
 ----------------------------------------------------------------------

 ------------------------------------
 CID_62500426_JID_7880_Energie_kation
 ------------------------------------
 Structure from the checkpoint file:  "JID_7880.chk"
 Charge =  1 Multiplicity = 2

 SCF Done:  E(UB3LYP) =  -705.547522374     A.U. after   24 cycles
 Normal termination of Gaussian 16 at Mon Dec 14 13:52:50 2020.
 Gaussian 16:  ES64L-G16RevA.03 25-Dec-2016

 ----------------------------------------------------------------------
 # B3LYP/6-311++G(d,p) empiricaldispersion=gd3bj scf=xqc pop=npa geom=c
 heck
 ----------------------------------------------------------------------

 -----------------------------------
 CID_62500426_JID_7880_Energie_anion
 -----------------------------------
 Structure from the checkpoint file:  "JID_7880.chk"
 Charge = -1 Multiplicity = 2

                         Standard orientation:
 ---------------------------------------------------------------------
 Center     Atomic      Atomic             Coordinates (Angstroms)
 Number     Number       Type             X           Y           Z
 ---------------------------------------------------------------------
      1          6           0        3.061830   -2.156245    0.674237
      2          6           0        1.811552   -2.395639    0.092341
      3          6           0        1.045650   -1.364382   -0.437251
      4          6           0        1.514149   -0.036517   -0.401354
      5          6           0        2.785378    0.202339    0.193106
      6          6           0        3.541480   -0.854802    0.721839
      7          6           0        3.274327    1.541057    0.232822
      8          7           0        3.610044    2.657260    0.226936
      9          7           0        0.783814    1.013048   -0.900120
     10          6           0       -0.409520    0.843947   -1.706582
     11          6           0       -1.634258    0.385247   -0.930341
     12          6           0       -1.780222    0.708345    0.416633
     13          6           0       -2.922746    0.316074    1.131070
     14          6           0       -3.926554   -0.404326    0.461837
     15          6           0       -3.775568   -0.725582   -0.883384
     16          6           0       -2.633260   -0.341099   -1.586235
     17          7           0       -3.030428    0.584866    2.496195
     18          1           0        3.647115   -2.972207    1.084418
     19          1           0        1.421169   -3.408790    0.052890
     20          1           0        0.071477   -1.577160   -0.859571
     21          1           0        4.506840   -0.632196    1.164931
     22          1           0        1.258519    1.902919   -0.955467
     23          1           0       -0.613646    1.817133   -2.167278
     24          1           0       -0.223077    0.141228   -2.532736
     25          1           0       -0.986567    1.253363    0.920443
     26          1           0       -4.813658   -0.720257    1.005413
     27          1           0       -4.556507   -1.288808   -1.387162
     28          1           0       -2.518260   -0.602461   -2.634993
     29          1           0       -3.977055    0.626225    2.852051
     30          1           0       -2.473781    1.364283    2.823559
 ---------------------------------------------------------------------

 SCF Done:  E(UB3LYP) =  -705.821829577     A.U. after   33 cycles
 SCF Done:  E(UB3LYP) =  -705.821829576     a.u. after    1 cycles

 The electronic state is 2-A.
 Alpha  occ. eigenvalues --  -14.22414 -14.21913 -14.17954 -10.11681 -10.11594
 Alpha  occ. eigenvalues --  -10.10721 -10.08470 -10.08104 -10.07979 -10.07100
 Alpha  occ. eigenvalues --  -10.07003 -10.06793 -10.06612 -10.05844 -10.05172
 Alpha  occ. eigenvalues --  -10.04901 -10.04838  -0.84318  -0.82241  -0.78115
 Alpha  occ. eigenvalues --   -0.74785  -0.73175  -0.67162  -0.64601  -0.63496
 Alpha  occ. eigenvalues --   -0.62714  -0.58041  -0.52670  -0.51384  -0.50043
 Alpha  occ. eigenvalues --   -0.47858  -0.44806  -0.42325  -0.41521  -0.40219
 Alpha  occ. eigenvalues --   -0.38335  -0.38224  -0.35166  -0.33931  -0.33125
 Alpha  occ. eigenvalues --   -0.33020  -0.32399  -0.31543  -0.30353  -0.28782
 Alpha  occ. eigenvalues --   -0.28114  -0.26510  -0.26148  -0.25141  -0.24656
 Alpha  occ. eigenvalues --   -0.23287  -0.22740  -0.21567  -0.20998  -0.19925
 Alpha  occ. eigenvalues --   -0.15249  -0.14092  -0.11353  -0.09831   0.04048
 Alpha virt. eigenvalues --    0.05531   0.06954   0.07490   0.08117   0.08436
 Alpha virt. eigenvalues --    0.08927   0.09522   0.09848   0.10298   0.11003
 Alpha virt. eigenvalues --    0.11185   0.11880   0.12256   0.13104   0.13867

  Beta  occ. eigenvalues --  -14.22412 -14.21862 -14.17738 -10.11674 -10.11565
  Beta  occ. eigenvalues --  -10.10658 -10.08469 -10.08088 -10.07973 -10.06990
  Beta  occ. eigenvalues --  -10.06957 -10.06779 -10.06610 -10.05656 -10.05250
  Beta  occ. eigenvalues --  -10.04842 -10.04598  -0.84250  -0.82173  -0.77800
  Beta  occ. eigenvalues --   -0.74724  -0.72929  -0.67088  -0.64204  -0.63419
  Beta  occ. eigenvalues --   -0.62556  -0.57982  -0.52144  -0.51346  -0.49969
  Beta  occ. eigenvalues --   -0.47773  -0.44691  -0.42276  -0.41464  -0.40063
  Beta  occ. eigenvalues --   -0.38252  -0.38119  -0.35084  -0.33833  -0.33077
  Beta  occ. eigenvalues --   -0.32929  -0.32317  -0.31468  -0.30281  -0.28497
  Beta  occ. eigenvalues --   -0.27775  -0.26335  -0.26000  -0.25030  -0.24463
  Beta  occ. eigenvalues --   -0.23104  -0.21943  -0.21444  -0.20876  -0.19445
  Beta  occ. eigenvalues --   -0.15183  -0.12833  -0.11260  -0.09356
  Beta virt. eigenvalues --    0.06462   0.07372   0.07522   0.08096   0.08289
  Beta virt. eigenvalues --    0.08508   0.09197   0.09827   0.09937   0.10384
  Beta virt. eigenvalues --    0.10975   0.11409   0.11951   0.12607   0.13113

 Mulliken charges and spin densities:
               1          2
     1  C   -0.417996  -0.021772
     2  C    0.006513   0.226180
     3  C   -0.066682  -0.017170
     4  C   -0.479095   0.133778
     5  C    1.287335   0.135622
     6  C   -0.259739   0.159131
     7  C   -1.127245  -0.171721
     8  N   -0.311439   0.112309
     9  N   -0.043481   0.016610
    10  C    0.370500  -0.746106
    11  C    0.552331   0.000962
    12  C    0.619317  -0.615286
    13  C   -0.261261  -0.052598
    14  C   -0.377034   0.328992
    15  C    0.128413  -0.453596
    16  C   -0.979668   0.377214
    17  N   -0.236861  -0.065017
    18  H    0.103573   0.008422
    19  H    0.136073  -0.010064
    20  H    0.140282  -0.000139
    21  H    0.135283  -0.003503
    22  H    0.293797  -0.004486
    23  H    0.144055   0.022276
    24  H    0.123900   0.067019
    25  H    0.131197   0.044796
    26  H   -0.390215   0.531189
    27  H    0.045294   0.108675
    28  H    0.016144   0.109699
    29  H   -0.315757   0.574404
    30  H    0.032465   0.204179
 Sum of Mulliken charges =  -1.00000   1.00000

 Dipole moment (field-independent basis, Debye):
    X=             -0.5053    Y=             -2.1097    Z=             -4.3718  Tot=              4.8804
 Quadrupole moment (field-independent basis, Debye-Ang):
   XX=           -180.2887   YY=           -129.8258   ZZ=           -126.0722
   XY=            -11.6481   XZ=             15.3000   YZ=             -3.5420

 Summary of Natural Population Analysis:

                                       Natural Population
                Natural  -----------------------------------------------
    Atom  No    Charge         Core      Valence    Rydberg      Total
 -----------------------------------------------------------------------
      C    1   -0.14897      0.99957     2.13978    0.00962     3.14897
      C    2   -0.03182      0.99958     2.02334    0.00889     3.03182
      C    3   -0.13813      0.99953     2.13106    0.00754     3.13813
      C    4    0.12653      0.99949     1.86310    0.01088     2.87347
      C    5   -0.10163      0.99940     2.09222    0.01001     3.10163
      C    6   -0.03643      0.99955     2.02902    0.00786     3.03643
      C    7    0.14695      0.99964     1.83459    0.01882     2.85305
      N    8   -0.17826      0.99979     2.66749    0.01097     3.67826
      N    9   -0.31181      0.99966     2.80296    0.00919     3.81181
      C   10   -0.09030      0.99959     2.08050    0.01021     3.09030
      C   11   -0.01316      0.99950     2.00486    0.00880     3.01316
      C   12   -0.12507      0.99946     2.11653    0.00908     3.12507
      C   13    0.09376      0.99950     1.89524    0.01150     2.90624
      C   14   -0.13086      0.99952     2.12107    0.01026     3.13086
      C   15   -0.08986      0.99957     2.08103    0.00926     3.08986
      C   16   -0.12823      0.99951     2.11996    0.00876     3.12823
      N   17   -0.39294      0.99971     2.88314    0.01008     3.89294
      H   18    0.09472      0.00000     0.40427    0.00101     0.40528
      H   19    0.09012      0.00000     0.40858    0.00131     0.40988
      H   20    0.10339      0.00000     0.39449    0.00211     0.39661
      H   21    0.09585      0.00000     0.40326    0.00089     0.40415
      H   22    0.19695      0.00000     0.30079    0.00226     0.30305
      H   23    0.10220      0.00000     0.39694    0.00087     0.39780
      H   24    0.09217      0.00000     0.40571    0.00212     0.40783
      H   25    0.10687      0.00000     0.39149    0.00163     0.39313
      H   26    0.10030      0.00000     0.39853    0.00117     0.39970
      H   27    0.09723      0.00000     0.40200    0.00077     0.40277
      H   28    0.09645      0.00000     0.40202    0.00153     0.40355
      H   29    0.18816      0.00000     0.30640    0.00545     0.31184
      H   30    0.18580      0.00000     0.31251    0.00169     0.31420
 =======================================================================
   * Total *    0.00000     16.99259    41.81287    0.19455    59.00000

 Normal termination of Gaussian 16 at Mon Dec 14 14:08:06 2020.
