 Gaussian 16, Revision A.03,

 -----------------------------------------------------------
 # opt freq B3LYP/6-31G(d) empiricaldispersion=gd3bj scf=xqc
 -----------------------------------------------------------

 ------------------------------
 CID_150705989_JID_621_neutraal
 ------------------------------
 Symbolic Z-matrix:
 Charge =  0 Multiplicity = 1

 SCF Done:  E(RB3LYP) =  -796.446685041     A.U. after   15 cycles
 SCF Done:  E(RB3LYP) =  -796.452991867     A.U. after   15 cycles
 SCF Done:  E(RB3LYP) =  -796.453467188     A.U. after   13 cycles
 SCF Done:  E(RB3LYP) =  -796.454437117     A.U. after   12 cycles
 SCF Done:  E(RB3LYP) =  -796.455302481     A.U. after   15 cycles
 SCF Done:  E(RB3LYP) =  -796.455488403     A.U. after   16 cycles
 SCF Done:  E(RB3LYP) =  -796.456773386     A.U. after   13 cycles
 SCF Done:  E(RB3LYP) =  -796.457979518     A.U. after   15 cycles
 SCF Done:  E(RB3LYP) =  -796.458807726     A.U. after   14 cycles
 SCF Done:  E(RB3LYP) =  -796.459138288     A.U. after   13 cycles
 SCF Done:  E(RB3LYP) =  -796.459519114     A.U. after   11 cycles
 SCF Done:  E(RB3LYP) =  -796.459523358     A.U. after   12 cycles
 SCF Done:  E(RB3LYP) =  -796.459524206     A.U. after    9 cycles
 SCF Done:  E(RB3LYP) =  -796.459524436     A.U. after    8 cycles
 SCF Done:  E(RB3LYP) =  -796.459524459     A.U. after    8 cycles
 SCF Done:  E(RB3LYP) =  -796.459524462     A.U. after    8 cycles
 Optimization completed.
    -- Stationary point found.
 Normal termination of Gaussian 16 at Tue Dec  8 12:24:44 2020.

 --------------------------------------------------------------------
 #N Geom=AllCheck Guess=TCheck SCRF=Check GenChk RB3LYP/6-31G(d) Freq
 --------------------------------------------------------------------

 Structure from the checkpoint file:  "JID_621.chk"
 ------------------------------
 CID_150705989_JID_621_neutraal
 ------------------------------
 Charge =  0 Multiplicity = 1

 SCF Done:  E(RB3LYP) =  -796.459524462     A.U. after    1 cycles

  Exact polarizability: 135.571   5.682 105.376  -2.847   1.261  63.697
 Approx polarizability: 201.771  23.886 199.058  -8.574   5.825 101.801

                      1                      2                      3
                      A                      A                      A
 Frequencies --     28.7268                78.4315               130.2328
 Red. masses --      8.0350                 4.7086                 6.0254
 Frc consts  --      0.0039                 0.0171                 0.0602
 IR Inten    --      0.4610                 1.4753                 0.1475

                      4                      5                      6
                      A                      A                      A
 Frequencies --    174.3860               235.6501               283.7760
 Red. masses --      3.3405                 7.3215                 2.1853
 Frc consts  --      0.0599                 0.2395                 0.1037
 IR Inten    --      0.5936                 6.6550                 0.5960

                      7                      8                      9
                      A                      A                      A
 Frequencies --    320.0905               371.5646               395.0693
 Red. masses --      6.1799                 2.1129                 4.3496
 Frc consts  --      0.3731                 0.1719                 0.4000
 IR Inten    --      0.7158                 0.6241                 0.8153

                     10                     11                     12
                      A                      A                      A
 Frequencies --    470.3014               493.4447               530.1585
 Red. masses --      2.2228                 6.0257                13.8345
 Frc consts  --      0.2897                 0.8644                 2.2910
 IR Inten    --      4.4539                 0.6968                 8.9477

                     13                     14                     15
                      A                      A                      A
 Frequencies --    574.9459               625.8483               661.0691
 Red. masses --      2.9872                 4.4615                 5.0584
 Frc consts  --      0.5818                 1.0296                 1.3024
 IR Inten    --      3.2005                 1.4648                 2.2173

                     16                     17                     18
                      A                      A                      A
 Frequencies --    739.7444               824.8479               853.5317
 Red. masses --      6.9874                 1.5718                 2.5016
 Frc consts  --      2.2528                 0.6301                 1.0738
 IR Inten    --     31.0588                 1.0520                 4.1946

                     19                     20                     21
                      A                      A                      A
 Frequencies --    880.5932               919.9837               942.8458
 Red. masses --      1.3136                 1.4031                 3.0225
 Frc consts  --      0.6001                 0.6997                 1.5830
 IR Inten    --      9.0283                 1.6726                 6.9510

                     22                     23                     24
                      A                      A                      A
 Frequencies --    982.7479              1006.9688              1080.9359
 Red. masses --      2.2662                 3.7130                 1.5971
 Frc consts  --      1.2896                 2.2182                 1.0995
 IR Inten    --      3.7767                44.9498                 4.4031

                     25                     26                     27
                      A                      A                      A
 Frequencies --   1087.7123              1133.8141              1158.4462
 Red. masses --      1.8153                 3.4586                 1.1651
 Frc consts  --      1.2654                 2.6196                 0.9212
 IR Inten    --      0.3954                 2.1158                 2.1774

                     28                     29                     30
                      A                      A                      A
 Frequencies --   1212.6241              1280.3895              1286.0634
 Red. masses --      1.3119                 1.2954                 1.2988
 Frc consts  --      1.1365                 1.2512                 1.2657
 IR Inten    --      0.7856                13.0254                 0.7997

                     31                     32                     33
                      A                      A                      A
 Frequencies --   1336.8864              1353.1474              1388.6251
 Red. masses --      1.3870                 1.7858                 1.5861
 Frc consts  --      1.4606                 1.9265                 1.8020
 IR Inten    --     59.3427                66.6876                 6.1372

                     34                     35                     36
                      A                      A                      A
 Frequencies --   1391.7901              1408.1759              1421.8843
 Red. masses --      1.3915                 1.5947                 1.5709
 Frc consts  --      1.5881                 1.8631                 1.8713
 IR Inten    --      0.7316                 4.6660                60.3311

                     37                     38                     39
                      A                      A                      A
 Frequencies --   1497.8632              1501.3310              1510.7532
 Red. masses --      1.0889                 1.0980                 1.0853
 Frc consts  --      1.4395                 1.4582                 1.4595
 IR Inten    --      2.0666                 5.3278                 6.7212

                     40                     41                     42
                      A                      A                      A
 Frequencies --   1523.4077              1672.1608              2259.0162
 Red. masses --      1.0967                 7.1882                13.8539
 Frc consts  --      1.4996                11.8421                41.6543
 IR Inten    --      1.9320                33.6801               558.1439

                     43                     44                     45
                      A                      A                      A
 Frequencies --   3026.5457              3037.1267              3040.3839
 Red. masses --      1.0642                 1.0617                 1.0624
 Frc consts  --      5.7432                 5.7701                 5.7860
 IR Inten    --     24.8724                19.3534                36.8780

                     46                     47                     48
                      A                      A                      A
 Frequencies --   3067.1382              3080.1586              3080.4638
 Red. masses --      1.0696                 1.0973                 1.0932
 Frc consts  --      5.9285                 6.1336                 6.1120
 IR Inten    --      8.8943                34.7098                39.7955

                     49                     50                     51
                      A                      A                      A
 Frequencies --   3090.0939              3126.4688              3210.3604
 Red. masses --      1.1020                 1.1065                 1.0890
 Frc consts  --      6.1996                 6.3723                 6.6125
 IR Inten    --     56.6907                15.0787                12.8509

 - Thermochemistry -
 -------------------
 Temperature   298.150 Kelvin.  Pressure   1.00000 Atm.
 Atom     1 has atomic number  6 and mass  12.00000

 Molecular mass:   155.05172 amu.
 Principal axes and moments of inertia in atomic units:
                           1         2         3
     Eigenvalues --   786.981922306.228762876.68290
           X            0.99997  -0.00339   0.00694
           Y            0.00352   0.99982  -0.01862
           Z           -0.00687   0.01865   0.99980
 This molecule is an asymmetric top.
 Rotational symmetry number  1.
 Warning -- assumption of classical behavior for rotation
           may cause significant error
 Rotational temperatures (Kelvin)      0.11006     0.03756     0.03011
 Rotational constants (GHZ):           2.29324     0.78255     0.62737
 Zero-point vibrational energy     399485.3 (Joules/Mol)
                                   95.47928 (Kcal/Mol)
 Warning -- explicit consideration of  13 degrees of freedom as
           vibrations may cause significant error
 Vibrational temperatures:     41.33   112.85   187.38   250.90   339.05
          (Kelvin)            408.29   460.54   534.60   568.42   676.66
                              709.96   762.78   827.22   900.46   951.13
                             1064.33  1186.77  1228.04  1266.98  1323.65
                             1356.54  1413.96  1448.80  1555.23  1564.98
                             1631.31  1666.75  1744.70  1842.19  1850.36
                             1923.48  1946.88  1997.92  2002.48  2026.05
                             2045.77  2155.09  2160.08  2173.64  2191.84
                             2405.87  3250.22  4354.52  4369.75  4374.43
                             4412.93  4431.66  4432.10  4445.96  4498.29
                             4618.99

 Zero-point correction=                           0.152156 (Hartree/Particle)
 Thermal correction to Energy=                    0.161717
 Thermal correction to Enthalpy=                  0.162661
 Thermal correction to Gibbs Free Energy=         0.116140
 Sum of electronic and zero-point Energies=           -796.307369
 Sum of electronic and thermal Energies=              -796.297807
 Sum of electronic and thermal Enthalpies=            -796.296863
 Sum of electronic and thermal Free Energies=         -796.343384

                     E (Thermal)             CV                S
                      KCal/Mol        Cal/Mol-Kelvin    Cal/Mol-Kelvin
 Total                  101.479             35.313             97.912
 Electronic               0.000              0.000              0.000
 Translational            0.889              2.981             41.025
 Rotational               0.889              2.981             30.036
 Vibrational             99.702             29.352             26.851
 Vibration     1          0.593              1.984              5.915
 Vibration     2          0.600              1.964              3.930
 Vibration     3          0.612              1.923              2.943
 Vibration     4          0.627              1.874              2.388
 Vibration     5          0.655              1.786              1.835
 Vibration     6          0.682              1.704              1.511
 Vibration     7          0.706              1.635              1.310
 Vibration     8          0.743              1.531              1.073
 Vibration     9          0.762              1.481              0.981
 Vibration    10          0.827              1.316              0.737
 Vibration    11          0.849              1.265              0.675
 Vibration    12          0.885              1.183              0.587
 Vibration    13          0.931              1.085              0.495

 Optimization completed.
    -- Stationary point found.
 Normal termination of Gaussian 16 at Tue Dec  8 12:28:14 2020.

 ----------------------------------------------------------------------
 # B3LYP/6-311++G(d,p) empiricaldispersion=gd3bj scf=xqc pop=npa geom=c
 heck
 ----------------------------------------------------------------------

 --------------------------------------
 CID_150705989_JID_621_Energie_neutraal
 --------------------------------------
 Structure from the checkpoint file:  "JID_621.chk"
 Charge =  0 Multiplicity = 1

 SCF Done:  E(RB3LYP) =  -796.593225280     A.U. after   16 cycles
 Normal termination of Gaussian 16 at Tue Dec  8 12:32:29 2020.

 ----------------------------------------------------------------------
 # B3LYP/6-311++G(d,p) empiricaldispersion=gd3bj scf=xqc pop=npa geom=c
 heck
 ----------------------------------------------------------------------

 ------------------------------------
 CID_150705989_JID_621_Energie_kation
 ------------------------------------
 Structure from the checkpoint file:  "JID_621.chk"
 Charge =  1 Multiplicity = 2

 SCF Done:  E(UB3LYP) =  -796.304875475     A.U. after   21 cycles
 Normal termination of Gaussian 16 at Tue Dec  8 12:40:05 2020.
 Gaussian 16:  ES64L-G16RevA.03 25-Dec-2016

 ----------------------------------------------------------------------
 # B3LYP/6-311++G(d,p) empiricaldispersion=gd3bj scf=xqc pop=npa geom=c
 heck
 ----------------------------------------------------------------------

 -----------------------------------
 CID_150705989_JID_621_Energie_anion
 -----------------------------------
 Structure from the checkpoint file:  "JID_621.chk"
 Charge = -1 Multiplicity = 2

                         Standard orientation:
 ---------------------------------------------------------------------
 Center     Atomic      Atomic             Coordinates (Angstroms)
 Number     Number       Type             X           Y           Z
 ---------------------------------------------------------------------
      1          6           0        2.474488    0.849137    0.461656
      2          6           0        2.714844   -0.639723    0.184083
      3          6           0        1.475383   -1.491715    0.449127
      4         16           0        0.033888   -1.001980   -0.591760
      5          6           0        0.044377    0.747230   -0.270202
      6          6           0       -1.062585    1.445056    0.053585
      7          7           0       -2.387948    1.058511    0.282172
      8          7           0       -2.777811   -0.118515    0.213603
      9          7           0       -3.350304   -1.104434    0.192449
     10          6           0        1.372544    1.446983   -0.431895
     11          1           0        3.405278    1.407216    0.305187
     12          1           0        2.193714    0.983374    1.515212
     13          1           0        3.031493   -0.775425   -0.857917
     14          1           0        3.531232   -1.007125    0.820001
     15          1           0        1.177385   -1.430709    1.501153
     16          1           0        1.653783   -2.543609    0.207284
     17          1           0       -0.981006    2.521445    0.165670
     18          1           0        1.252637    2.512680   -0.202746
     19          1           0        1.691407    1.373085   -1.481375
 ---------------------------------------------------------------------

 SCF Done:  E(UB3LYP) =  -796.586553190     A.U. after   32 cycles

 The electronic state is 2-A.
 Alpha  occ. eigenvalues --  -88.71716 -14.33486 -14.23932 -14.23525 -10.07828
 Alpha  occ. eigenvalues --  -10.07599 -10.06284 -10.05525 -10.05367 -10.05079
 Alpha  occ. eigenvalues --   -7.80305  -5.76675  -5.76335  -5.75710  -1.00363
 Alpha  occ. eigenvalues --   -0.84853  -0.72221  -0.66211  -0.63437  -0.59369
 Alpha  occ. eigenvalues --   -0.50911  -0.49834  -0.44562  -0.38944  -0.37934
 Alpha  occ. eigenvalues --   -0.37484  -0.34231  -0.33418  -0.32193  -0.31167
 Alpha  occ. eigenvalues --   -0.29607  -0.27184  -0.25934  -0.24604  -0.22422
 Alpha  occ. eigenvalues --   -0.21527  -0.20105  -0.18748  -0.17512  -0.12262
 Alpha  occ. eigenvalues --   -0.08165   0.04970
 Alpha virt. eigenvalues --    0.07620   0.08422   0.09060   0.09667   0.10013
 Alpha virt. eigenvalues --    0.11517   0.11826   0.12380   0.13167   0.13633
 Alpha virt. eigenvalues --    0.14980   0.15816   0.16720   0.17008   0.17588

  Beta  occ. eigenvalues --  -88.71720 -14.33209 -14.23645 -14.23589 -10.07645
  Beta  occ. eigenvalues --  -10.07532 -10.06166 -10.05527 -10.05333 -10.05045
  Beta  occ. eigenvalues --   -7.80308  -5.76669  -5.76344  -5.75720  -0.99878
  Beta  occ. eigenvalues --   -0.84665  -0.72067  -0.65978  -0.63351  -0.59068
  Beta  occ. eigenvalues --   -0.50835  -0.49668  -0.44461  -0.38610  -0.37328
  Beta  occ. eigenvalues --   -0.36854  -0.33861  -0.33342  -0.31875  -0.30805
  Beta  occ. eigenvalues --   -0.29454  -0.26998  -0.25791  -0.24525  -0.22224
  Beta  occ. eigenvalues --   -0.21387  -0.19571  -0.18462  -0.17450  -0.11989
  Beta  occ. eigenvalues --   -0.07585
  Beta virt. eigenvalues --    0.07919   0.08842   0.09499   0.09655   0.10145
  Beta virt. eigenvalues --    0.10774   0.12007   0.12087   0.12625   0.13364
  Beta virt. eigenvalues --    0.13747   0.15141   0.16205   0.16783   0.17281

 Mulliken charges and spin densities:
               1          2
     1  C    0.003946  -0.181192
     2  C    0.211633  -0.449899
     3  C    0.382882  -0.882345
     4  S   -0.167959   0.008129
     5  C    0.675794   0.337141
     6  C   -0.781701  -0.022631
     7  N    0.091544  -0.113747
     8  N    0.300895   0.090507
     9  N   -0.441014   0.243723
    10  C   -0.114115  -0.514104
    11  H   -0.477629   0.634241
    12  H    0.029249   0.087901
    13  H   -0.074274   0.203167
    14  H   -0.584050   0.741272
    15  H    0.110078   0.073696
    16  H   -0.250523   0.421727
    17  H    0.179304  -0.025684
    18  H    0.040176   0.078312
    19  H   -0.134236   0.269786
 Sum of Mulliken charges =  -1.00000   1.00000

 Dipole moment (field-independent basis, Debye):
    X=             -2.4802    Y=              1.6519    Z=              0.4402  Tot=              3.0123
 Quadrupole moment (field-independent basis, Debye-Ang):
   XX=           -127.9857   YY=            -94.5962   ZZ=            -84.4951
   XY=             -3.0833   XZ=             -0.1823   YZ=              0.8751

 Summary of Natural Population Analysis:

                                       Natural Population
                Natural  -----------------------------------------------
    Atom  No    Charge         Core      Valence    Rydberg      Total
 -----------------------------------------------------------------------
      C    1   -0.18676      0.99962     2.17682    0.01032     3.18676
      C    2   -0.19691      0.99962     2.18712    0.01017     3.19691
      C    3   -0.23984      0.99959     2.22855    0.01170     3.23984
      S    4    0.10277      4.99954     2.87696    0.02073     7.89723
      C    5   -0.10036      0.99942     2.08826    0.01269     3.10036
      C    6    0.00937      0.99937     1.97614    0.01513     2.99063
      N    7   -0.20755      0.99967     2.69471    0.01318     3.70755
      N    8    0.14190      0.99970     2.34278    0.01562     3.35810
      N    9   -0.00029      0.99982     2.48773    0.01274     3.50029
      C   10   -0.20090      0.99958     2.19004    0.01128     3.20090
      H   11    0.09979      0.00000     0.39774    0.00246     0.40021
      H   12    0.09192      0.00000     0.40673    0.00135     0.40808
      H   13    0.09772      0.00000     0.39999    0.00229     0.40228
      H   14    0.09959      0.00000     0.39867    0.00174     0.40041
      H   15    0.09579      0.00000     0.40282    0.00139     0.40421
      H   16    0.10535      0.00000     0.39302    0.00163     0.39465
      H   17    0.09010      0.00000     0.40854    0.00135     0.40990
      H   18    0.09850      0.00000     0.40034    0.00116     0.40150
      H   19    0.09980      0.00000     0.39862    0.00158     0.40020
 =======================================================================
   * Total *   -0.00000     13.99592    26.85560    0.14848    41.00000

 Normal termination of Gaussian 16 at Tue Dec  8 12:49:34 2020.
