 Gaussian 16, Revision A.03,

 -----------------------------------------------------------
 # opt freq B3LYP/6-31G(d) empiricaldispersion=gd3bj scf=xqc
 -----------------------------------------------------------

 ------------------------------
 CID_57040985_JID_1520_neutraal
 ------------------------------
 Symbolic Z-matrix:
 Charge =  0 Multiplicity = 1

 SCF Done:  E(RB3LYP) =  -500.425821066     A.U. after   12 cycles
 SCF Done:  E(RB3LYP) =  -500.429993898     A.U. after   11 cycles
 SCF Done:  E(RB3LYP) =  -500.430601008     A.U. after   10 cycles
 SCF Done:  E(RB3LYP) =  -500.430692530     A.U. after   10 cycles
 SCF Done:  E(RB3LYP) =  -500.430752092     A.U. after    9 cycles
 SCF Done:  E(RB3LYP) =  -500.430765736     A.U. after    9 cycles
 SCF Done:  E(RB3LYP) =  -500.430768476     A.U. after    7 cycles
 SCF Done:  E(RB3LYP) =  -500.430769295     A.U. after    7 cycles
 SCF Done:  E(RB3LYP) =  -500.430769656     A.U. after    7 cycles
 SCF Done:  E(RB3LYP) =  -500.430769864     A.U. after    7 cycles
 SCF Done:  E(RB3LYP) =  -500.430769922     A.U. after    6 cycles
 Optimization completed.
    -- Stationary point found.
 Normal termination of Gaussian 16 at Tue Dec  8 19:45:24 2020.

 --------------------------------------------------------------------
 #N Geom=AllCheck Guess=TCheck SCRF=Check GenChk RB3LYP/6-31G(d) Freq
 --------------------------------------------------------------------

 Structure from the checkpoint file:  "JID_1520.chk"
 ------------------------------
 CID_57040985_JID_1520_neutraal
 ------------------------------
 Charge =  0 Multiplicity = 1

 SCF Done:  E(RB3LYP) =  -500.430769922     A.U. after    1 cycles

  Exact polarizability: 117.171   3.106 100.053   3.213  -1.491  85.738
 Approx polarizability: 142.961   1.584 137.135   5.144  -1.980 131.139

                      1                      2                      3
                      A                      A                      A
 Frequencies --     45.4655                66.6937               104.6093
 Red. masses --      3.5344                 1.8110                 2.7799
 Frc consts  --      0.0043                 0.0047                 0.0179
 IR Inten    --      0.1279                 0.5035                 0.3647

                      4                      5                      6
                      A                      A                      A
 Frequencies --    110.7832               172.2747               209.7351
 Red. masses --      3.2489                 2.7720                 2.4682
 Frc consts  --      0.0235                 0.0485                 0.0640
 IR Inten    --      0.8327                 1.7421                 0.9147

                      7                      8                      9
                      A                      A                      A
 Frequencies --    262.7377               277.7779               298.0737
 Red. masses --      1.1310                 1.2373                 2.9119
 Frc consts  --      0.0460                 0.0563                 0.1524
 IR Inten    --      0.6143                 1.4879                 4.0503

                     10                     11                     12
                      A                      A                      A
 Frequencies --    345.3562               364.4325               396.7297
 Red. masses --      2.3251                 2.3835                 2.8884
 Frc consts  --      0.1634                 0.1865                 0.2679
 IR Inten    --      3.2918                 2.0855                 1.5559

                     13                     14                     15
                      A                      A                      A
 Frequencies --    449.3253               463.1374               490.2720
 Red. masses --      2.3422                 2.1235                 2.6353
 Frc consts  --      0.2786                 0.2684                 0.3732
 IR Inten    --      0.3545                 1.4832                 2.4437

                     16                     17                     18
                      A                      A                      A
 Frequencies --    526.0121               535.2244               634.3655
 Red. masses --      2.8546                 2.7931                 1.7292
 Frc consts  --      0.4654                 0.4714                 0.4100
 IR Inten    --      3.2779                 0.1638                17.5359

                     19                     20                     21
                      A                      A                      A
 Frequencies --    760.2647               787.4909               828.5291
 Red. masses --      1.7282                 2.1514                 1.1889
 Frc consts  --      0.5885                 0.7861                 0.4808
 IR Inten    --     61.0543                20.2450                 0.7942

                     22                     23                     24
                      A                      A                      A
 Frequencies --    856.0000               859.6342               901.8593
 Red. masses --      1.9098                 2.6214                 2.4995
 Frc consts  --      0.8245                 1.1413                 1.1978
 IR Inten    --      4.0123                 7.7892                 8.8973

                     25                     26                     27
                      A                      A                      A
 Frequencies --    904.8682               953.4907               979.8165
 Red. masses --      1.4918                 2.0814                 2.0812
 Frc consts  --      0.7196                 1.1149                 1.1772
 IR Inten    --      8.0751                24.7309                40.4907

                     28                     29                     30
                      A                      A                      A
 Frequencies --   1029.5768              1058.8870              1070.6664
 Red. masses --      2.3240                 2.3059                 2.0583
 Frc consts  --      1.4515                 1.5233                 1.3902
 IR Inten    --      5.0131                19.5665                 4.3968

                     31                     32                     33
                      A                      A                      A
 Frequencies --   1085.0223              1102.4082              1117.8607
 Red. masses --      1.9850                 2.1513                 1.8079
 Frc consts  --      1.3768                 1.5404                 1.3310
 IR Inten    --      3.8206                23.4187                31.2871

                     34                     35                     36
                      A                      A                      A
 Frequencies --   1142.1790              1148.4656              1173.6313
 Red. masses --      2.4350                 3.8476                 2.9649
 Frc consts  --      1.8717                 2.9900                 2.4062
 IR Inten    --     10.5121                74.0712                67.7592

                     37                     38                     39
                      A                      A                      A
 Frequencies --   1184.2099              1208.9012              1236.2227
 Red. masses --      2.3177                 2.3034                 1.9901
 Frc consts  --      1.9149                 1.9834                 1.7919
 IR Inten    --     19.9675                23.0944                14.4235

                     40                     41                     42
                      A                      A                      A
 Frequencies --   1257.9927              1297.5079              1309.6651
 Red. masses --      1.2411                 1.2809                 1.2120
 Frc consts  --      1.1572                 1.2706                 1.2249
 IR Inten    --      2.2689                25.5891                 2.5245

                     43                     44                     45
                      A                      A                      A
 Frequencies --   1330.6516              1368.7963              1374.0368
 Red. masses --      1.2224                 1.2152                 1.2417
 Frc consts  --      1.2752                 1.3415                 1.3812
 IR Inten    --      6.4049                46.5785                 0.6500

                     46                     47                     48
                      A                      A                      A
 Frequencies --   1383.2170              1388.7647              1402.9496
 Red. masses --      1.3156                 1.5734                 1.2627
 Frc consts  --      1.4831                 1.7879                 1.4644
 IR Inten    --      6.4130                16.2894                17.1172

                     49                     50                     51
                      A                      A                      A
 Frequencies --   1416.9114              1423.4040              1432.3875
 Red. masses --      1.3262                 1.2716                 1.2699
 Frc consts  --      1.5687                 1.5179                 1.5351
 IR Inten    --      6.6729                 0.9184                20.1077

                     52                     53                     54
                      A                      A                      A
 Frequencies --   1441.0473              1444.8219              1496.2231
 Red. masses --      1.3274                 1.3468                 1.1666
 Frc consts  --      1.6240                 1.6565                 1.5387
 IR Inten    --      1.1989                12.4319                31.5191

                     55                     56                     57
                      A                      A                      A
 Frequencies --   1503.4319              1510.5452              1517.2501
 Red. masses --      1.1168                 1.0895                 1.0824
 Frc consts  --      1.4872                 1.4647                 1.4681
 IR Inten    --     14.8585                12.8937                 0.2410

                     58                     59                     60
                      A                      A                      A
 Frequencies --   1522.9848              1523.9602              1529.0107
 Red. masses --      1.0554                 1.0622                 1.1001
 Frc consts  --      1.4423                 1.4535                 1.5153
 IR Inten    --      1.4988                12.1663                 3.5096

                     61                     62                     63
                      A                      A                      A
 Frequencies --   1530.4594              1545.0225              1554.9830
 Red. masses --      1.0564                 1.0711                 1.0876
 Frc consts  --      1.4580                 1.5065                 1.5494
 IR Inten    --      1.0730                 6.4345                 7.9707

                     64                     65                     66
                      A                      A                      A
 Frequencies --   2938.0059              2943.9520              2971.6530
 Red. masses --      1.0774                 1.0762                 1.0713
 Frc consts  --      5.4793                 5.4954                 5.5737
 IR Inten    --     38.2158                66.6917                39.4985

                     67                     68                     69
                      A                      A                      A
 Frequencies --   2988.2436              3045.0291              3047.3584
 Red. masses --      1.0720                 1.0689                 1.0441
 Frc consts  --      5.6401                 5.8392                 5.7127
 IR Inten    --     85.1804                 7.7636                19.3466

                     70                     71                     72
                      A                      A                      A
 Frequencies --   3050.5105              3053.5791              3054.5423
 Red. masses --      1.0643                 1.0507                 1.0709
 Frc consts  --      5.8350                 5.7722                 5.8871
 IR Inten    --     66.7802                15.1476                47.6330

                     73                     74                     75
                      A                      A                      A
 Frequencies --   3097.6374              3102.3698              3112.2631
 Red. masses --      1.0927                 1.0935                 1.1000
 Frc consts  --      6.1776                 6.2009                 6.2776
 IR Inten    --     60.3706                55.4082                41.8611

                     76                     77                     78
                      A                      A                      A
 Frequencies --   3120.4156              3129.9430              3133.0487
 Red. masses --      1.1013                 1.0992                 1.1031
 Frc consts  --      6.3178                 6.3443                 6.3799
 IR Inten    --     28.0769                25.5172                36.8828

                     79                     80                     81
                      A                      A                      A
 Frequencies --   3135.8694              3140.6241              3485.2706
 Red. masses --      1.0952                 1.0953                 1.0735
 Frc consts  --      6.3455                 6.3651                 7.6827
 IR Inten    --     29.6851                12.3186                 0.1238

 - Thermochemistry -
 -------------------
 Temperature   298.150 Kelvin.  Pressure   1.00000 Atm.
 Atom     1 has atomic number  6 and mass  12.00000

 Molecular mass:   158.14191 amu.
 Principal axes and moments of inertia in atomic units:
                           1         2         3
     Eigenvalues --   885.022012944.315133428.34650
           X            0.99990   0.01357   0.00408
           Y           -0.01351   0.99981  -0.01369
           Z           -0.00427   0.01363   0.99990
 This molecule is an asymmetric top.
 Rotational symmetry number  1.
 Warning -- assumption of classical behavior for rotation
           may cause significant error
 Rotational temperatures (Kelvin)      0.09787     0.02942     0.02526
 Rotational constants (GHZ):           2.03920     0.61296     0.52642
 Zero-point vibrational energy     701007.7 (Joules/Mol)
                                  167.54485 (Kcal/Mol)
 Warning -- explicit consideration of  17 degrees of freedom as
           vibrations may cause significant error
 Vibrational temperatures:     65.41    95.96   150.51   159.39   247.86
          (Kelvin)            301.76   378.02   399.66   428.86   496.89
                              524.34   570.81   646.48   666.35   705.39
                              756.81   770.07   912.71  1093.85  1133.02
                             1192.07  1231.59  1236.82  1297.57  1301.90
                             1371.86  1409.74  1481.33  1523.50  1540.45
                             1561.11  1586.12  1608.35  1643.34  1652.39
                             1688.59  1703.81  1739.34  1778.65  1809.97
                             1866.82  1884.32  1914.51  1969.39  1976.93
                             1990.14  1998.12  2018.53  2038.62  2047.96
                             2060.89  2073.35  2078.78  2152.73  2163.10
                             2173.34  2182.98  2191.24  2192.64  2199.91
                             2201.99  2222.94  2237.27  4227.14  4235.69
                             4275.55  4299.42  4381.12  4384.47  4389.00
                             4393.42  4394.81  4456.81  4463.62  4477.85
                             4489.58  4503.29  4507.76  4511.82  4518.66
                             5014.53

 Zero-point correction=                           0.267000 (Hartree/Particle)
 Thermal correction to Energy=                    0.278725
 Thermal correction to Enthalpy=                  0.279669
 Thermal correction to Gibbs Free Energy=         0.229203
 Sum of electronic and zero-point Energies=           -500.163770
 Sum of electronic and thermal Energies=              -500.152045
 Sum of electronic and thermal Enthalpies=            -500.151101
 Sum of electronic and thermal Free Energies=         -500.201566

                     E (Thermal)             CV                S
                      KCal/Mol        Cal/Mol-Kelvin    Cal/Mol-Kelvin
 Total                  174.902             44.904            106.213
 Electronic               0.000              0.000              0.000
 Translational            0.889              2.981             41.084
 Rotational               0.889              2.981             30.569
 Vibrational            173.125             38.942             34.560
 Vibration     1          0.595              1.979              5.005
 Vibration     2          0.598              1.970              4.249
 Vibration     3          0.605              1.946              3.367
 Vibration     4          0.607              1.941              3.255
 Vibration     5          0.626              1.877              2.411
 Vibration     6          0.642              1.826              2.046
 Vibration     7          0.670              1.741              1.644
 Vibration     8          0.679              1.715              1.547
 Vibration     9          0.691              1.677              1.428
 Vibration    10          0.724              1.585              1.187
 Vibration    11          0.738              1.545              1.103
 Vibration    12          0.763              1.477              0.975
 Vibration    13          0.808              1.362              0.798
 Vibration    14          0.821              1.332              0.757
 Vibration    15          0.846              1.272              0.683
 Vibration    16          0.881              1.192              0.596
 Vibration    17          0.890              1.172              0.576

 Optimization completed.
    -- Stationary point found.
 Normal termination of Gaussian 16 at Tue Dec  8 19:52:47 2020.

 ----------------------------------------------------------------------
 # B3LYP/6-311++G(d,p) empiricaldispersion=gd3bj scf=xqc pop=npa geom=c
 heck
 ----------------------------------------------------------------------

 --------------------------------------
 CID_57040985_JID_1520_Energie_neutraal
 --------------------------------------
 Structure from the checkpoint file:  "JID_1520.chk"
 Charge =  0 Multiplicity = 1

 SCF Done:  E(RB3LYP) =  -500.576836059     A.U. after   13 cycles
 Normal termination of Gaussian 16 at Tue Dec  8 19:55:58 2020.

 ----------------------------------------------------------------------
 # B3LYP/6-311++G(d,p) empiricaldispersion=gd3bj scf=xqc pop=npa geom=c
 heck
 ----------------------------------------------------------------------

 ------------------------------------
 CID_57040985_JID_1520_Energie_kation
 ------------------------------------
 Structure from the checkpoint file:  "JID_1520.chk"
 Charge =  1 Multiplicity = 2

 SCF Done:  E(UB3LYP) =  -500.296855045     A.U. after   21 cycles
 Normal termination of Gaussian 16 at Tue Dec  8 20:03:06 2020.
 Gaussian 16:  ES64L-G16RevA.03 25-Dec-2016

 ----------------------------------------------------------------------
 # B3LYP/6-311++G(d,p) empiricaldispersion=gd3bj scf=xqc pop=npa geom=c
 heck
 ----------------------------------------------------------------------

 -----------------------------------
 CID_57040985_JID_1520_Energie_anion
 -----------------------------------
 Structure from the checkpoint file:  "JID_1520.chk"
 Charge = -1 Multiplicity = 2

                         Standard orientation:
 ---------------------------------------------------------------------
 Center     Atomic      Atomic             Coordinates (Angstroms)
 Number     Number       Type             X           Y           Z
 ---------------------------------------------------------------------
      1          6           0       -4.001610   -0.931481    0.019908
      2          6           0       -2.875566   -0.080650   -0.561752
      3          7           0       -1.728526   -0.073450    0.336106
      4          6           0       -0.530722    0.614001   -0.142641
      5          6           0       -0.699960    2.136913   -0.229157
      6          7           0        0.551500    0.242162    0.779967
      7          6           0        1.809366    0.989007    0.676816
      8          6           0        2.660985    0.560967   -0.520478
      9          8           0        2.937808   -0.833221   -0.468706
     10          6           0        1.733862   -1.595894   -0.429019
     11          6           0        0.856963   -1.197862    0.759968
     12          1           0       -3.651943   -1.951344    0.208490
     13          1           0       -4.855875   -0.970694   -0.664634
     14          1           0       -4.356222   -0.515117    0.971055
     15          1           0       -2.544583   -0.508920   -1.517043
     16          1           0       -3.266340    0.927678   -0.794698
     17          1           0       -1.978284    0.304033    1.249447
     18          1           0       -0.365809    0.235682   -1.168429
     19          1           0       -0.749729    2.570183    0.776822
     20          1           0        0.111155    2.623853   -0.779615
     21          1           0       -1.630867    2.371979   -0.753417
     22          1           0        2.381952    0.782553    1.590681
     23          1           0        1.616957    2.063849    0.653272
     24          1           0        2.148650    0.809979   -1.466852
     25          1           0        3.631390    1.068224   -0.515570
     26          1           0        2.038384   -2.644848   -0.356885
     27          1           0        1.182411   -1.467110   -1.376015
     28          1           0        1.392279   -1.438176    1.687673
     29          1           0       -0.086717   -1.747024    0.750986
 ---------------------------------------------------------------------

 SCF Done:  E(UB3LYP) =  -500.560107606     A.U. after   28 cycles

 The electronic state is 2-A.
 Alpha  occ. eigenvalues --  -19.02516 -14.20294 -14.18908 -10.12172 -10.11449
 Alpha  occ. eigenvalues --  -10.11319 -10.09131 -10.08628 -10.08592 -10.05513
 Alpha  occ. eigenvalues --  -10.05266  -0.94043  -0.83895  -0.78137  -0.67068
 Alpha  occ. eigenvalues --   -0.65785  -0.61217  -0.58121  -0.55032  -0.51904
 Alpha  occ. eigenvalues --   -0.50194  -0.45501  -0.41054  -0.37782  -0.37631
 Alpha  occ. eigenvalues --   -0.37264  -0.36694  -0.35433  -0.34728  -0.31561
 Alpha  occ. eigenvalues --   -0.31176  -0.29707  -0.29068  -0.27516  -0.26822
 Alpha  occ. eigenvalues --   -0.25993  -0.25562  -0.24985  -0.24705  -0.23793
 Alpha  occ. eigenvalues --   -0.21838  -0.17924  -0.12325  -0.10822   0.04709
 Alpha virt. eigenvalues --    0.06793   0.07465   0.07758   0.08677   0.09441
 Alpha virt. eigenvalues --    0.09789   0.10309   0.10628   0.11215   0.12111
 Alpha virt. eigenvalues --    0.12273   0.13326   0.13888   0.14288   0.14696

  Beta  occ. eigenvalues --  -19.02511 -14.20294 -14.18899 -10.12159 -10.11437
  Beta  occ. eigenvalues --  -10.11297 -10.09116 -10.08623 -10.08563 -10.05477
  Beta  occ. eigenvalues --  -10.05226  -0.94031  -0.83879  -0.78116  -0.67043
  Beta  occ. eigenvalues --   -0.65743  -0.61160  -0.58087  -0.54995  -0.51843
  Beta  occ. eigenvalues --   -0.50107  -0.45459  -0.41020  -0.37755  -0.37586
  Beta  occ. eigenvalues --   -0.37235  -0.36666  -0.35400  -0.34697  -0.31520
  Beta  occ. eigenvalues --   -0.31130  -0.29673  -0.29036  -0.27477  -0.26768
  Beta  occ. eigenvalues --   -0.25958  -0.25518  -0.24957  -0.24656  -0.23758
  Beta  occ. eigenvalues --   -0.21821  -0.17895  -0.12306  -0.10811
  Beta virt. eigenvalues --    0.06969   0.07745   0.08072   0.08185   0.09326
  Beta virt. eigenvalues --    0.09949   0.10396   0.10821   0.10926   0.11754
  Beta virt. eigenvalues --    0.12461   0.12689   0.13898   0.14091   0.14578

 Mulliken charges and spin densities:
               1          2
     1  C    1.334372  -1.867752
     2  C    0.224264  -0.389757
     3  N   -0.073541   0.041606
     4  C   -2.211000   1.636545
     5  C    2.283773  -2.802469
     6  N    0.083711   0.092803
     7  C   -0.390075   0.344417
     8  C    0.596030  -1.055399
     9  O   -0.174893   0.043611
    10  C   -0.035246  -0.260572
    11  C   -0.281404   0.080513
    12  H   -0.168078   0.314775
    13  H   -0.297458   0.431140
    14  H   -0.281536   0.406184
    15  H   -0.450547   0.581757
    16  H   -0.212202   0.334105
    17  H    0.227481  -0.001182
    18  H    0.368471  -0.233156
    19  H   -0.330403   0.492392
    20  H   -0.353628   0.515483
    21  H   -0.368644   0.515345
    22  H    0.075189   0.080568
    23  H   -0.208466   0.362104
    24  H   -0.136989   0.299468
    25  H   -0.309086   0.488933
    26  H   -0.032987   0.209188
    27  H   -0.138927   0.286032
    28  H    0.023573   0.135780
    29  H    0.238248  -0.082460
 Sum of Mulliken charges =  -1.00000   1.00000

 Dipole moment (field-independent basis, Debye):
    X=              3.6367    Y=             -3.1561    Z=              2.4866  Tot=              5.4194
 Quadrupole moment (field-independent basis, Debye-Ang):
   XX=           -147.0403   YY=           -116.8594   ZZ=           -101.2730
   XY=             -2.1772   XZ=             -1.4267   YZ=              0.7934

 Summary of Natural Population Analysis:

                                       Natural Population
                Natural  -----------------------------------------------
    Atom  No    Charge         Core      Valence    Rydberg      Total
 -----------------------------------------------------------------------
      C    1   -0.28339      0.99967     2.27909    0.00463     3.28339
      C    2   -0.08613      0.99964     2.07608    0.01041     3.08613
      N    3   -0.34657      0.99972     2.83458    0.01226     3.84657
      C    4    0.09038      0.99959     1.89420    0.01583     2.90962
      C    5   -0.30099      0.99964     2.29476    0.00658     3.30099
      N    6   -0.28196      0.99972     2.76915    0.01309     3.78196
      C    7   -0.10207      0.99961     2.08991    0.01255     3.10207
      C    8   -0.02098      0.99958     2.00829    0.01311     3.02098
      O    9   -0.30347      0.99989     3.29386    0.00972     4.30347
      C   10   -0.01938      0.99958     2.00914    0.01066     3.01938
      C   11   -0.10386      0.99961     2.09438    0.00987     3.10386
      H   12    0.09786      0.00000     0.40069    0.00145     0.40214
      H   13    0.09992      0.00000     0.39858    0.00149     0.40008
      H   14    0.09407      0.00000     0.40449    0.00144     0.40593
      H   15    0.09023      0.00000     0.40794    0.00184     0.40977
      H   16    0.07967      0.00000     0.41812    0.00221     0.42033
      H   17    0.17259      0.00000     0.32406    0.00335     0.32741
      H   18    0.07644      0.00000     0.42036    0.00320     0.42356
      H   19    0.09998      0.00000     0.39842    0.00160     0.40002
      H   20    0.10212      0.00000     0.39611    0.00177     0.39788
      H   21    0.10578      0.00000     0.39280    0.00142     0.39422
      H   22    0.09326      0.00000     0.40545    0.00130     0.40674
      H   23    0.10458      0.00000     0.39416    0.00126     0.39542
      H   24    0.07840      0.00000     0.41997    0.00163     0.42160
      H   25    0.09126      0.00000     0.40713    0.00161     0.40874
      H   26    0.08932      0.00000     0.40934    0.00134     0.41068
      H   27    0.07854      0.00000     0.41992    0.00154     0.42146
      H   28    0.09089      0.00000     0.40789    0.00122     0.40911
      H   29    0.11351      0.00000     0.38510    0.00139     0.38649
 =======================================================================
   * Total *   -0.00000     10.99624    32.85398    0.14978    44.00000

 Normal termination of Gaussian 16 at Tue Dec  8 20:12:27 2020.
