 Gaussian 16, Revision A.03,

 -----------------------------------------------------------
 # opt freq B3LYP/6-31G(d) empiricaldispersion=gd3bj scf=xqc
 -----------------------------------------------------------

 -----------------------------
 CID_123308897_JID_40_neutraal
 -----------------------------
 Symbolic Z-matrix:
 Charge =  0 Multiplicity = 1

 SCF Done:  E(RB3LYP) =  -426.588520499     A.U. after   14 cycles
 SCF Done:  E(RB3LYP) =  -426.589946082     A.U. after   11 cycles
 SCF Done:  E(RB3LYP) =  -426.590121266     A.U. after   11 cycles
 SCF Done:  E(RB3LYP) =  -426.590151446     A.U. after   10 cycles
 SCF Done:  E(RB3LYP) =  -426.590155492     A.U. after    9 cycles
 SCF Done:  E(RB3LYP) =  -426.590156815     A.U. after    8 cycles
 SCF Done:  E(RB3LYP) =  -426.590157032     A.U. after    7 cycles
 Optimization completed.
    -- Stationary point found.

 1\1\GINC-NODE320\FOpt\RB3LYP\6-31G(d)\C9H14O1\VSC10255\08-Dec-2020\0\\
 # opt freq B3LYP/6-31G(d) empiricaldispersion=gd3bj scf=xqc\\CID_12330
 8897_JID_40_neutraal\\0,1\C,1.040367036,-0.0650479551,-0.0448181492\C,
 0.8987208088,-1.3568245945,0.7780120496\C,1.4084943444,-1.2075341027,2
 .1960984971\C,0.5535828034,-1.0633939437,3.2254091021\C,2.8471350605,-
 1.1913349187,2.4501495031\C,3.8149947931,-1.3852341452,1.532511767\C,5
 .2450136664,-1.3759295948,1.8249267522\C,6.1742536553,-1.5774529584,0.
 869092884\O,5.5139562712,-1.1446874359,3.1433226005\C,6.8744380708,-1.

 Normal termination of Gaussian 16 at Tue Dec  8 10:14:37 2020.

 --------------------------------------------------------------------
 #N Geom=AllCheck Guess=TCheck SCRF=Check GenChk RB3LYP/6-31G(d) Freq
 --------------------------------------------------------------------

 Structure from the checkpoint file:  "JID_40.chk"
 -----------------------------
 CID_123308897_JID_40_neutraal
 -----------------------------
 Charge =  0 Multiplicity = 1

 SCF Done:  E(RB3LYP) =  -426.590157032     A.U. after    1 cycles

  Exact polarizability: 152.287  31.950 122.802   0.291   8.005  56.423
 Approx polarizability: 208.283  79.422 211.078   4.439  18.499  80.810

                      1                      2                      3
                      A                      A                      A
 Frequencies --     48.5427                80.5108                97.9745
 Red. masses --      3.3568                 2.9740                 3.3405
 Frc consts  --      0.0047                 0.0114                 0.0189
 IR Inten    --      0.0879                 2.1611                 2.3971

                      4                      5                      6
                      A                      A                      A
 Frequencies --    121.3012               153.6358               197.7885
 Red. masses --      2.6105                 3.7360                 1.5855
 Frc consts  --      0.0226                 0.0520                 0.0365
 IR Inten    --      0.7445                 0.7479                 0.3299

                      7                      8                      9
                      A                      A                      A
 Frequencies --    222.8275               241.0573               267.8046
 Red. masses --      2.0071                 1.6957                 1.1017
 Frc consts  --      0.0587                 0.0581                 0.0466
 IR Inten    --      0.3445                 0.3944                 0.0395

                     10                     11                     12
                      A                      A                      A
 Frequencies --    288.4609               346.2694               376.9524
 Red. masses --      2.9196                 3.0621                 2.6835
 Frc consts  --      0.1431                 0.2163                 0.2247
 IR Inten    --      0.0788                 3.7836                 0.4725

                     13                     14                     15
                      A                      A                      A
 Frequencies --    477.8607               520.6988               566.2106
 Red. masses --      2.3994                 3.1964                 2.2190
 Frc consts  --      0.3228                 0.5106                 0.4191
 IR Inten    --      4.0078                 9.2682                 2.0797

                     16                     17                     18
                      A                      A                      A
 Frequencies --    638.6520               668.5029               715.4533
 Red. masses --      3.0691                 2.7655                 1.2977
 Frc consts  --      0.7376                 0.7282                 0.3914
 IR Inten    --      1.5252                 3.0847                 0.4469

                     19                     20                     21
                      A                      A                      A
 Frequencies --    726.5620               806.7262               812.7621
 Red. masses --      1.1347                 1.4197                 1.2729
 Frc consts  --      0.3529                 0.5444                 0.4954
 IR Inten    --      0.3264                55.9492                 1.0707

                     22                     23                     24
                      A                      A                      A
 Frequencies --    818.7313               876.1313               891.6044
 Red. masses --      2.2319                 3.7695                 1.8183
 Frc consts  --      0.8815                 1.7048                 0.8516
 IR Inten    --      4.9887                10.3126                20.3034

                     25                     26                     27
                      A                      A                      A
 Frequencies --    919.6129               987.3348               993.9588
 Red. masses --      1.4519                 1.7904                 1.8549
 Frc consts  --      0.7235                 1.0283                 1.0797
 IR Inten    --     23.3140                 0.9302                 6.8440

                     28                     29                     30
                      A                      A                      A
 Frequencies --   1012.5372              1027.6523              1097.3640
 Red. masses --      1.1315                 1.7171                 1.7645
 Frc consts  --      0.6835                 1.0684                 1.2519
 IR Inten    --     30.3723                 2.8355                 3.6447

                     31                     32                     33
                      A                      A                      A
 Frequencies --   1112.9216              1134.3084              1188.8963
 Red. masses --      1.5847                 4.9533                 1.2755
 Frc consts  --      1.1564                 3.7550                 1.0622
 IR Inten    --      5.8614                92.5419                 0.9397

                     34                     35                     36
                      A                      A                      A
 Frequencies --   1234.2146              1290.6684              1295.0239
 Red. masses --      1.4696                 1.3404                 1.2527
 Frc consts  --      1.3190                 1.3156                 1.2378
 IR Inten    --     17.0957                 2.0580                13.8233

                     37                     38                     39
                      A                      A                      A
 Frequencies --   1347.1376              1351.8331              1369.8337
 Red. masses --      1.4082                 1.4794                 4.0410
 Frc consts  --      1.5057                 1.5929                 4.4676
 IR Inten    --      2.3238                17.7445               151.0379

                     40                     41                     42
                      A                      A                      A
 Frequencies --   1382.8183              1436.9122              1450.5549
 Red. masses --      2.1304                 1.2313                 1.2994
 Frc consts  --      2.4002                 1.4979                 1.6109
 IR Inten    --      0.6985                 2.7137                 2.2361

                     43                     44                     45
                      A                      A                      A
 Frequencies --   1475.3792              1510.4343              1517.6542
 Red. masses --      1.2329                 1.2081                 1.0476
 Frc consts  --      1.5811                 1.6238                 1.4217
 IR Inten    --      4.5842                 3.9772                 5.5014

                     46                     47                     48
                      A                      A                      A
 Frequencies --   1525.4884              1526.4918              1538.2447
 Red. masses --      1.0584                 1.0452                 1.0498
 Frc consts  --      1.4512                 1.4349                 1.4636
 IR Inten    --      0.6817                 5.6474                13.5445

                     49                     50                     51
                      A                      A                      A
 Frequencies --   1543.6276              1662.7813              1697.3314
 Red. masses --      1.0822                 4.2791                 4.6614
 Frc consts  --      1.5192                 6.9706                 7.9122
 IR Inten    --      5.8907                26.4180                43.4677

                     52                     53                     54
                      A                      A                      A
 Frequencies --   1715.1402              3027.8784              3046.1970
 Red. masses --      5.2658                 1.0342                 1.0631
 Frc consts  --      9.1266                 5.5862                 5.8121
 IR Inten    --     16.5565                44.5123                24.6582

                     55                     56                     57
                      A                      A                      A
 Frequencies --   3055.3389              3085.8212              3086.2159
 Red. masses --      1.0355                 1.1000                 1.1064
 Frc consts  --      5.6954                 6.1713                 6.2089
 IR Inten    --     30.1069                15.0543                42.9612

                     58                     59                     60
                      A                      A                      A
 Frequencies --   3121.7842              3134.2158              3158.4579
 Red. masses --      1.1027                 1.1022                 1.1004
 Frc consts  --      6.3316                 6.3795                 6.4678
 IR Inten    --     33.9159                35.8404                20.6381

                     61                     62                     63
                      A                      A                      A
 Frequencies --   3162.2277              3190.2158              3201.8772
 Red. masses --      1.0592                 1.0900                 1.0807
 Frc consts  --      6.2404                 6.5359                 6.5279
 IR Inten    --      8.6254                 1.8036                 8.8634

                     64                     65                     66
                      A                      A                      A
 Frequencies --   3208.1758              3242.1409              3287.7765
 Red. masses --      1.0658                 1.1163                 1.1160
 Frc consts  --      6.4630                 6.9133                 7.1077
 IR Inten    --      3.2585                16.5941                 8.8143

 - Thermochemistry -
 -------------------
 Temperature   298.150 Kelvin.  Pressure   1.00000 Atm.
 Atom     1 has atomic number  6 and mass  12.00000

 Molecular mass:   138.10447 amu.
 Principal axes and moments of inertia in atomic units:
                           1         2         3
     Eigenvalues --   713.916152922.901813465.04089
           X            0.99997  -0.00738   0.00144
           Y            0.00737   0.99997   0.00367
           Z           -0.00146  -0.00366   0.99999
 This molecule is an asymmetric top.
 Rotational symmetry number  1.
 Warning -- assumption of classical behavior for rotation
           may cause significant error
 Rotational temperatures (Kelvin)      0.12132     0.02963     0.02500
 Rotational constants (GHZ):           2.52795     0.61745     0.52084
 Zero-point vibrational energy     552181.3 (Joules/Mol)
                                  131.97449 (Kcal/Mol)
 Warning -- explicit consideration of  15 degrees of freedom as
           vibrations may cause significant error
 Vibrational temperatures:     69.84   115.84   140.96   174.53   221.05
          (Kelvin)            284.57   320.60   346.83   385.31   415.03
                              498.20   542.35   687.53   749.17   814.65
                              918.88   961.83  1029.38  1045.36  1160.70
                             1169.38  1177.97  1260.56  1282.82  1323.12
                             1420.55  1430.08  1456.82  1478.56  1578.86
                             1601.25  1632.02  1710.56  1775.76  1856.98
                             1863.25  1938.23  1944.99  1970.89  1989.57
                             2067.40  2087.02  2122.74  2173.18  2183.57
                             2194.84  2196.28  2213.19  2220.94  2392.37
                             2442.08  2467.70  4356.44  4382.80  4395.95
                             4439.81  4440.38  4491.55  4509.44  4544.32
                             4549.74  4590.01  4606.79  4615.85  4664.72
                             4730.38

 Zero-point correction=                           0.210315 (Hartree/Particle)
 Thermal correction to Energy=                    0.221862
 Thermal correction to Enthalpy=                  0.222806
 Thermal correction to Gibbs Free Energy=         0.172802
 Sum of electronic and zero-point Energies=           -426.379842
 Sum of electronic and thermal Energies=              -426.368295
 Sum of electronic and thermal Enthalpies=            -426.367351
 Sum of electronic and thermal Free Energies=         -426.417356

                     E (Thermal)             CV                S
                      KCal/Mol        Cal/Mol-Kelvin    Cal/Mol-Kelvin
 Total                  139.220             42.334            105.244
 Electronic               0.000              0.000              0.000
 Translational            0.889              2.981             40.680
 Rotational               0.889              2.981             30.359
 Vibrational            137.443             36.373             34.204
 Vibration     1          0.595              1.978              4.876
 Vibration     2          0.600              1.962              3.878
 Vibration     3          0.603              1.951              3.494
 Vibration     4          0.609              1.931              3.080
 Vibration     5          0.619              1.899              2.627
 Vibration     6          0.637              1.843              2.154
 Vibration     7          0.649              1.806              1.936
 Vibration     8          0.658              1.778              1.795
 Vibration     9          0.673              1.732              1.610
 Vibration    10          0.685              1.695              1.483
 Vibration    11          0.724              1.583              1.183
 Vibration    12          0.748              1.519              1.051
 Vibration    13          0.834              1.299              0.716
 Vibration    14          0.876              1.204              0.608
 Vibration    15          0.922              1.104              0.512

                           ! Non-Optimized Parameters !

 1\1\GINC-NODE320\Freq\RB3LYP\6-31G(d)\C9H14O1\VSC10255\08-Dec-2020\0\\
 #N Geom=AllCheck Guess=TCheck SCRF=Check GenChk RB3LYP/6-31G(d) Freq\\
 CID_123308897_JID_40_neutraal\\0,1\C,1.040367036,-0.0650479551,-0.0448
 181492\C,0.8987208088,-1.3568245945,0.7780120496\C,1.4084943444,-1.207
 5341027,2.1960984971\C,0.5535828034,-1.0633939437,3.2254091021\C,2.847
 1350605,-1.1913349187,2.4501495031\C,3.8149947931,-1.3852341452,1.5325
 11767\C,5.2450136664,-1.3759295948,1.8249267522\C,6.1742536553,-1.5774
 529584,0.869092884\O,5.5139562712,-1.1446874359,3.1433226005\C,6.87443

 Normal termination of Gaussian 16 at Tue Dec  8 10:18:16 2020.

 ----------------------------------------------------------------------
 # B3LYP/6-311++G(d,p) empiricaldispersion=gd3bj scf=xqc pop=npa geom=c
 heck
 ----------------------------------------------------------------------

 -------------------------------------
 CID_123308897_JID_40_Energie_neutraal
 -------------------------------------
 Structure from the checkpoint file:  "JID_40.chk"
 Charge =  0 Multiplicity = 1

 SCF Done:  E(RB3LYP) =  -426.713495083     A.U. after   14 cycles
 Normal termination of Gaussian 16 at Tue Dec  8 10:19:45 2020.

 ----------------------------------------------------------------------
 # B3LYP/6-311++G(d,p) empiricaldispersion=gd3bj scf=xqc pop=npa geom=c
 heck
 ----------------------------------------------------------------------

 -----------------------------------
 CID_123308897_JID_40_Energie_kation
 -----------------------------------
 Structure from the checkpoint file:  "JID_40.chk"
 Charge =  1 Multiplicity = 2

 SCF Done:  E(UB3LYP) =  -426.433034398     A.U. after   20 cycles
 Normal termination of Gaussian 16 at Tue Dec  8 10:22:23 2020.
 Gaussian 16:  ES64L-G16RevA.03 25-Dec-2016

 ----------------------------------
 CID_123308897_JID_40_Energie_anion
 ----------------------------------
 Structure from the checkpoint file:  "JID_40.chk"
 Charge = -1 Multiplicity = 2

                         Standard orientation:
 ---------------------------------------------------------------------
 Center     Atomic      Atomic             Coordinates (Angstroms)
 Number     Number       Type             X           Y           Z
 ---------------------------------------------------------------------
      1          6           0        2.874818   -1.422216    0.798626
      2          6           0        2.734706   -0.548020   -0.459131
      3          6           0        1.939981    0.716432   -0.208731
      4          6           0        2.557511    1.904486   -0.073393
      5          6           0        0.486080    0.644788   -0.084111
      6          6           0       -0.269525   -0.457876   -0.256160
      7          6           0       -1.723951   -0.490001   -0.137164
      8          6           0       -2.434211   -1.621095   -0.321215
      9          8           0       -2.256369    0.728054    0.174032
     10          6           0       -3.663130    0.807277    0.315459
     11          1           0        3.400819   -0.874070    1.587491
     12          1           0        3.441481   -2.333957    0.578992
     13          1           0        1.897395   -1.714517    1.194280
     14          1           0        3.732382   -0.276114   -0.821237
     15          1           0        2.263451   -1.131015   -1.260929
     16          1           0        2.000771    2.814201    0.135824
     17          1           0        3.635424    2.001572   -0.167772
     18          1           0       -0.018761    1.576325    0.159225
     19          1           0        0.186310   -1.411602   -0.504486
     20          1           0       -3.511745   -1.672485   -0.239547
     21          1           0       -1.913020   -2.538596   -0.565830
     22          1           0       -4.172485    0.533497   -0.617808
     23          1           0       -4.019006    0.152930    1.122031
     24          1           0       -3.885737    1.846749    0.562419
 ---------------------------------------------------------------------

 SCF Done:  E(UB3LYP) =  -426.705681267     A.U. after   33 cycles
 SCF Done:  E(UB3LYP) =  -426.705879578     a.u. after    5 cycles

 The electronic state is 2-A.
 Alpha  occ. eigenvalues --  -19.02057 -10.10344 -10.08637 -10.04134 -10.04018
 Alpha  occ. eigenvalues --  -10.02604 -10.00773 -10.00694 -10.00610 -10.00097
 Alpha  occ. eigenvalues --   -0.93730  -0.68291  -0.65189  -0.60659  -0.57956
 Alpha  occ. eigenvalues --   -0.57105  -0.49829  -0.46749  -0.42357  -0.38447
 Alpha  occ. eigenvalues --   -0.36181  -0.34605  -0.34591  -0.33135  -0.30640
 Alpha  occ. eigenvalues --   -0.28756  -0.28190  -0.26294  -0.25140  -0.23820
 Alpha  occ. eigenvalues --   -0.23117  -0.23094  -0.21265  -0.20567  -0.18703
 Alpha  occ. eigenvalues --   -0.16207  -0.11834  -0.07197   0.05550
 Alpha virt. eigenvalues --    0.07316   0.08281   0.09594   0.10178   0.10774
 Alpha virt. eigenvalues --    0.10993   0.11603   0.12637   0.13161   0.13376
 Alpha virt. eigenvalues --    0.14189   0.14984   0.15160   0.15529   0.17475

  Beta  occ. eigenvalues --  -19.02037 -10.10324 -10.08603 -10.04133 -10.04013
  Beta  occ. eigenvalues --  -10.02573 -10.00582 -10.00500 -10.00417  -9.99767
  Beta  occ. eigenvalues --   -0.93680  -0.67983  -0.64929  -0.60417  -0.57781
  Beta  occ. eigenvalues --   -0.56707  -0.49652  -0.46103  -0.42178  -0.38176
  Beta  occ. eigenvalues --   -0.36045  -0.34519  -0.34434  -0.33070  -0.30502
  Beta  occ. eigenvalues --   -0.28657  -0.28091  -0.26113  -0.25035  -0.23657
  Beta  occ. eigenvalues --   -0.22954  -0.22694  -0.21197  -0.20430  -0.18574
  Beta  occ. eigenvalues --   -0.15104  -0.10778  -0.05525
  Beta virt. eigenvalues --    0.07725   0.08278   0.09694   0.10203   0.10359
  Beta virt. eigenvalues --    0.10968   0.10982   0.11935   0.12652   0.13204
  Beta virt. eigenvalues --    0.13268   0.14165   0.14996   0.15227   0.15874

 Mulliken charges and spin densities:
               1          2
     1  C   -0.327936  -0.227953
     2  C   -0.510674   0.037049
     3  C    0.684966   0.156807
     4  C   -0.644319   0.225693
     5  C   -0.201255  -0.040316
     6  C   -0.262812  -0.031459
     7  C    0.578669   0.150474
     8  C   -0.862748   0.086057
     9  O   -0.164403   0.040437
    10  C    0.284379  -0.570613
    11  H    0.132371  -0.013463
    12  H   -0.057204   0.148051
    13  H    0.074237   0.061455
    14  H   -0.038699   0.190844
    15  H    0.005161   0.109944
    16  H    0.071153   0.010093
    17  H    0.080800  -0.000528
    18  H    0.186192  -0.029037
    19  H    0.185343  -0.119485
    20  H   -0.008981   0.113687
    21  H    0.046660   0.061165
    22  H    0.004306   0.123955
    23  H   -0.176644   0.313773
    24  H   -0.078561   0.203369
 Sum of Mulliken charges =  -1.00000   1.00000

 Dipole moment (field-independent basis, Debye):
    X=              0.1282    Y=             -0.3633    Z=              0.1448  Tot=              0.4116
 Quadrupole moment (field-independent basis, Debye-Ang):
   XX=           -111.1209   YY=            -86.0761   ZZ=            -80.0382
   XY=             -5.8088   XZ=              5.0260   YZ=              2.2377

 Summary of Natural Population Analysis:

                                       Natural Population
                Natural  -----------------------------------------------
    Atom  No    Charge         Core      Valence    Rydberg      Total
 -----------------------------------------------------------------------
      C    1   -0.28478      0.99966     2.27907    0.00605     3.28478
      C    2   -0.20037      0.99960     2.19137    0.00939     3.20037
      C    3   -0.02969      0.99950     2.01806    0.01213     3.02969
      C    4   -0.12747      0.99953     2.12049    0.00745     3.12747
      C    5   -0.06036      0.99949     2.05144    0.00943     3.06036
      C    6   -0.09507      0.99949     2.08702    0.00855     3.09507
      C    7    0.15940      0.99940     1.82699    0.01420     2.84060
      C    8   -0.23957      0.99955     2.23206    0.00796     3.23957
      O    9   -0.27929      0.99985     3.26855    0.01089     4.27929
      C   10   -0.09965      0.99961     2.09069    0.00935     3.09965
      H   11    0.09430      0.00000     0.40480    0.00090     0.40570
      H   12    0.08988      0.00000     0.40914    0.00099     0.41012
      H   13    0.10166      0.00000     0.39732    0.00102     0.39834
      H   14    0.09413      0.00000     0.40461    0.00127     0.40587
      H   15    0.09665      0.00000     0.40184    0.00151     0.40335
      H   16    0.08312      0.00000     0.41590    0.00098     0.41688
      H   17    0.07979      0.00000     0.41930    0.00091     0.42021
      H   18    0.09416      0.00000     0.40400    0.00183     0.40584
      H   19    0.08843      0.00000     0.41004    0.00152     0.41157
      H   20    0.08893      0.00000     0.41016    0.00091     0.41107
      H   21    0.09396      0.00000     0.40528    0.00077     0.40604
      H   22    0.08130      0.00000     0.41744    0.00126     0.41870
      H   23    0.08325      0.00000     0.41513    0.00162     0.41675
      H   24    0.08729      0.00000     0.41181    0.00090     0.41271
 =======================================================================
   * Total *   -0.00000      9.99570    27.89251    0.11179    38.00000

 Normal termination of Gaussian 16 at Tue Dec  8 10:42:14 2020.
