 Gaussian 16, Revision A.03,

 -----------------------------------------------------------
 # opt freq B3LYP/6-31G(d) empiricaldispersion=gd3bj scf=xqc
 -----------------------------------------------------------

 ----------------------------
 CID_102508_JID_7435_neutraal
 ----------------------------
 Symbolic Z-matrix:
 Charge =  0 Multiplicity = 1

 SCF Done:  E(RB3LYP) =  -1511.02590517     A.U. after   16 cycles
 SCF Done:  E(RB3LYP) =  -1511.03224560     A.U. after   14 cycles
 SCF Done:  E(RB3LYP) =  -1511.03022375     A.U. after   15 cycles
 SCF Done:  E(RB3LYP) =  -1511.03359330     A.U. after   13 cycles
 SCF Done:  E(RB3LYP) =  -1511.03577427     A.U. after   13 cycles
 SCF Done:  E(RB3LYP) =  -1511.03603645     A.U. after   13 cycles
 SCF Done:  E(RB3LYP) =  -1511.03609464     A.U. after   14 cycles
 SCF Done:  E(RB3LYP) =  -1511.03674879     A.U. after   13 cycles
 SCF Done:  E(RB3LYP) =  -1511.03689899     A.U. after   12 cycles
 SCF Done:  E(RB3LYP) =  -1511.03715797     A.U. after   11 cycles
 SCF Done:  E(RB3LYP) =  -1511.03735350     A.U. after   11 cycles
 SCF Done:  E(RB3LYP) =  -1511.03737710     A.U. after   10 cycles
 SCF Done:  E(RB3LYP) =  -1511.03738818     A.U. after    9 cycles
 SCF Done:  E(RB3LYP) =  -1511.03738919     A.U. after    8 cycles
 SCF Done:  E(RB3LYP) =  -1511.03738947     A.U. after    8 cycles
 SCF Done:  E(RB3LYP) =  -1511.03738950     A.U. after    7 cycles
 Optimization completed.
    -- Stationary point found.
 Normal termination of Gaussian 16 at Sun Dec 13 12:41:13 2020.

 --------------------------------------------------------------------
 #N Geom=AllCheck Guess=TCheck SCRF=Check GenChk RB3LYP/6-31G(d) Freq
 --------------------------------------------------------------------

 Structure from the checkpoint file:  "JID_7435.chk"
 ----------------------------
 CID_102508_JID_7435_neutraal
 ----------------------------
 Charge =  0 Multiplicity = 1

 SCF Done:  E(RB3LYP) =  -1511.03738950     A.U. after    1 cycles

  Exact polarizability: 181.749   0.620 162.061  -1.731   1.620 158.836
 Approx polarizability: 234.204   2.906 240.870  -3.796   5.625 255.946

                      1                      2                      3
                      A                      A                      A
 Frequencies --     22.3280                31.5208                41.9048
 Red. masses --      5.0433                 6.0899                 4.3480
 Frc consts  --      0.0015                 0.0036                 0.0045
 IR Inten    --      0.6900                 1.2996                 0.0442

                      4                      5                      6
                      A                      A                      A
 Frequencies --     47.3736                56.8138                67.4582
 Red. masses --      3.2058                 4.1644                 3.2756
 Frc consts  --      0.0042                 0.0079                 0.0088
 IR Inten    --      0.0532                 0.8339                 0.5009

                      7                      8                      9
                      A                      A                      A
 Frequencies --     74.9068                84.0935                97.2650
 Red. masses --      5.2781                 3.1679                 2.3656
 Frc consts  --      0.0174                 0.0132                 0.0132
 IR Inten    --      1.3495                 1.2368                 0.9304

                     10                     11                     12
                      A                      A                      A
 Frequencies --    141.3847               150.8647               174.4341
 Red. masses --      3.3761                 4.0932                 1.6950
 Frc consts  --      0.0398                 0.0549                 0.0304
 IR Inten    --      0.4605                 4.8589                 0.8423

                     13                     14                     15
                      A                      A                      A
 Frequencies --    197.7825               221.9330               240.9363
 Red. masses --      3.1681                 1.7674                 1.6431
 Frc consts  --      0.0730                 0.0513                 0.0562
 IR Inten    --      6.2121                 4.9299                11.2541

                     16                     17                     18
                      A                      A                      A
 Frequencies --    246.1463               269.5447               274.3437
 Red. masses --      2.2478                 2.2012                 1.6850
 Frc consts  --      0.0802                 0.0942                 0.0747
 IR Inten    --      4.7462                 5.2421                 1.4277

                     19                     20                     21
                      A                      A                      A
 Frequencies --    288.0153               303.5921               332.1803
 Red. masses --      5.3964                 2.2452                 1.9364
 Frc consts  --      0.2637                 0.1219                 0.1259
 IR Inten    --      1.8078                 0.6568                36.8776

                     22                     23                     24
                      A                      A                      A
 Frequencies --    336.3793               357.0338               372.3638
 Red. masses --      2.2134                 2.3815                 3.9512
 Frc consts  --      0.1476                 0.1789                 0.3228
 IR Inten    --      8.0019                 0.2553                 5.2156

                     25                     26                     27
                      A                      A                      A
 Frequencies --    375.6708               420.7026               434.1744
 Red. masses --      3.4252                 2.1514                 3.9079
 Frc consts  --      0.2848                 0.2243                 0.4340
 IR Inten    --      3.8105                 0.7021                41.9903

                     28                     29                     30
                      A                      A                      A
 Frequencies --    440.2114               471.1382               490.1526
 Red. masses --      2.3714                 6.8179                 2.3319
 Frc consts  --      0.2708                 0.8917                 0.3301
 IR Inten    --      6.0887                11.6837                 2.2355

                     31                     32                     33
                      A                      A                      A
 Frequencies --    556.2652               588.7196               590.6400
 Red. masses --      2.1971                 2.9995                 5.6470
 Frc consts  --      0.4006                 0.6125                 1.1607
 IR Inten    --      9.2348                53.5547                92.6147

                     34                     35                     36
                      A                      A                      A
 Frequencies --    650.1856               716.5604               757.6377
 Red. masses --      5.0324                 1.4719                 1.4671
 Frc consts  --      1.2534                 0.4453                 0.4962
 IR Inten    --     13.0871                 4.4493                 5.3521

                     37                     38                     39
                      A                      A                      A
 Frequencies --    766.7596               789.1247               798.5728
 Red. masses --      1.8531                 4.0505                 2.2023
 Frc consts  --      0.6419                 1.4861                 0.8275
 IR Inten    --    216.5513               126.7792                 8.5088

                     40                     41                     42
                      A                      A                      A
 Frequencies --    819.8103               836.4134               859.2185
 Red. masses --      1.2965                 1.7258                 1.8878
 Frc consts  --      0.5134                 0.7113                 0.8211
 IR Inten    --     14.6939                 1.7951                 1.4510

                     43                     44                     45
                      A                      A                      A
 Frequencies --    886.4431               900.2291               924.9082
 Red. masses --      1.6423                 1.7735                 1.7105
 Frc consts  --      0.7603                 0.8468                 0.8621
 IR Inten    --      0.6431                 4.6435                 0.5567

                     46                     47                     48
                      A                      A                      A
 Frequencies --    958.5566               991.6852              1008.0236
 Red. masses --      1.9188                 1.9545                 1.6161
 Frc consts  --      1.0387                 1.1325                 0.9675
 IR Inten    --      1.0347                16.8470                 0.0957

                     49                     50                     51
                      A                      A                      A
 Frequencies --   1008.8555              1045.8337              1048.7569
 Red. masses --      1.9381                 1.6867                 1.7450
 Frc consts  --      1.1622                 1.0870                 1.1308
 IR Inten    --     11.7197                 6.4538                 0.2962

                     52                     53                     54
                      A                      A                      A
 Frequencies --   1080.6436              1090.3691              1097.8926
 Red. masses --      1.8938                 1.6453                 1.3957
 Frc consts  --      1.3030                 1.1525                 0.9912
 IR Inten    --      0.1963                 2.1445                 0.7604

                     55                     56                     57
                      A                      A                      A
 Frequencies --   1119.4228              1128.8443              1139.4944
 Red. masses --      1.9353                 2.1686                14.1574
 Frc consts  --      1.4289                 1.6282                10.8308
 IR Inten    --      2.2054                 0.9297               139.6265

                     58                     59                     60
                      A                      A                      A
 Frequencies --   1164.1605              1173.3377              1181.2926
 Red. masses --      2.6491                 1.2336                 2.1002
 Frc consts  --      2.1153                 1.0006                 1.7268
 IR Inten    --     17.1734               119.2859                 9.2928

                     61                     62                     63
                      A                      A                      A
 Frequencies --   1185.0438              1225.1564              1231.5712
 Red. masses --      2.5095                 1.1713                 1.3350
 Frc consts  --      2.0764                 1.0358                 1.1930
 IR Inten    --     33.1575                 5.3994                 1.9153

                     64                     65                     66
                      A                      A                      A
 Frequencies --   1248.4779              1283.0674              1287.8573
 Red. masses --      1.3619                 1.3070                 1.1999
 Frc consts  --      1.2507                 1.2677                 1.1726
 IR Inten    --      7.4655                17.0958                 4.4247

                     67                     68                     69
                      A                      A                      A
 Frequencies --   1308.5906              1319.3726              1336.4296
 Red. masses --      1.2634                 1.1984                 1.2543
 Frc consts  --      1.2747                 1.2291                 1.3199
 IR Inten    --      6.8330                 2.6274                 7.6654

                     70                     71                     72
                      A                      A                      A
 Frequencies --   1340.1421              1363.4317              1370.8980
 Red. masses --      1.1768                 1.3129                 3.9047
 Frc consts  --      1.2453                 1.4379                 4.3236
 IR Inten    --      3.4214                23.9715               170.1859

                     73                     74                     75
                      A                      A                      A
 Frequencies --   1380.1580              1389.4775              1398.2214
 Red. masses --      1.4807                 1.3439                 1.3498
 Frc consts  --      1.6618                 1.5287                 1.5548
 IR Inten    --      2.4035                 3.5266                 4.9693

                     76                     77                     78
                      A                      A                      A
 Frequencies --   1405.6788              1412.8082              1419.1496
 Red. masses --      1.4560                 1.3897                 1.4105
 Frc consts  --      1.6951                 1.6343                 1.6738
 IR Inten    --      9.8233                 8.6223                10.9379

                     79                     80                     81
                      A                      A                      A
 Frequencies --   1427.0879              1439.9139              1443.7132
 Red. masses --      1.3768                 1.4161                 1.2737
 Frc consts  --      1.6521                 1.7299                 1.5641
 IR Inten    --      7.5667                 5.0185                 5.1413

                     82                     83                     84
                      A                      A                      A
 Frequencies --   1446.7731              1475.5537              1507.5581
 Red. masses --      1.3110                 1.0984                 1.0788
 Frc consts  --      1.6168                 1.4091                 1.4446
 IR Inten    --      2.6608                 5.5654                 1.0562

                     85                     86                     87
                      A                      A                      A
 Frequencies --   1514.2037              1516.9190              1522.0999
 Red. masses --      1.0857                 1.0762                 1.0600
 Frc consts  --      1.4666                 1.4591                 1.4469
 IR Inten    --      4.3209                 0.5103                 2.2304

                     88                     89                     90
                      A                      A                      A
 Frequencies --   1524.1794              1528.9233              1533.6032
 Red. masses --      1.0627                 1.0799                 1.0591
 Frc consts  --      1.4545                 1.4873                 1.4676
 IR Inten    --      0.8439                 6.2875                14.5702

                     91                     92                     93
                      A                      A                      A
 Frequencies --   1535.2659              1539.1393              1545.3161
 Red. masses --      1.0708                 1.0748                 1.0767
 Frc consts  --      1.4871                 1.5002                 1.5149
 IR Inten    --      2.8151                 9.2172                 2.1926

                     94                     95                     96
                      A                      A                      A
 Frequencies --   1550.6024              1554.3086              2919.8135
 Red. masses --      1.0732                 1.2128                 1.0810
 Frc consts  --      1.5203                 1.7263                 5.4300
 IR Inten    --      9.9643                32.3400                79.3233

                     97                     98                     99
                      A                      A                      A
 Frequencies --   2955.6620              3027.6651              3029.8766
 Red. masses --      1.0736                 1.0629                 1.0662
 Frc consts  --      5.5258                 5.7408                 5.7666
 IR Inten    --     81.0206                27.2120                37.4605

                    100                    101                    102
                      A                      A                      A
 Frequencies --   3033.2116              3034.4297              3037.0316
 Red. masses --      1.0611                 1.0571                 1.0595
 Frc consts  --      5.7520                 5.7351                 5.7576
 IR Inten    --     27.4220                12.7103                30.5040

                    103                    104                    105
                      A                      A                      A
 Frequencies --   3040.8023              3044.0974              3048.5377
 Red. masses --      1.0666                 1.0434                 1.0586
 Frc consts  --      5.8107                 5.6969                 5.7967
 IR Inten    --     10.0884                19.2850                 8.6597

                    106                    107                    108
                      A                      A                      A
 Frequencies --   3060.3830              3067.3256              3069.6049
 Red. masses --      1.0963                 1.0942                 1.0978
 Frc consts  --      6.0498                 6.0655                 6.0943
 IR Inten    --     25.1675                10.3645                83.2541

                    109                    110                    111
                      A                      A                      A
 Frequencies --   3072.1777              3080.9755              3082.5431
 Red. masses --      1.0960                 1.0667                 1.0994
 Frc consts  --      6.0950                 5.9660                 6.1548
 IR Inten    --    107.6132                 5.9841                57.7604

                    112                    113                    114
                      A                      A                      A
 Frequencies --   3090.0844              3091.4573              3096.1643
 Red. masses --      1.0955                 1.0833                 1.0970
 Frc consts  --      6.1629                 6.1001                 6.1956
 IR Inten    --     10.2496                30.8711                75.0769

                    115                    116                    117
                      A                      A                      A
 Frequencies --   3109.4089              3117.5459              3150.3363
 Red. masses --      1.1014                 1.1020                 1.1037
 Frc consts  --      6.2744                 6.3103                 6.4536
 IR Inten    --     48.6261                48.9834                 1.1039

                    118                    119                    120
                      A                      A                      A
 Frequencies --   3169.5632              3507.5904              3690.3508
 Red. masses --      1.0961                 1.0741                 1.0659
 Frc consts  --      6.4881                 7.7857                 8.5524
 IR Inten    --      7.6017                 2.6647               112.8140

 - Thermochemistry -
 -------------------
 Temperature   298.150 Kelvin.  Pressure   1.00000 Atm.
 Atom     1 has atomic number  6 and mass  12.00000

 Molecular mass:   283.12759 amu.
 Principal axes and moments of inertia in atomic units:
                           1         2         3
     Eigenvalues --  3628.118738922.65603**********
           X            0.99963  -0.02697  -0.00448
           Y            0.02692   0.99959  -0.00998
           Z            0.00475   0.00985   0.99994
 This molecule is an asymmetric top.
 Rotational symmetry number  1.
 Warning -- assumption of classical behavior for rotation
           may cause significant error
 Rotational temperatures (Kelvin)      0.02387     0.00971     0.00852
 Rotational constants (GHZ):           0.49743     0.20227     0.17759
 Zero-point vibrational energy     968249.3 (Joules/Mol)
                                  231.41713 (Kcal/Mol)
 Warning -- explicit consideration of  33 degrees of freedom as
           vibrations may cause significant error
 Vibrational temperatures:     32.13    45.35    60.29    68.16    81.74
          (Kelvin)             97.06   107.77   120.99   139.94   203.42
                              217.06   250.97   284.56   319.31   346.65
                              354.15   387.81   394.72   414.39   436.80
                              477.93   483.97   513.69   535.75   540.51
                              605.30   624.68   633.37   677.86   705.22
                              800.34   847.04   849.80   935.47  1030.97
                             1090.07  1103.20  1135.37  1148.97  1179.52
                             1203.41  1236.22  1275.39  1295.23  1330.74
                             1379.15  1426.81  1450.32  1451.52  1504.72
                             1508.93  1554.81  1568.80  1579.62  1610.60
                             1624.16  1639.48  1674.97  1688.17  1699.62
                             1705.01  1762.73  1771.96  1796.28  1846.05
                             1852.94  1882.77  1898.28  1922.82  1928.17
                             1961.67  1972.42  1985.74  1999.15  2011.73
                             2022.46  2032.72  2041.84  2053.26  2071.71
                             2077.18  2081.58  2122.99  2169.04  2178.60
                             2182.51  2189.96  2192.95  2199.78  2206.51
                             2208.91  2214.48  2223.37  2230.97  2236.30
                             4200.96  4252.54  4356.13  4359.32  4364.11
                             4365.87  4369.61  4375.04  4379.78  4386.17
                             4403.21  4413.20  4416.48  4420.18  4432.84
                             4435.09  4445.94  4447.92  4454.69  4473.75
                             4485.45  4532.63  4560.29  5046.64  5309.59

 Zero-point correction=                           0.368787 (Hartree/Particle)
 Thermal correction to Energy=                    0.389984
 Thermal correction to Enthalpy=                  0.390928
 Thermal correction to Gibbs Free Energy=         0.316688
 Sum of electronic and zero-point Energies=          -1510.668603
 Sum of electronic and thermal Energies=             -1510.647405
 Sum of electronic and thermal Enthalpies=           -1510.646461
 Sum of electronic and thermal Free Energies=        -1510.720702

                     E (Thermal)             CV                S
                      KCal/Mol        Cal/Mol-Kelvin    Cal/Mol-Kelvin
 Total                  244.719             77.249            156.253
 Electronic               0.000              0.000              0.000
 Translational            0.889              2.981             42.820
 Rotational               0.889              2.981             34.152
 Vibrational            242.941             71.287             79.280
 Vibration     1          0.593              1.985              6.416
 Vibration     2          0.594              1.983              5.731
 Vibration     3          0.595              1.980              5.167
 Vibration     4          0.595              1.979              4.924
 Vibration     5          0.596              1.975              4.565
 Vibration     6          0.598              1.970              4.226
 Vibration     7          0.599              1.966              4.020
 Vibration     8          0.601              1.960              3.793
 Vibration     9          0.603              1.951              3.508
 Vibration    10          0.615              1.912              2.785
 Vibration    11          0.618              1.902              2.661
 Vibration    12          0.627              1.874              2.387
 Vibration    13          0.637              1.843              2.154
 Vibration    14          0.648              1.808              1.943
 Vibration    15          0.658              1.778              1.796
 Vibration    16          0.661              1.769              1.758
 Vibration    17          0.674              1.729              1.599
 Vibration    18          0.677              1.721              1.569
 Vibration    19          0.685              1.696              1.486
 Vibration    20          0.695              1.667              1.397
 Vibration    21          0.714              1.611              1.249
 Vibration    22          0.717              1.603              1.229
 Vibration    23          0.732              1.561              1.135
 Vibration    24          0.744              1.529              1.070
 Vibration    25          0.747              1.522              1.057
 Vibration    26          0.783              1.425              0.890
 Vibration    27          0.795              1.396              0.845
 Vibration    28          0.800              1.382              0.826
 Vibration    29          0.828              1.314              0.734
 Vibration    30          0.846              1.272              0.683
 Vibration    31          0.912              1.126              0.531
 Vibration    32          0.946              1.056              0.469
 Vibration    33          0.948              1.052              0.466

 Optimization completed.
    -- Stationary point found.
 Normal termination of Gaussian 16 at Sun Dec 13 13:01:12 2020.

 ----------------------------------------------------------------------
 # B3LYP/6-311++G(d,p) empiricaldispersion=gd3bj scf=xqc pop=npa geom=c
 heck
 ----------------------------------------------------------------------

 ------------------------------------
 CID_102508_JID_7435_Energie_neutraal
 ------------------------------------
 Structure from the checkpoint file:  "JID_7435.chk"
 Charge =  0 Multiplicity = 1

 SCF Done:  E(RB3LYP) =  -1511.30821987     A.U. after   16 cycles
 Normal termination of Gaussian 16 at Sun Dec 13 13:13:09 2020.

 ----------------------------------------------------------------------
 # B3LYP/6-311++G(d,p) empiricaldispersion=gd3bj scf=xqc pop=npa geom=c
 heck
 ----------------------------------------------------------------------

 ----------------------------------
 CID_102508_JID_7435_Energie_kation
 ----------------------------------
 Structure from the checkpoint file:  "JID_7435.chk"
 Charge =  1 Multiplicity = 2

 SCF Done:  E(UB3LYP) =  -1511.00549003     A.U. after   24 cycles
 Normal termination of Gaussian 16 at Sun Dec 13 13:38:20 2020.
 Gaussian 16:  ES64L-G16RevA.03 25-Dec-2016

 ----------------------------------------------------------------------
 # B3LYP/6-311++G(d,p) empiricaldispersion=gd3bj scf=xqc pop=npa geom=c
 heck
 ----------------------------------------------------------------------

 ---------------------------------
 CID_102508_JID_7435_Energie_anion
 ---------------------------------
 Structure from the checkpoint file:  "JID_7435.chk"
 Charge = -1 Multiplicity = 2

                         Standard orientation:
 ---------------------------------------------------------------------
 Center     Atomic      Atomic             Coordinates (Angstroms)
 Number     Number       Type             X           Y           Z
 ---------------------------------------------------------------------
      1          6           0        4.456342   -2.802396   -0.210671
      2          6           0        4.254772   -1.653593    0.781799
      3          6           0        4.400808   -0.257575    0.157313
      4          6           0        3.428475    0.047258   -0.994575
      5          6           0        1.941572   -0.121044   -0.657183
      6          6           0        1.424325    0.724656    0.517196
      7          6           0        1.701031    2.231408    0.349631
      8          6           0        1.186860    2.911058   -0.930150
      9          6           0       -0.330484    3.114912   -0.996939
     10          7           0       -0.010429    0.435119    0.657433
     11          6           0       -0.620495    0.806064    1.920203
     12          6           0       -2.140365    0.811634    1.793593
     13         16           0       -2.864760   -0.834005    1.388718
     14         16           0       -2.681333   -0.812074   -0.732240
     15          8           0       -2.985059    0.526876   -1.230718
     16          8           0       -1.523998   -1.567375   -1.182294
     17          8           0       -3.954771   -1.787799   -1.072606
     18          1           0        3.684932   -2.806018   -0.988542
     19          1           0        4.417871   -3.773423    0.295343
     20          1           0        5.429901   -2.723810   -0.710458
     21          1           0        3.266952   -1.747845    1.252166
     22          1           0        4.985010   -1.747562    1.596309
     23          1           0        4.282617    0.495835    0.947249
     24          1           0        5.427442   -0.142959   -0.217778
     25          1           0        3.613700    1.069109   -1.348476
     26          1           0        3.658522   -0.605928   -1.845443
     27          1           0        1.335165    0.107044   -1.541155
     28          1           0        1.739962   -1.176349   -0.427874
     29          1           0        1.966346    0.408700    1.429586
     30          1           0        1.301827    2.770591    1.219883
     31          1           0        2.788736    2.363517    0.407556
     32          1           0        1.680414    3.889806   -1.003075
     33          1           0        1.518212    2.345850   -1.810329
     34          1           0       -0.686438    3.660885   -0.112464
     35          1           0       -0.604457    3.705806   -1.878924
     36          1           0       -0.861556    2.162906   -1.038234
     37          1           0       -0.151819   -0.558814    0.491863
     38          1           0       -0.313111    0.168997    2.769975
     39          1           0       -0.322104    1.830403    2.169217
     40          1           0       -2.621010    1.080471    2.740289
     41          1           0       -2.468398    1.510940    1.020705
     42          1           0       -4.764639   -1.244629   -1.019436
 ---------------------------------------------------------------------

 SCF Done:  E(UB3LYP) =  -1511.31646940     A.U. after   30 cycles

 The electronic state is 2-A.
 Alpha  occ. eigenvalues --  -88.91470 -88.70551 -19.04457 -18.98934 -18.98771
 Alpha  occ. eigenvalues --  -14.18136 -10.09744 -10.08674 -10.08341 -10.08109
 Alpha  occ. eigenvalues --  -10.08075 -10.07880 -10.07681 -10.06906 -10.06869
 Alpha  occ. eigenvalues --  -10.06501 -10.04632  -7.98068  -7.79273  -5.94352
 Alpha  occ. eigenvalues --   -5.94180  -5.94036  -5.75705  -5.75328  -5.74629
 Alpha  occ. eigenvalues --   -1.01311  -0.91006  -0.88577  -0.80447  -0.72448
 Alpha  occ. eigenvalues --   -0.69773  -0.67118  -0.66002  -0.61974  -0.59035
 Alpha  occ. eigenvalues --   -0.58757  -0.54791  -0.52227  -0.51216  -0.48125
 Alpha  occ. eigenvalues --   -0.46521  -0.44201  -0.41081  -0.40205  -0.39453
 Alpha  occ. eigenvalues --   -0.37896  -0.36560  -0.36343  -0.35948  -0.35139
 Alpha  occ. eigenvalues --   -0.33103  -0.32549  -0.32466  -0.31386  -0.30875
 Alpha  occ. eigenvalues --   -0.29947  -0.29763  -0.29421  -0.27963  -0.27580
 Alpha  occ. eigenvalues --   -0.26577  -0.26095  -0.25255  -0.24321  -0.24050
 Alpha  occ. eigenvalues --   -0.23870  -0.23669  -0.22822  -0.22595  -0.21822
 Alpha  occ. eigenvalues --   -0.21494  -0.20499  -0.19987  -0.18465  -0.17354
 Alpha  occ. eigenvalues --   -0.12027  -0.11012   0.04150
 Alpha virt. eigenvalues --    0.05473   0.06892   0.07297   0.07929   0.08505
 Alpha virt. eigenvalues --    0.08713   0.09258   0.09549   0.10240   0.10843
 Alpha virt. eigenvalues --    0.11082   0.11363   0.11793   0.12419   0.12997

  Beta  occ. eigenvalues --  -88.91241 -88.70335 -19.04350 -18.98771 -18.98631
  Beta  occ. eigenvalues --  -14.18125 -10.09742 -10.08666 -10.08335 -10.08104
  Beta  occ. eigenvalues --  -10.08075 -10.07871 -10.07679 -10.06904 -10.06867
  Beta  occ. eigenvalues --  -10.06499 -10.04627  -7.97800  -7.79059  -5.94157
  Beta  occ. eigenvalues --   -5.94007  -5.93638  -5.75229  -5.75092  -5.74485
  Beta  occ. eigenvalues --   -1.00841  -0.90656  -0.88133  -0.80431  -0.72434
  Beta  occ. eigenvalues --   -0.69721  -0.66954  -0.65799  -0.61747  -0.59001
  Beta  occ. eigenvalues --   -0.58259  -0.54658  -0.51926  -0.51200  -0.47980
  Beta  occ. eigenvalues --   -0.46336  -0.44181  -0.40488  -0.40141  -0.39438
  Beta  occ. eigenvalues --   -0.37799  -0.36353  -0.36273  -0.35792  -0.34831
  Beta  occ. eigenvalues --   -0.33090  -0.32496  -0.32434  -0.31340  -0.30535
  Beta  occ. eigenvalues --   -0.29893  -0.29681  -0.29397  -0.27864  -0.27503
  Beta  occ. eigenvalues --   -0.26557  -0.26070  -0.25239  -0.24270  -0.23935
  Beta  occ. eigenvalues --   -0.23816  -0.23639  -0.22803  -0.22417  -0.21586
  Beta  occ. eigenvalues --   -0.21407  -0.20269  -0.19742  -0.18319  -0.16257
  Beta  occ. eigenvalues --   -0.11854  -0.10598
  Beta virt. eigenvalues --    0.05561   0.06818   0.07241   0.07708   0.08363
  Beta virt. eigenvalues --    0.08644   0.09185   0.09411   0.10201   0.10653
  Beta virt. eigenvalues --    0.10908   0.11081   0.11344   0.11798   0.12292

 Mulliken charges and spin densities:
               1          2
     1  C   -0.286490  -0.341386
     2  C   -0.244912   0.044861
     3  C   -0.157613  -0.066501
     4  C   -0.336689  -0.136957
     5  C   -0.173164  -0.013239
     6  C   -0.662596  -0.021825
     7  C   -0.115891  -0.035397
     8  C   -0.366621   0.177299
     9  C   -0.461070  -0.280486
    10  N    0.244355  -0.010849
    11  C   -0.060282   0.016984
    12  C   -0.090490  -0.319834
    13  S    0.164075   0.084486
    14  S   -0.321254   0.265971
    15  O   -0.206793   0.016829
    16  O   -0.101080   0.018233
    17  O   -0.247504   0.007434
    18  H    0.096523   0.051808
    19  H    0.051698   0.081565
    20  H    0.063930   0.063904
    21  H    0.140854   0.008286
    22  H   -0.041357   0.186129
    23  H    0.095327   0.022621
    24  H    0.040117   0.113118
    25  H    0.140190   0.004973
    26  H    0.125083   0.037639
    27  H    0.224141  -0.024078
    28  H    0.166294  -0.007432
    29  H    0.189292  -0.014604
    30  H    0.035971   0.083687
    31  H    0.102651   0.036189
    32  H    0.107957   0.029280
    33  H    0.073532   0.033601
    34  H    0.046420   0.065052
    35  H    0.126721  -0.007618
    36  H    0.268688   0.019803
    37  H    0.222991   0.021460
    38  H   -0.155831   0.272465
    39  H    0.203747  -0.121897
    40  H   -0.147390   0.398227
    41  H    0.160060   0.036392
    42  H    0.086414   0.203810
 Sum of Mulliken charges =  -1.00000   1.00000

 Dipole moment (field-independent basis, Debye):
    X=              6.5370    Y=              3.6667    Z=              0.0129  Tot=              7.4951
 Quadrupole moment (field-independent basis, Debye-Ang):
   XX=           -183.6124   YY=           -152.7259   ZZ=           -153.1217
   XY=             -4.3390   XZ=              0.1448   YZ=              2.9853

 Summary of Natural Population Analysis:

                                       Natural Population
                Natural  -----------------------------------------------
    Atom  No    Charge         Core      Valence    Rydberg      Total
 -----------------------------------------------------------------------
      C    1   -0.28807      0.99967     2.28385    0.00455     3.28807
      C    2   -0.19334      0.99964     2.18651    0.00720     3.19334
      C    3   -0.18990      0.99963     2.18259    0.00768     3.18990
      C    4   -0.19217      0.99963     2.18487    0.00767     3.19217
      C    5   -0.19748      0.99961     2.18954    0.00834     3.19748
      C    6   -0.00264      0.99959     1.99215    0.01090     3.00264
      C    7   -0.19233      0.99960     2.18455    0.00818     3.19233
      C    8   -0.19132      0.99964     2.18378    0.00790     3.19132
      C    9   -0.29129      0.99966     2.28649    0.00514     3.29129
      N   10   -0.35497      0.99972     2.84184    0.01341     3.85497
      C   11   -0.09070      0.99960     2.07889    0.01221     3.09070
      C   12   -0.26257      0.99959     2.24960    0.01338     3.26257
      S   13    0.06515      4.99963     2.91908    0.01614     7.93485
      S   14    1.08785      4.99954     1.80699    0.10562     6.91215
      O   15   -0.45646      0.99990     3.44897    0.00759     4.45646
      O   16   -0.45184      0.99990     3.44433    0.00761     4.45184
      O   17   -0.43606      0.99991     3.42971    0.00644     4.43606
      H   18    0.09891      0.00000     0.40000    0.00108     0.40109
      H   19    0.09805      0.00000     0.40094    0.00101     0.40195
      H   20    0.09265      0.00000     0.40618    0.00117     0.40735
      H   21    0.09739      0.00000     0.40126    0.00135     0.40261
      H   22    0.09343      0.00000     0.40528    0.00129     0.40657
      H   23    0.09608      0.00000     0.40262    0.00129     0.40392
      H   24    0.09226      0.00000     0.40656    0.00119     0.40774
      H   25    0.09618      0.00000     0.40258    0.00125     0.40382
      H   26    0.09625      0.00000     0.40262    0.00113     0.40375
      H   27    0.10854      0.00000     0.39010    0.00137     0.39146
      H   28    0.10024      0.00000     0.39847    0.00129     0.39976
      H   29    0.07573      0.00000     0.42182    0.00245     0.42427
      H   30    0.09501      0.00000     0.40377    0.00122     0.40499
      H   31    0.09513      0.00000     0.40374    0.00113     0.40487
      H   32    0.08845      0.00000     0.41037    0.00118     0.41155
      H   33    0.09293      0.00000     0.40569    0.00138     0.40707
      H   34    0.08907      0.00000     0.40985    0.00108     0.41093
      H   35    0.09144      0.00000     0.40770    0.00086     0.40856
      H   36    0.12166      0.00000     0.37661    0.00173     0.37834
      H   37    0.18563      0.00000     0.31054    0.00383     0.31437
      H   38    0.08124      0.00000     0.41715    0.00161     0.41876
      H   39    0.08923      0.00000     0.40926    0.00151     0.41077
      H   40    0.10551      0.00000     0.39336    0.00114     0.39449
      H   41    0.11455      0.00000     0.38381    0.00164     0.38545
      H   42    0.24257      0.00000     0.25283    0.00460     0.25743
 =======================================================================
   * Total *    0.00000     24.99446    51.71680    0.28874    77.00000

 Normal termination of Gaussian 16 at Sun Dec 13 14:08:13 2020.
