 Gaussian 16, Revision A.03,

 -----------------------------------------------------------
 # opt freq B3LYP/6-31G(d) empiricaldispersion=gd3bj scf=xqc
 -----------------------------------------------------------

 ---------------------------
 CID_584286_JID_245_neutraal
 ---------------------------
 Symbolic Z-matrix:
 Charge =  0 Multiplicity = 1

 SCF Done:  E(RB3LYP) =  -420.395263312     A.U. after   14 cycles
 SCF Done:  E(RB3LYP) =  -420.397217117     A.U. after   12 cycles
 SCF Done:  E(RB3LYP) =  -420.397448648     A.U. after   10 cycles
 SCF Done:  E(RB3LYP) =  -420.397513740     A.U. after   10 cycles
 SCF Done:  E(RB3LYP) =  -420.397528923     A.U. after    9 cycles
 SCF Done:  E(RB3LYP) =  -420.397539428     A.U. after    9 cycles
 SCF Done:  E(RB3LYP) =  -420.397542363     A.U. after    8 cycles
 SCF Done:  E(RB3LYP) =  -420.397542847     A.U. after    8 cycles
 SCF Done:  E(RB3LYP) =  -420.397543026     A.U. after    8 cycles
 Optimization completed.
    -- Stationary point found.

 1\1\GINC-NODE117\FOpt\RB3LYP\6-31G(d)\C8H10N2\VSC10255\08-Dec-2020\0\\
 # opt freq B3LYP/6-31G(d) empiricaldispersion=gd3bj scf=xqc\\CID_58428
 6_JID_245_neutraal\\0,1\C,0.9577810567,0.0786002118,0.0563758407\C,0.4
 428632483,0.7052468856,-1.2130468517\N,0.5011185587,1.9865418834,-1.34
 18388796\C,-0.0822941681,2.5572823646,-2.5562118459\C,0.0721115186,1.6
 961158948,-3.8142925861\N,-0.356280509,0.3444818278,-3.4897578613\C,-0
 .1005330623,-0.1781019045,-2.2354629527\C,-0.4337471364,-1.5276522425,
 -2.2716411115\C,-0.8910089276,-1.8168861222,-3.5809451146\C,-0.8156472

 Normal termination of Gaussian 16 at Tue Dec  8 10:20:15 2020.

 --------------------------------------------------------------------
 #N Geom=AllCheck Guess=TCheck SCRF=Check GenChk RB3LYP/6-31G(d) Freq
 --------------------------------------------------------------------

 Structure from the checkpoint file:  "JID_245.chk"
 ---------------------------
 CID_584286_JID_245_neutraal
 ---------------------------
 Charge =  0 Multiplicity = 1

 SCF Done:  E(RB3LYP) =  -420.397543026     A.U. after    1 cycles

  Exact polarizability: 116.715  -6.586 107.603  -0.311   1.094  51.421
 Approx polarizability: 189.298 -18.677 166.734  -0.158   2.260  78.152

                      1                      2                      3
                      A                      A                      A
 Frequencies --    118.7928               153.5636               167.7689
 Red. masses --      2.4186                 1.2262                 3.7308
 Frc consts  --      0.0201                 0.0170                 0.0619
 IR Inten    --      0.7026                 0.7463                 0.5797

                      4                      5                      6
                      A                      A                      A
 Frequencies --    220.1595               272.4809               305.2413
 Red. masses --      2.5024                 2.9555                 2.0830
 Frc consts  --      0.0715                 0.1293                 0.1143
 IR Inten    --      5.1770                 1.2485                 5.4804

                      7                      8                      9
                      A                      A                      A
 Frequencies --    443.8719               473.7158               552.1010
 Red. masses --      3.5935                 3.8087                 4.1051
 Frc consts  --      0.4171                 0.5036                 0.7372
 IR Inten    --      0.3328                 2.0788                 4.2412

                     10                     11                     12
                      A                      A                      A
 Frequencies --    566.6373               616.9104               644.8722
 Red. masses --      5.7218                 3.4969                 3.2860
 Frc consts  --      1.0824                 0.7841                 0.8051
 IR Inten    --      2.0954                 3.1519                 6.2266

                     13                     14                     15
                      A                      A                      A
 Frequencies --    705.8724               716.8204               727.5380
 Red. masses --      3.4187                 2.4485                 1.2431
 Frc consts  --      1.0036                 0.7413                 0.3877
 IR Inten    --      1.9784                 9.2788                44.6218

                     16                     17                     18
                      A                      A                      A
 Frequencies --    796.1334               866.7065               892.8146
 Red. masses --      1.3911                 1.2855                 2.7078
 Frc consts  --      0.5195                 0.5690                 1.2717
 IR Inten    --      8.4613                 1.1130                15.7934

                     19                     20                     21
                      A                      A                      A
 Frequencies --    917.0427               940.2576               985.4736
 Red. masses --      4.8956                 1.9658                 2.1690
 Frc consts  --      2.4257                 1.0239                 1.2411
 IR Inten    --      1.2494                 2.3907                15.0487

                     22                     23                     24
                      A                      A                      A
 Frequencies --   1046.6429              1060.2182              1094.0166
 Red. masses --      1.4716                 1.5920                 2.4727
 Frc consts  --      0.9498                 1.0543                 1.7437
 IR Inten    --      8.6589                 2.0301                 8.0146

                     25                     26                     27
                      A                      A                      A
 Frequencies --   1106.0090              1114.4794              1127.7923
 Red. masses --      1.5813                 1.8657                 2.4104
 Frc consts  --      1.1397                 1.3653                 1.8063
 IR Inten    --     11.3075                 2.3853                11.3734

                     28                     29                     30
                      A                      A                      A
 Frequencies --   1226.3988              1269.0274              1277.7473
 Red. masses --      1.3019                 1.3478                 1.3546
 Frc consts  --      1.1537                 1.2789                 1.3030
 IR Inten    --      4.1419                 1.5626                 0.5814

                     31                     32                     33
                      A                      A                      A
 Frequencies --   1298.5296              1370.2582              1379.3149
 Red. masses --      3.8699                 2.7794                 1.4303
 Frc consts  --      3.8446                 3.0748                 1.6032
 IR Inten    --     28.6507                48.1851                46.4828

                     34                     35                     36
                      A                      A                      A
 Frequencies --   1388.9643              1426.4308              1448.3059
 Red. masses --      1.5488                 1.4134                 3.6206
 Frc consts  --      1.7604                 1.6944                 4.4746
 IR Inten    --      3.4290                 5.7683                11.3569

                     37                     38                     39
                      A                      A                      A
 Frequencies --   1468.7499              1504.2868              1509.0192
 Red. masses --      4.2970                 1.1676                 1.0637
 Frc consts  --      5.4615                 1.5566                 1.4272
 IR Inten    --     77.1169                 2.5781                 6.1745

                     40                     41                     42
                      A                      A                      A
 Frequencies --   1509.6639              1514.2103              1536.4755
 Red. masses --      1.4464                 1.3301                 1.4440
 Frc consts  --      1.9422                 1.7968                 2.0084
 IR Inten    --     22.9442                11.9434                10.0686

                     43                     44                     45
                      A                      A                      A
 Frequencies --   1590.0419              1692.4363              3020.4686
 Red. masses --      4.6481                 7.4555                 1.0714
 Frc consts  --      6.9237                12.5820                 5.7591
 IR Inten    --     13.8448               110.6542                32.5049

                     46                     47                     48
                      A                      A                      A
 Frequencies --   3037.9601              3050.8166              3094.8390
 Red. masses --      1.0654                 1.0385                 1.0937
 Frc consts  --      5.7933                 5.6947                 6.1718
 IR Inten    --     44.3166                13.6835                50.7944

                     49                     50                     51
                      A                      A                      A
 Frequencies --   3104.5690              3109.5494              3164.7198
 Red. masses --      1.0999                 1.0988                 1.1006
 Frc consts  --      6.2463                 6.2597                 6.4945
 IR Inten    --     15.5069                25.2962                10.4018

                     52                     53                     54
                      A                      A                      A
 Frequencies --   3254.7029              3265.6785              3278.3387
 Red. masses --      1.0890                 1.0950                 1.1047
 Frc consts  --      6.7967                 6.8806                 6.9950
 IR Inten    --      3.4472                 5.0859                 4.3917

 - Thermochemistry -
 -------------------
 Temperature   298.150 Kelvin.  Pressure   1.00000 Atm.
 Atom     1 has atomic number  6 and mass  12.00000

 Molecular mass:   134.08440 amu.
 Principal axes and moments of inertia in atomic units:
                           1         2         3
     Eigenvalues --   843.722101237.784792013.42913
           X            0.99924   0.03893  -0.00066
           Y           -0.03893   0.99924  -0.00096
           Z            0.00062   0.00099   1.00000
 This molecule is an asymmetric top.
 Rotational symmetry number  1.
 Warning -- assumption of classical behavior for rotation
           may cause significant error
 Rotational temperatures (Kelvin)      0.10266     0.06997     0.04302
 Rotational constants (GHZ):           2.13902     1.45804     0.89635
 Zero-point vibrational energy     445163.0 (Joules/Mol)
                                  106.39650 (Kcal/Mol)
 Warning -- explicit consideration of  11 degrees of freedom as
           vibrations may cause significant error
 Vibrational temperatures:    170.92   220.94   241.38   316.76   392.04
          (Kelvin)            439.17   638.63   681.57   794.35   815.26
                              887.60   927.83  1015.59  1031.34  1046.76
                             1145.46  1247.00  1284.56  1319.42  1352.82
                             1417.88  1505.89  1525.42  1574.05  1591.30
                             1603.49  1622.64  1764.51  1825.85  1838.39
                             1868.29  1971.50  1984.53  1998.41  2052.32
                             2083.79  2113.20  2164.33  2171.14  2172.07
                             2178.61  2210.65  2287.72  2435.04  4345.78
                             4370.95  4389.44  4452.78  4466.78  4473.95
                             4553.33  4682.79  4698.58  4716.80

 Zero-point correction=                           0.169554 (Hartree/Particle)
 Thermal correction to Energy=                    0.177832
 Thermal correction to Enthalpy=                  0.178777
 Thermal correction to Gibbs Free Energy=         0.136651
 Sum of electronic and zero-point Energies=           -420.227989
 Sum of electronic and thermal Energies=              -420.219711
 Sum of electronic and thermal Enthalpies=            -420.218766
 Sum of electronic and thermal Free Energies=         -420.260892

                     E (Thermal)             CV                S
                      KCal/Mol        Cal/Mol-Kelvin    Cal/Mol-Kelvin
 Total                  111.592             32.604             88.661
 Electronic               0.000              0.000              0.000
 Translational            0.889              2.981             40.592
 Rotational               0.889              2.981             29.132
 Vibrational            109.814             26.643             18.937
 Vibration     1          0.609              1.934              3.120
 Vibration     2          0.619              1.899              2.628
 Vibration     3          0.624              1.882              2.460
 Vibration     4          0.647              1.810              1.958
 Vibration     5          0.675              1.724              1.580
 Vibration     6          0.696              1.664              1.388
 Vibration     7          0.803              1.374              0.815
 Vibration     8          0.831              1.308              0.727
 Vibration     9          0.907              1.135              0.540
 Vibration    10          0.923              1.103              0.511
 Vibration    11          0.977              0.996              0.421

 Optimization completed.
    -- Stationary point found.

 1\1\GINC-NODE117\Freq\RB3LYP\6-31G(d)\C8H10N2\VSC10255\08-Dec-2020\0\\
 #N Geom=AllCheck Guess=TCheck SCRF=Check GenChk RB3LYP/6-31G(d) Freq\\
 CID_584286_JID_245_neutraal\\0,1\C,0.9577810567,0.0786002118,0.0563758
 407\C,0.4428632483,0.7052468856,-1.2130468517\N,0.5011185587,1.9865418
 834,-1.3418388796\C,-0.0822941681,2.5572823646,-2.5562118459\C,0.07211
 15186,1.6961158948,-3.8142925861\N,-0.356280509,0.3444818278,-3.489757
 8613\C,-0.1005330623,-0.1781019045,-2.2354629527\C,-0.4337471364,-1.52
 76522425,-2.2716411115\C,-0.8910089276,-1.8168861222,-3.5809451146\C,-

 Normal termination of Gaussian 16 at Tue Dec  8 10:23:54 2020.

 ----------------------------------------------------------------------
 # B3LYP/6-311++G(d,p) empiricaldispersion=gd3bj scf=xqc pop=npa geom=c
 heck
 ----------------------------------------------------------------------

 -----------------------------------
 CID_584286_JID_245_Energie_neutraal
 -----------------------------------
 Structure from the checkpoint file:  "JID_245.chk"
 Charge =  0 Multiplicity = 1

 SCF Done:  E(RB3LYP) =  -420.507854397     A.U. after   14 cycles
 Normal termination of Gaussian 16 at Tue Dec  8 10:25:01 2020.

 ----------------------------------------------------------------------
 # B3LYP/6-311++G(d,p) empiricaldispersion=gd3bj scf=xqc pop=npa geom=c
 heck
 ----------------------------------------------------------------------

 ---------------------------------
 CID_584286_JID_245_Energie_kation
 ---------------------------------
 Structure from the checkpoint file:  "JID_245.chk"
 Charge =  1 Multiplicity = 2

 SCF Done:  E(UB3LYP) =  -420.216855363     A.U. after   23 cycles
 Normal termination of Gaussian 16 at Tue Dec  8 10:28:24 2020.
 Gaussian 16:  ES64L-G16RevA.03 25-Dec-2016

 --------------------------------
 CID_584286_JID_245_Energie_anion
 --------------------------------
 Structure from the checkpoint file:  "JID_245.chk"
 Charge = -1 Multiplicity = 2

                         Standard orientation:
 ---------------------------------------------------------------------
 Center     Atomic      Atomic             Coordinates (Angstroms)
 Number     Number       Type             X           Y           Z
 ---------------------------------------------------------------------
      1          6           0       -1.847544   -1.992015    0.179083
      2          6           0       -1.231340   -0.627804    0.010319
      3          7           0       -2.007234    0.396860   -0.088435
      4          6           0       -1.368143    1.690623   -0.330417
      5          6           0       -0.007153    1.876707    0.348770
      6          7           0        0.808425    0.710116    0.049346
      7          6           0        0.221577   -0.538977   -0.035096
      8          6           0        1.246365   -1.474085   -0.130012
      9          6           0        2.472408   -0.765235   -0.092988
     10          6           0        2.167641    0.581660    0.034576
     11          1           0       -1.548382   -2.655526   -0.641741
     12          1           0       -2.935017   -1.899496    0.185707
     13          1           0       -1.513956   -2.460607    1.112421
     14          1           0       -1.245362    1.810514   -1.417501
     15          1           0       -2.047097    2.481972    0.003737
     16          1           0        0.496206    2.776988   -0.015962
     17          1           0       -0.130224    1.968178    1.436658
     18          1           0        1.118117   -2.542310   -0.237252
     19          1           0        3.466813   -1.183543   -0.164615
     20          1           0        2.807695    1.449752    0.106759
 ---------------------------------------------------------------------

 SCF Done:  E(UB3LYP) =  -420.493076899     A.U. after   33 cycles
 SCF Done:  E(UB3LYP) =  -420.493076899     a.u. after    1 cycles

 The electronic state is 2-A.
 Alpha  occ. eigenvalues --  -14.23229 -14.15766 -10.08916 -10.07856 -10.07171
 Alpha  occ. eigenvalues --  -10.06936 -10.06680 -10.04917 -10.03947 -10.03816
 Alpha  occ. eigenvalues --   -0.87121  -0.78425  -0.69260  -0.63402  -0.60208
 Alpha  occ. eigenvalues --   -0.58804  -0.51476  -0.46819  -0.45511  -0.41233
 Alpha  occ. eigenvalues --   -0.38063  -0.35056  -0.33034  -0.31113  -0.30871
 Alpha  occ. eigenvalues --   -0.30529  -0.28773  -0.26968  -0.26539  -0.26038
 Alpha  occ. eigenvalues --   -0.25408  -0.23889  -0.17121  -0.12627  -0.11875
 Alpha  occ. eigenvalues --   -0.09097   0.05470
 Alpha virt. eigenvalues --    0.08052   0.08111   0.08706   0.09951   0.10414
 Alpha virt. eigenvalues --    0.10910   0.11963   0.12364   0.12809   0.14046
 Alpha virt. eigenvalues --    0.15363   0.16190   0.16567   0.18057   0.18317

  Beta  occ. eigenvalues --  -14.23121 -14.15570 -10.08883 -10.07695 -10.07164
  Beta  occ. eigenvalues --  -10.06865 -10.06676 -10.04925 -10.03971 -10.03743
  Beta  occ. eigenvalues --   -0.86953  -0.78084  -0.69142  -0.63212  -0.60072
  Beta  occ. eigenvalues --   -0.58730  -0.51384  -0.46536  -0.45416  -0.41111
  Beta  occ. eigenvalues --   -0.37857  -0.34888  -0.32877  -0.31003  -0.30729
  Beta  occ. eigenvalues --   -0.30334  -0.28523  -0.26895  -0.26477  -0.25974
  Beta  occ. eigenvalues --   -0.25223  -0.23753  -0.16345  -0.12290  -0.11578
  Beta  occ. eigenvalues --   -0.08582
  Beta virt. eigenvalues --    0.07941   0.08941   0.09070   0.09483   0.10470
  Beta virt. eigenvalues --    0.10837   0.11174   0.12420   0.12653   0.13587
  Beta virt. eigenvalues --    0.14010   0.15505   0.16249   0.16645   0.17990

 Mulliken charges and spin densities:
               1          2
     1  C   -0.065849  -0.610586
     2  C    0.842040  -1.148591
     3  N   -0.175026   0.202961
     4  C   -0.036467  -0.374961
     5  C    0.514874  -0.730000
     6  N    0.014067   0.259212
     7  C    0.001021  -0.097436
     8  C   -0.878158   1.197900
     9  C    0.818614  -1.407169
    10  C    0.056953   0.094076
    11  H    0.127750   0.001460
    12  H    0.133615   0.009507
    13  H   -0.017633   0.163461
    14  H   -0.121415   0.294473
    15  H   -0.125651   0.286874
    16  H   -0.896278   1.072131
    17  H    0.147790   0.001398
    18  H   -0.070036   0.203382
    19  H   -0.195075   0.330764
    20  H   -1.075133   1.251143
 Sum of Mulliken charges =  -1.00000   1.00000

 Dipole moment (field-independent basis, Debye):
    X=             -2.6722    Y=             -5.2536    Z=              1.4461  Tot=              6.0689
 Quadrupole moment (field-independent basis, Debye-Ang):
   XX=           -103.9899   YY=           -101.8874   ZZ=            -80.5236
   XY=             -8.1170   XZ=              2.3877   YZ=              7.6706

 Summary of Natural Population Analysis:

                                       Natural Population
                Natural  -----------------------------------------------
    Atom  No    Charge         Core      Valence    Rydberg      Total
 -----------------------------------------------------------------------
      C    1   -0.29930      0.99964     2.29472    0.00494     3.29930
      C    2    0.14292      0.99955     1.84401    0.01352     2.85708
      N    3   -0.22571      0.99967     2.71491    0.01113     3.72571
      C    4   -0.10479      0.99962     2.09222    0.01296     3.10479
      C    5   -0.08603      0.99961     2.07520    0.01122     3.08603
      N    6   -0.18449      0.99962     2.67287    0.01200     3.68449
      C    7    0.03611      0.99950     1.95184    0.01255     2.96389
      C    8   -0.11949      0.99953     2.11186    0.00810     3.11949
      C    9   -0.15879      0.99958     2.14853    0.01068     3.15879
      C   10    0.00477      0.99956     1.98256    0.01311     2.99523
      H   11    0.09914      0.00000     0.39964    0.00122     0.40086
      H   12    0.10524      0.00000     0.39323    0.00153     0.39476
      H   13    0.10145      0.00000     0.39678    0.00177     0.39855
      H   14    0.09643      0.00000     0.40141    0.00216     0.40357
      H   15    0.09225      0.00000     0.40615    0.00160     0.40775
      H   16    0.10902      0.00000     0.38378    0.00720     0.39098
      H   17    0.08868      0.00000     0.41012    0.00121     0.41132
      H   18    0.10001      0.00000     0.39919    0.00080     0.39999
      H   19    0.10063      0.00000     0.39864    0.00073     0.39937
      H   20    0.10197      0.00000     0.39512    0.00291     0.39803
 =======================================================================
   * Total *    0.00000      9.99588    25.87278    0.13134    36.00000

 Normal termination of Gaussian 16 at Tue Dec  8 10:34:33 2020.
