 Gaussian 16, Revision A.03,

 -----------------------------------------------------------
 # opt freq B3LYP/6-31G(d) empiricaldispersion=gd3bj scf=xqc
 -----------------------------------------------------------

 -------------------------------
 CID_111662402_JID_9615_neutraal
 -------------------------------
 Symbolic Z-matrix:
 Charge =  0 Multiplicity = 1

 SCF Done:  E(RB3LYP) =  -878.164358259     A.U. after   15 cycles
 SCF Done:  E(RB3LYP) =  -878.172128290     A.U. after   13 cycles
 SCF Done:  E(RB3LYP) =  -878.173174556     A.U. after   13 cycles
 SCF Done:  E(RB3LYP) =  -878.174512654     A.U. after   12 cycles
 SCF Done:  E(RB3LYP) =  -878.175044461     A.U. after   12 cycles
 SCF Done:  E(RB3LYP) =  -878.175218956     A.U. after   12 cycles
 SCF Done:  E(RB3LYP) =  -878.175481114     A.U. after   11 cycles
 SCF Done:  E(RB3LYP) =  -878.175584620     A.U. after   11 cycles
 SCF Done:  E(RB3LYP) =  -878.175651081     A.U. after   11 cycles
 SCF Done:  E(RB3LYP) =  -878.175670410     A.U. after   11 cycles
 SCF Done:  E(RB3LYP) =  -878.175702933     A.U. after    8 cycles
 SCF Done:  E(RB3LYP) =  -878.175702757     A.U. after   11 cycles
 SCF Done:  E(RB3LYP) =  -878.175703203     A.U. after    9 cycles
 SCF Done:  E(RB3LYP) =  -878.175703419     A.U. after    9 cycles
 SCF Done:  E(RB3LYP) =  -878.175703315     A.U. after    9 cycles
 Optimization completed.
    -- Stationary point found.
 Normal termination of Gaussian 16 at Sat Dec 12 10:15:07 2020.

 --------------------------------------------------------------------
 #N Geom=AllCheck Guess=TCheck SCRF=Check GenChk RB3LYP/6-31G(d) Freq
 --------------------------------------------------------------------

 Structure from the checkpoint file:  "JID_9615.chk"
 -------------------------------
 CID_111662402_JID_9615_neutraal
 -------------------------------
 Charge =  0 Multiplicity = 1

 SCF Done:  E(RB3LYP) =  -878.175703315     A.U. after    1 cycles

  Exact polarizability: 203.718  13.259 157.185 -13.587  26.951 149.915
 Approx polarizability: 278.439  33.857 247.487 -19.964  63.364 240.992

                      1                      2                      3
                      A                      A                      A
 Frequencies --      7.8907                22.8929                38.6864
 Red. masses --      5.4794                 4.4661                 4.5617
 Frc consts  --      0.0002                 0.0014                 0.0040
 IR Inten    --      0.1434                 0.0253                 0.1518

                      4                      5                      6
                      A                      A                      A
 Frequencies --     41.1656                57.0837                73.5287
 Red. masses --      3.3919                 5.0349                 3.5479
 Frc consts  --      0.0034                 0.0097                 0.0113
 IR Inten    --      0.2835                 0.1143                 0.5704

                      7                      8                      9
                      A                      A                      A
 Frequencies --     98.6074               114.1816               129.1319
 Red. masses --      6.0995                 3.2516                 5.1948
 Frc consts  --      0.0349                 0.0250                 0.0510
 IR Inten    --      7.9355                 1.8382                 2.5258

                     10                     11                     12
                      A                      A                      A
 Frequencies --    149.4644               199.1778               233.3546
 Red. masses --      3.9303                 3.0914                 1.2585
 Frc consts  --      0.0517                 0.0723                 0.0404
 IR Inten    --      1.2940                 0.3418                 2.1791

                     13                     14                     15
                      A                      A                      A
 Frequencies --    235.1236               244.0284               252.5555
 Red. masses --      2.8492                 2.2596                 1.7019
 Frc consts  --      0.0928                 0.0793                 0.0640
 IR Inten    --      7.8206                12.6932                 1.9013

                     16                     17                     18
                      A                      A                      A
 Frequencies --    270.5575               297.5749               307.2168
 Red. masses --      1.2852                 2.3206                 1.7262
 Frc consts  --      0.0554                 0.1211                 0.0960
 IR Inten    --     70.4870                14.1216                25.9591

                     19                     20                     21
                      A                      A                      A
 Frequencies --    326.2848               356.5231               365.4682
 Red. masses --      1.2266                 2.3207                 2.9890
 Frc consts  --      0.0769                 0.1738                 0.2352
 IR Inten    --    173.3326                 6.9654                 4.5798

                     22                     23                     24
                      A                      A                      A
 Frequencies --    389.4786               410.2250               417.1642
 Red. masses --      4.4517                 3.0500                 2.1589
 Frc consts  --      0.3979                 0.3024                 0.2214
 IR Inten    --      3.8286                 7.5019                 4.5565

                     25                     26                     27
                      A                      A                      A
 Frequencies --    428.5228               449.8361               460.4156
 Red. masses --      4.4457                 3.8715                 2.1372
 Frc consts  --      0.4810                 0.4616                 0.2669
 IR Inten    --      1.1400                23.8648                 0.7052

                     28                     29                     30
                      A                      A                      A
 Frequencies --    485.8841               563.4431               573.2759
 Red. masses --      2.4714                 4.4354                 4.1248
 Frc consts  --      0.3438                 0.8296                 0.7987
 IR Inten    --      2.4001                18.2866                26.2403

                     31                     32                     33
                      A                      A                      A
 Frequencies --    586.2973               603.7800               614.1767
 Red. masses --      3.9796                 3.0270                 1.4440
 Frc consts  --      0.8060                 0.6502                 0.3209
 IR Inten    --      1.9236                 4.7111                92.8656

                     34                     35                     36
                      A                      A                      A
 Frequencies --    671.7933               699.7235               734.3936
 Red. masses --      4.5154                 1.0759                 5.2301
 Frc consts  --      1.2006                 0.3104                 1.6620
 IR Inten    --     31.6333                 5.9132                16.3471

                     37                     38                     39
                      A                      A                      A
 Frequencies --    737.6064               792.7600               812.6756
 Red. masses --      4.9646                 2.5769                 9.1724
 Frc consts  --      1.5914                 0.9542                 3.5692
 IR Inten    --     28.4655                 2.3210                15.0488

                     40                     41                     42
                      A                      A                      A
 Frequencies --    821.9721               856.5679               861.7111
 Red. masses --      2.3785                 1.2789                 1.9336
 Frc consts  --      0.9468                 0.5529                 0.8460
 IR Inten    --      5.2837                 7.5905                15.2719

                     43                     44                     45
                      A                      A                      A
 Frequencies --    898.9756               921.3229               927.2265
 Red. masses --      1.8676                 2.7451                 2.5524
 Frc consts  --      0.8893                 1.3729                 1.2929
 IR Inten    --      4.0448                 0.0797                14.2468

                     46                     47                     48
                      A                      A                      A
 Frequencies --    941.9550               968.1913               972.7832
 Red. masses --      1.1855                 1.4103                 1.9542
 Frc consts  --      0.6197                 0.7789                 1.0895
 IR Inten    --      3.4955                 0.3517                 2.3455

                     49                     50                     51
                      A                      A                      A
 Frequencies --    980.6556               997.7743              1031.5845
 Red. masses --      1.5025                 2.1759                 1.8192
 Frc consts  --      0.8513                 1.2763                 1.1406
 IR Inten    --      3.1405                16.1649                16.8119

                     52                     53                     54
                      A                      A                      A
 Frequencies --   1044.2835              1072.1560              1077.4933
 Red. masses --      2.5920                 2.2866                 1.8771
 Frc consts  --      1.6654                 1.5487                 1.2840
 IR Inten    --      1.0975                29.8886                44.6053

                     55                     56                     57
                      A                      A                      A
 Frequencies --   1107.2863              1121.6359              1131.9742
 Red. masses --      2.4577                 1.9401                 2.5787
 Frc consts  --      1.7754                 1.4380                 1.9468
 IR Inten    --     17.0538                13.1299                14.8992

                     58                     59                     60
                      A                      A                      A
 Frequencies --   1170.9985              1179.2810              1194.0350
 Red. masses --      1.8941                 2.3723                 2.7934
 Frc consts  --      1.5302                 1.9438                 2.3465
 IR Inten    --     14.9024                 8.5115                26.8615

                     61                     62                     63
                      A                      A                      A
 Frequencies --   1209.3277              1234.2376              1253.7646
 Red. masses --      1.7929                 1.2207                 1.3189
 Frc consts  --      1.5449                 1.0957                 1.2215
 IR Inten    --      2.8840                30.3565                 2.7458

                     64                     65                     66
                      A                      A                      A
 Frequencies --   1269.5087              1278.5078              1292.9449
 Red. masses --      1.5518                 1.8197                 3.5277
 Frc consts  --      1.4735                 1.7525                 3.4745
 IR Inten    --     32.0859                 3.5576               125.9150

                     67                     68                     69
                      A                      A                      A
 Frequencies --   1305.1366              1330.5250              1346.2876
 Red. masses --      1.2951                 1.1853                 1.2818
 Frc consts  --      1.2997                 1.2363                 1.3688
 IR Inten    --     16.0821                22.9293                 2.0850

                     70                     71                     72
                      A                      A                      A
 Frequencies --   1365.1663              1376.1197              1380.8365
 Red. masses --      1.2391                 1.7659                 1.3720
 Frc consts  --      1.3605                 1.9703                 1.5413
 IR Inten    --     15.8822                 3.0556                 0.1050

                     73                     74                     75
                      A                      A                      A
 Frequencies --   1393.0215              1398.7983              1420.2844
 Red. masses --      1.4066                 1.4767                 1.4791
 Frc consts  --      1.6082                 1.7024                 1.7579
 IR Inten    --     51.8204                19.0084                27.8522

                     76                     77                     78
                      A                      A                      A
 Frequencies --   1425.0698              1431.0515              1447.2944
 Red. masses --      1.5199                 1.2988                 1.5381
 Frc consts  --      1.8185                 1.5671                 1.8983
 IR Inten    --      5.9090                21.3115                30.4639

                     79                     80                     81
                      A                      A                      A
 Frequencies --   1450.5835              1468.8309              1478.4841
 Red. masses --      1.3273                 2.7152                 1.4700
 Frc consts  --      1.6455                 3.4513                 1.8932
 IR Inten    --      3.4823                89.3770                 1.0925

                     82                     83                     84
                      A                      A                      A
 Frequencies --   1493.2554              1505.1113              1510.2389
 Red. masses --      1.6409                 1.9370                 1.1029
 Frc consts  --      2.1557                 2.5853                 1.4822
 IR Inten    --     17.5769                46.1115                12.5783

                     85                     86                     87
                      A                      A                      A
 Frequencies --   1515.7899              1518.9810              1521.1800
 Red. masses --      1.0708                 1.3244                 1.0500
 Frc consts  --      1.4496                 1.8004                 1.4315
 IR Inten    --      0.5859               101.6765                 7.3876

                     88                     89                     90
                      A                      A                      A
 Frequencies --   1528.6253              1535.7940              1541.6075
 Red. masses --      1.0735                 1.0570                 1.0481
 Frc consts  --      1.4780                 1.4689                 1.4676
 IR Inten    --      2.1938                 4.6216                11.2928

                     91                     92                     93
                      A                      A                      A
 Frequencies --   1557.9095              1587.5843              1595.7249
 Red. masses --      1.0854                 4.8774                 3.6648
 Frc consts  --      1.5522                 7.2428                 5.4982
 IR Inten    --      9.4378                68.1249                75.6873

                     94                     95                     96
                      A                      A                      A
 Frequencies --   1655.0020              1718.5052              2993.9727
 Red. masses --      2.9112                 5.1005                 1.0580
 Frc consts  --      4.6981                 8.8750                 5.5876
 IR Inten    --    391.4029               352.0019                68.8046

                     97                     98                     99
                      A                      A                      A
 Frequencies --   3013.7739              3019.5722              3023.3579
 Red. masses --      1.0808                 1.0799                 1.0811
 Frc consts  --      5.7836                 5.8012                 5.8225
 IR Inten    --     35.7135                 9.9836                46.4864

                    100                    101                    102
                      A                      A                      A
 Frequencies --   3036.3074              3043.0129              3047.2903
 Red. masses --      1.0356                 1.0378                 1.0648
 Frc consts  --      5.6253                 5.6621                 5.8255
 IR Inten    --     38.4383                16.6439                33.2024

                    103                    104                    105
                      A                      A                      A
 Frequencies --   3054.9444              3081.5372              3084.5784
 Red. masses --      1.0987                 1.1008                 1.0856
 Frc consts  --      6.0416                 6.1586                 6.0858
 IR Inten    --     29.8578                40.5382                24.1750

                    106                    107                    108
                      A                      A                      A
 Frequencies --   3100.1207              3105.3577              3109.2415
 Red. masses --      1.1017                 1.1018                 1.1016
 Frc consts  --      6.2382                 6.2599                 6.2744
 IR Inten    --     12.1584                43.7489                66.7037

                    109                    110                    111
                      A                      A                      A
 Frequencies --   3116.4403              3118.8880              3169.0807
 Red. masses --      1.0746                 1.0891                 1.0888
 Frc consts  --      6.1491                 6.2422                 6.4425
 IR Inten    --     42.7968                29.7427                20.6123

                    112                    113                    114
                      A                      A                      A
 Frequencies --   3174.4176              3199.1083              3503.8856
 Red. masses --      1.1031                 1.0950                 1.0514
 Frc consts  --      6.5496                 6.6028                 7.6052
 IR Inten    --     13.8424                33.3418               133.6711

                    115                    116                    117
                      A                      A                      A
 Frequencies --   3595.6727              3689.8981              3753.9109
 Red. masses --      1.0754                 1.0991                 1.0664
 Frc consts  --      8.1918                 8.8170                 8.8542
 IR Inten    --     30.1553                99.0880                14.1949

 - Thermochemistry -
 -------------------
 Temperature   298.150 Kelvin.  Pressure   1.00000 Atm.
 Atom     1 has atomic number  6 and mass  12.00000

 Molecular mass:   266.17428 amu.
 Principal axes and moments of inertia in atomic units:
                           1         2         3
     Eigenvalues --  3350.180888921.948129598.86489
           X            0.99993  -0.01006   0.00599
           Y            0.01025   0.99943  -0.03223
           Z           -0.00566   0.03229   0.99946
 This molecule is an asymmetric top.
 Rotational symmetry number  1.
 Warning -- assumption of classical behavior for rotation
           may cause significant error
 Rotational temperatures (Kelvin)      0.02585     0.00971     0.00902
 Rotational constants (GHZ):           0.53870     0.20228     0.18802
 Zero-point vibrational energy     932532.6 (Joules/Mol)
                                  222.88064 (Kcal/Mol)
 Warning -- explicit consideration of  33 degrees of freedom as
           vibrations may cause significant error
 Vibrational temperatures:     11.35    32.94    55.66    59.23    82.13
          (Kelvin)            105.79   141.87   164.28   185.79   215.05
                              286.57   335.75   338.29   351.10   363.37
                              389.27   428.14   442.02   469.45   512.96
                              525.83   560.37   590.22   600.21   616.55
                              647.21   662.44   699.08   810.67   824.82
                              843.55   868.70   883.66   966.56  1006.75
                             1056.63  1061.25  1140.60  1169.26  1182.63
                             1232.41  1239.81  1293.43  1325.58  1334.07
                             1355.26  1393.01  1399.62  1410.94  1435.57
                             1484.22  1502.49  1542.59  1550.27  1593.14
                             1613.78  1628.66  1684.81  1696.72  1717.95
                             1739.95  1775.79  1803.89  1826.54  1839.49
                             1860.26  1877.80  1914.33  1937.01  1964.17
                             1979.93  1986.72  2004.25  2012.56  2043.47
                             2050.36  2058.96  2082.33  2087.07  2113.32
                             2127.21  2148.46  2165.52  2172.90  2180.88
                             2185.47  2188.64  2199.35  2209.67  2218.03
                             2241.48  2284.18  2295.89  2381.18  2472.55
                             4307.66  4336.15  4344.49  4349.94  4368.57
                             4378.22  4384.37  4395.38  4433.64  4438.02
                             4460.38  4467.92  4473.51  4483.86  4487.38
                             4559.60  4567.28  4602.80  5041.31  5173.37
                             5308.94  5401.04

 Zero-point correction=                           0.355183 (Hartree/Particle)
 Thermal correction to Energy=                    0.375283
 Thermal correction to Enthalpy=                  0.376227
 Thermal correction to Gibbs Free Energy=         0.303658
 Sum of electronic and zero-point Energies=           -877.820520
 Sum of electronic and thermal Energies=              -877.800420
 Sum of electronic and thermal Enthalpies=            -877.799476
 Sum of electronic and thermal Free Energies=         -877.872045

                     E (Thermal)             CV                S
                      KCal/Mol        Cal/Mol-Kelvin    Cal/Mol-Kelvin
 Total                  235.494             75.321            152.735
 Electronic               0.000              0.000              0.000
 Translational            0.889              2.981             42.636
 Rotational               0.889              2.981             34.017
 Vibrational            233.716             69.359             76.082
 Vibration     1          0.593              1.987              8.482
 Vibration     2          0.593              1.985              6.366
 Vibration     3          0.594              1.981              5.325
 Vibration     4          0.594              1.981              5.202
 Vibration     5          0.596              1.975              4.556
 Vibration     6          0.599              1.966              4.057
 Vibration     7          0.604              1.950              3.482
 Vibration     8          0.607              1.938              3.197
 Vibration     9          0.612              1.924              2.959
 Vibration    10          0.618              1.903              2.679
 Vibration    11          0.637              1.841              2.141
 Vibration    12          0.654              1.790              1.853
 Vibration    13          0.655              1.787              1.839
 Vibration    14          0.659              1.773              1.773
 Vibration    15          0.664              1.758              1.713
 Vibration    16          0.674              1.727              1.593
 Vibration    17          0.691              1.678              1.431
 Vibration    18          0.697              1.660              1.377
 Vibration    19          0.710              1.623              1.278
 Vibration    20          0.732              1.562              1.137
 Vibration    21          0.739              1.543              1.099
 Vibration    22          0.757              1.493              1.002
 Vibration    23          0.774              1.448              0.926
 Vibration    24          0.780              1.433              0.902
 Vibration    25          0.790              1.408              0.863
 Vibration    26          0.809              1.361              0.796
 Vibration    27          0.818              1.338              0.765
 Vibration    28          0.842              1.281              0.694
 Vibration    29          0.919              1.110              0.517
 Vibration    30          0.930              1.089              0.498
 Vibration    31          0.943              1.061              0.474
 Vibration    32          0.962              1.024              0.443
 Vibration    33          0.974              1.002              0.426

 Optimization completed.
    -- Stationary point found.
 Normal termination of Gaussian 16 at Sat Dec 12 10:35:08 2020.

 ----------------------------------------------------------------------
 # B3LYP/6-311++G(d,p) empiricaldispersion=gd3bj scf=xqc pop=npa geom=c
 heck
 ----------------------------------------------------------------------

 ---------------------------------------
 CID_111662402_JID_9615_Energie_neutraal
 ---------------------------------------
 Structure from the checkpoint file:  "JID_9615.chk"
 Charge =  0 Multiplicity = 1

 SCF Done:  E(RB3LYP) =  -878.439144988     A.U. after   16 cycles
 Normal termination of Gaussian 16 at Sat Dec 12 10:44:00 2020.

 ----------------------------------------------------------------------
 # B3LYP/6-311++G(d,p) empiricaldispersion=gd3bj scf=xqc pop=npa geom=c
 heck
 ----------------------------------------------------------------------

 -------------------------------------
 CID_111662402_JID_9615_Energie_kation
 -------------------------------------
 Structure from the checkpoint file:  "JID_9615.chk"
 Charge =  1 Multiplicity = 2

 SCF Done:  E(UB3LYP) =  -878.144269092     A.U. after   28 cycles
 Normal termination of Gaussian 16 at Sat Dec 12 11:05:32 2020.
 Gaussian 16:  ES64L-G16RevA.03 25-Dec-2016

 ----------------------------------------------------------------------
 # B3LYP/6-311++G(d,p) empiricaldispersion=gd3bj scf=xqc pop=npa geom=c
 heck
 ----------------------------------------------------------------------

 ------------------------------------
 CID_111662402_JID_9615_Energie_anion
 ------------------------------------
 Structure from the checkpoint file:  "JID_9615.chk"
 Charge = -1 Multiplicity = 2

                         Standard orientation:
 ---------------------------------------------------------------------
 Center     Atomic      Atomic             Coordinates (Angstroms)
 Number     Number       Type             X           Y           Z
 ---------------------------------------------------------------------
      1          6           0        2.203224   -1.838900    2.070162
      2          6           0        3.139952   -1.366350    0.951086
      3          6           0        4.072780   -2.502222    0.512602
      4          6           0        2.364509   -0.823092   -0.262215
      5          6           0        1.424360    0.360883    0.009920
      6          6           0        2.133286    1.594487    0.604970
      7          6           0        3.384163    2.080095   -0.116104
      8          8           0        3.042334    2.460687   -1.448527
      9          6           0        0.620981    0.728322   -1.253015
     10          7           0       -0.281341   -0.337245   -1.691286
     11          6           0       -1.520563   -0.734910   -1.293075
     12          8           0       -2.034936   -1.723527   -1.848557
     13          6           0       -2.266469    0.004442   -0.227583
     14          7           0       -1.652724    0.962716    0.467841
     15          6           0       -2.324025    1.602633    1.425246
     16          6           0       -3.652131    1.271726    1.700851
     17          7           0       -4.304797    0.321721    1.041565
     18          6           0       -3.633538   -0.332407    0.067021
     19          7           0       -4.313668   -1.283136   -0.601611
     20          1           0        1.519321   -2.613664    1.700179
     21          1           0        1.593463   -1.021882    2.469611
     22          1           0        2.773046   -2.266526    2.903212
     23          1           0        3.768260   -0.559131    1.355031
     24          1           0        3.495936   -3.344598    0.109676
     25          1           0        4.765747   -2.169347   -0.269356
     26          1           0        4.667205   -2.877643    1.353691
     27          1           0        3.080698   -0.540403   -1.047204
     28          1           0        1.768057   -1.647744   -0.677505
     29          1           0        0.677684    0.052638    0.748636
     30          1           0        1.414627    2.422231    0.657164
     31          1           0        2.426145    1.374949    1.639896
     32          1           0        3.805177    2.935323    0.436187
     33          1           0        4.149145    1.288627   -0.122725
     34          1           0        3.852708    2.750589   -1.893296
     35          1           0        0.044024    1.633155   -1.070874
     36          1           0        1.299895    0.929555   -2.084097
     37          1           0        0.069378   -0.965867   -2.403148
     38          1           0       -1.798802    2.377441    1.976768
     39          1           0       -4.204661    1.788407    2.484276
     40          1           0       -5.244266   -1.506540   -0.282375
     41          1           0       -3.793438   -1.853476   -1.261836
 ---------------------------------------------------------------------

 SCF Done:  E(UB3LYP) =  -878.450083179     A.U. after   33 cycles
 SCF Done:  E(UB3LYP) =  -878.450083456     a.u. after    2 cycles

 The electronic state is 2-A.
 Alpha  occ. eigenvalues --  -19.02929 -18.94735 -14.20148 -14.19059 -14.15943
 Alpha  occ. eigenvalues --  -14.15796 -10.13087 -10.12105 -10.11461 -10.08445
 Alpha  occ. eigenvalues --  -10.07629 -10.07550 -10.06917 -10.06626 -10.06194
 Alpha  occ. eigenvalues --  -10.05954 -10.05848 -10.05807 -10.05678  -0.92897
 Alpha  occ. eigenvalues --   -0.90162  -0.84205  -0.79639  -0.78027  -0.74239
 Alpha  occ. eigenvalues --   -0.72602  -0.68500  -0.62569  -0.61809  -0.59861
 Alpha  occ. eigenvalues --   -0.57760  -0.53940  -0.52960  -0.50526  -0.48446
 Alpha  occ. eigenvalues --   -0.46431  -0.43957  -0.42980  -0.40786  -0.39562
 Alpha  occ. eigenvalues --   -0.39148  -0.37627  -0.36860  -0.36124  -0.35283
 Alpha  occ. eigenvalues --   -0.34118  -0.33462  -0.31979  -0.31330  -0.31032
 Alpha  occ. eigenvalues --   -0.30191  -0.29812  -0.29490  -0.28230  -0.27983
 Alpha  occ. eigenvalues --   -0.27321  -0.26636  -0.25954  -0.25331  -0.24683
 Alpha  occ. eigenvalues --   -0.24089  -0.22117  -0.21800  -0.21717  -0.20267
 Alpha  occ. eigenvalues --   -0.18347  -0.17130  -0.15968  -0.13414  -0.12711
 Alpha  occ. eigenvalues --   -0.10383  -0.08907   0.03585
 Alpha virt. eigenvalues --    0.04886   0.06571   0.07681   0.08574   0.09058
 Alpha virt. eigenvalues --    0.09487   0.09849   0.09913   0.10611   0.11155
 Alpha virt. eigenvalues --    0.11862   0.11904   0.12249   0.12849   0.13172

  Beta  occ. eigenvalues --  -19.02901 -18.94554 -14.20108 -14.19072 -14.15655
  Beta  occ. eigenvalues --  -14.15273 -10.12972 -10.12087 -10.11512 -10.08443
  Beta  occ. eigenvalues --  -10.07631 -10.07546 -10.06916 -10.06626 -10.06189
  Beta  occ. eigenvalues --  -10.05841 -10.05798 -10.05791 -10.05541  -0.92834
  Beta  occ. eigenvalues --   -0.89855  -0.83839  -0.79375  -0.77761  -0.73649
  Beta  occ. eigenvalues --   -0.72588  -0.68476  -0.62466  -0.61538  -0.59854
  Beta  occ. eigenvalues --   -0.57726  -0.53632  -0.52559  -0.50388  -0.48427
  Beta  occ. eigenvalues --   -0.46313  -0.43915  -0.42901  -0.40609  -0.39508
  Beta  occ. eigenvalues --   -0.39000  -0.37516  -0.36710  -0.36104  -0.35231
  Beta  occ. eigenvalues --   -0.34033  -0.33401  -0.31807  -0.31188  -0.30885
  Beta  occ. eigenvalues --   -0.30127  -0.29465  -0.29216  -0.28097  -0.27829
  Beta  occ. eigenvalues --   -0.27170  -0.26476  -0.25587  -0.25177  -0.24529
  Beta  occ. eigenvalues --   -0.24071  -0.22093  -0.21641  -0.20956  -0.20019
  Beta  occ. eigenvalues --   -0.18315  -0.15520  -0.15292  -0.13174  -0.12128
  Beta  occ. eigenvalues --   -0.09922  -0.08194
  Beta virt. eigenvalues --    0.05610   0.06780   0.07696   0.08618   0.09040
  Beta virt. eigenvalues --    0.09236   0.09537   0.09834   0.09892   0.10573
  Beta virt. eigenvalues --    0.11123   0.11884   0.12116   0.12387   0.12755

 Mulliken charges and spin densities:
               1          2
     1  C   -0.577962  -0.087581
     2  C    0.214775   0.229583
     3  C   -0.521177  -0.174187
     4  C   -1.249556  -0.202700
     5  C    1.615575  -0.247843
     6  C   -1.079296   0.746391
     7  C    0.538158  -1.087855
     8  O   -0.266450   0.027948
     9  C   -0.551666   0.035171
    10  N   -0.262758   0.019388
    11  C   -0.238603   0.035034
    12  O   -0.440344   0.060832
    13  C   -0.001193   0.146587
    14  N    0.049036   0.246310
    15  C    0.179940  -0.051658
    16  C   -0.430378   0.205027
    17  N   -0.228522   0.114192
    18  C   -0.208873  -0.034706
    19  N   -0.392983  -0.000665
    20  H    0.139248   0.008810
    21  H    0.155248  -0.007092
    22  H    0.133224   0.008406
    23  H    0.112561   0.017073
    24  H    0.125255   0.008754
    25  H    0.057287   0.070275
    26  H    0.090426   0.037452
    27  H    0.160061   0.003611
    28  H    0.153738   0.007733
    29  H    0.112916   0.049483
    30  H    0.221103  -0.017622
    31  H    0.079294   0.038445
    32  H   -0.124728   0.273842
    33  H   -0.115882   0.275429
    34  H   -0.023928   0.280592
    35  H    0.228526  -0.002333
    36  H    0.240421  -0.026861
    37  H    0.288807   0.003986
    38  H    0.110819   0.010792
    39  H    0.130169  -0.018255
    40  H    0.258331  -0.001466
    41  H    0.319385  -0.000319
 Sum of Mulliken charges =  -1.00000   1.00000

 Dipole moment (field-independent basis, Debye):
    X=              4.6852    Y=             -1.9439    Z=              1.7928  Tot=              5.3799
 Quadrupole moment (field-independent basis, Debye-Ang):
   XX=           -183.8670   YY=           -143.4433   ZZ=           -137.3187
   XY=             -6.3329   XZ=              6.9055   YZ=              0.5792

 Summary of Natural Population Analysis:

                                       Natural Population
                Natural  -----------------------------------------------
    Atom  No    Charge         Core      Valence    Rydberg      Total
 -----------------------------------------------------------------------
      C    1   -0.28561      0.99966     2.28115    0.00481     3.28561
      C    2   -0.11625      0.99962     2.10813    0.00850     3.11625
      C    3   -0.28117      0.99966     2.27682    0.00469     3.28117
      C    4   -0.19305      0.99960     2.18240    0.01105     3.19305
      C    5   -0.12187      0.99958     2.11114    0.01115     3.12187
      C    6   -0.19858      0.99961     2.18878    0.01020     3.19858
      C    7   -0.01163      0.99959     1.99940    0.01264     3.01163
      O    8   -0.37287      0.99989     3.36617    0.00681     4.37287
      C    9   -0.08756      0.99958     2.07465    0.01332     3.08756
      N   10   -0.31092      0.99967     2.80041    0.01084     3.81092
      C   11    0.34659      0.99963     1.63369    0.02009     2.65341
      O   12   -0.34662      0.99987     3.34034    0.00641     4.34662
      C   13    0.03439      0.99948     1.95288    0.01325     2.96561
      N   14   -0.14980      0.99968     2.63984    0.01028     3.64980
      C   15   -0.05074      0.99960     2.03722    0.01392     3.05074
      C   16    0.06188      0.99961     1.92429    0.01422     2.93812
      N   17   -0.23107      0.99968     2.71627    0.01512     3.73107
      C   18    0.19140      0.99957     1.79166    0.01737     2.80860
      N   19   -0.39986      0.99968     2.89158    0.00859     3.89986
      H   20    0.09867      0.00000     0.40050    0.00082     0.40133
      H   21    0.10311      0.00000     0.39618    0.00071     0.39689
      H   22    0.09354      0.00000     0.40562    0.00083     0.40646
      H   23    0.08896      0.00000     0.40874    0.00230     0.41104
      H   24    0.09555      0.00000     0.40353    0.00092     0.40445
      H   25    0.09801      0.00000     0.40118    0.00081     0.40199
      H   26    0.09456      0.00000     0.40469    0.00076     0.40544
      H   27    0.09572      0.00000     0.40330    0.00098     0.40428
      H   28    0.10069      0.00000     0.39797    0.00135     0.39931
      H   29    0.11296      0.00000     0.38502    0.00202     0.38704
      H   30    0.10514      0.00000     0.39379    0.00107     0.39486
      H   31    0.09766      0.00000     0.40146    0.00088     0.40234
      H   32    0.07523      0.00000     0.42355    0.00122     0.42477
      H   33    0.07456      0.00000     0.42383    0.00161     0.42544
      H   34    0.22989      0.00000     0.26573    0.00437     0.27011
      H   35    0.11203      0.00000     0.38684    0.00113     0.38797
      H   36    0.09903      0.00000     0.39974    0.00123     0.40097
      H   37    0.18683      0.00000     0.31155    0.00161     0.31317
      H   38    0.08208      0.00000     0.41661    0.00131     0.41792
      H   39    0.07718      0.00000     0.42114    0.00169     0.42282
      H   40    0.18681      0.00000     0.31150    0.00169     0.31319
      H   41    0.21513      0.00000     0.28349    0.00138     0.28487
 =======================================================================
   * Total *   -0.00000     18.99327    52.76277    0.24396    72.00000

 Normal termination of Gaussian 16 at Sat Dec 12 11:49:22 2020.
