 Gaussian 16, Revision A.03,

 -----------------------------------------------------------
 # opt freq B3LYP/6-31G(d) empiricaldispersion=gd3bj scf=xqc
 -----------------------------------------------------------

 ------------------------------
 CID_91163752_JID_1199_neutraal
 ------------------------------
 Symbolic Z-matrix:
 Charge =  0 Multiplicity = 1

 SCF Done:  E(RB3LYP) =  -561.041829898     A.U. after   16 cycles
 SCF Done:  E(RB3LYP) =  -561.088691016     A.U. after   15 cycles
 SCF Done:  E(RB3LYP) =  -561.091647997     A.U. after   14 cycles
 SCF Done:  E(RB3LYP) =  -561.091554031     A.U. after   15 cycles
 SCF Done:  E(RB3LYP) =  -561.091504433     A.U. after   14 cycles
 SCF Done:  E(RB3LYP) =  -561.090253829     A.U. after   14 cycles
 SCF Done:  E(RB3LYP) =  -561.091932925     A.U. after   11 cycles
 SCF Done:  E(RB3LYP) =  -561.093360020     A.U. after   14 cycles
 SCF Done:  E(RB3LYP) =  -561.093399535     A.U. after   12 cycles
 SCF Done:  E(RB3LYP) =  -561.093404367     A.U. after   10 cycles
 SCF Done:  E(RB3LYP) =  -561.093404507     A.U. after    9 cycles
 SCF Done:  E(RB3LYP) =  -561.093404611     A.U. after   10 cycles
 SCF Done:  E(RB3LYP) =  -561.093405324     A.U. after    9 cycles
 Optimization completed.
    -- Stationary point found.
 Normal termination of Gaussian 16 at Tue Dec  8 19:14:10 2020.

 --------------------------------------------------------------------
 #N Geom=AllCheck Guess=TCheck SCRF=Check GenChk RB3LYP/6-31G(d) Freq
 --------------------------------------------------------------------

 Structure from the checkpoint file:  "JID_1199.chk"
 ------------------------------
 CID_91163752_JID_1199_neutraal
 ------------------------------
 Charge =  0 Multiplicity = 1

 SCF Done:  E(RB3LYP) =  -561.093405324     A.U. after    1 cycles

  Exact polarizability: 123.265  14.985  98.128  -0.000  -0.000  31.693
 Approx polarizability: 230.477  59.267 171.285  -0.000  -0.001  48.556

                      1                      2                      3
                      A                      A                      A
 Frequencies --     18.2614                64.0322               121.5136
 Red. masses --     12.7969                 9.3389                13.1066
 Frc consts  --      0.0025                 0.0226                 0.1140
 IR Inten    --      1.8827                 3.1267                 5.3187

                      4                      5                      6
                      A                      A                      A
 Frequencies --    143.2252               163.0755               184.3773
 Red. masses --     11.4480                11.5668                 7.9548
 Frc consts  --      0.1384                 0.1812                 0.1593
 IR Inten    --      7.3660                 0.3877                 0.2030

                      7                      8                      9
                      A                      A                      A
 Frequencies --    220.1082               300.7847               314.4072
 Red. masses --      7.1956                 7.9134                 9.3567
 Frc consts  --      0.2054                 0.4218                 0.5449
 IR Inten    --      0.1830                 0.0956                 0.0522

                     10                     11                     12
                      A                      A                      A
 Frequencies --    412.4538               437.1440               498.3762
 Red. masses --     13.1503                 9.2041                 9.2482
 Frc consts  --      1.3181                 1.0363                 1.3534
 IR Inten    --      4.1718                 9.2037                12.9953

                     13                     14                     15
                      A                      A                      A
 Frequencies --    512.5114               526.5312               583.0912
 Red. masses --     12.1601                 3.5351                 2.7414
 Frc consts  --      1.8819                 0.5774                 0.5492
 IR Inten    --      1.3129                28.1177                 3.1886

                     16                     17                     18
                      A                      A                      A
 Frequencies --    645.0414               686.4176               732.3119
 Red. masses --      1.8446                 4.5580                 6.4179
 Frc consts  --      0.4522                 1.2653                 2.0279
 IR Inten    --    122.8599                61.3214                14.2798

                     19                     20                     21
                      A                      A                      A
 Frequencies --    787.7874               963.5301               969.8903
 Red. masses --      9.2962                 8.5049                 1.3887
 Frc consts  --      3.3992                 4.6521                 0.7697
 IR Inten    --     11.7865                 5.9360                44.4924

                     22                     23                     24
                      A                      A                      A
 Frequencies --   1104.9148              1164.5407              1252.0618
 Red. masses --      9.9773                 4.7111                 2.5190
 Frc consts  --      7.1767                 3.7642                 2.3266
 IR Inten    --     95.4396               130.3503                35.8027

                     25                     26                     27
                      A                      A                      A
 Frequencies --   1411.8957              1494.2131              1614.2857
 Red. masses --      3.5232                 1.3082                13.0212
 Frc consts  --      4.1381                 1.7209                19.9922
 IR Inten    --     87.9103                42.7976                 5.3634

                     28                     29                     30
                      A                      A                      A
 Frequencies --   1654.8907              1831.4423              2348.7271
 Red. masses --      9.5279                11.1034                12.6892
 Frc consts  --     15.3740                21.9429                41.2428
 IR Inten    --      2.8050               270.0616                 0.3852

                     31                     32                     33
                      A                      A                      A
 Frequencies --   2362.8459              3313.1625              3689.9526
 Red. masses --     12.6756                 1.0749                 1.0643
 Frc consts  --     41.6957                 6.9520                 8.5381
 IR Inten    --      7.5823                 1.4348               110.7902

 - Thermochemistry -
 -------------------
 Temperature   298.150 Kelvin.  Pressure   1.00000 Atm.
 Atom     1 has atomic number  6 and mass  12.00000

 Molecular mass:   150.01778 amu.
 Principal axes and moments of inertia in atomic units:
                           1         2         3
     Eigenvalues --  1221.855771713.025302934.88107
           X            0.99665  -0.08179  -0.00000
           Y            0.08179   0.99665   0.00000
           Z            0.00000  -0.00000   1.00000
 This molecule is an asymmetric top.
 Rotational symmetry number  1.
 Warning -- assumption of classical behavior for rotation
           may cause significant error
 Rotational temperatures (Kelvin)      0.07089     0.05056     0.02951
 Rotational constants (GHZ):           1.47705     1.05354     0.61493
 Zero-point vibrational energy     194559.5 (Joules/Mol)
                                   46.50083 (Kcal/Mol)
 Warning -- explicit consideration of  15 degrees of freedom as
           vibrations may cause significant error
 Vibrational temperatures:     26.27    92.13   174.83   206.07   234.63
          (Kelvin)            265.28   316.69   432.76   452.36   593.43
                              628.95   717.05   737.39   757.56   838.94
                              928.07   987.60  1053.63  1133.45  1386.30
                             1395.46  1589.73  1675.51  1801.44  2031.40
                             2149.84  2322.60  2381.02  2635.04  3379.29
                             3399.61  4766.90  5309.02

 Zero-point correction=                           0.074104 (Hartree/Particle)
 Thermal correction to Energy=                    0.084538
 Thermal correction to Enthalpy=                  0.085482
 Thermal correction to Gibbs Free Energy=         0.036391
 Sum of electronic and zero-point Energies=           -561.019302
 Sum of electronic and thermal Energies=              -561.008867
 Sum of electronic and thermal Enthalpies=            -561.007923
 Sum of electronic and thermal Free Energies=         -561.057014

                     E (Thermal)             CV                S
                      KCal/Mol        Cal/Mol-Kelvin    Cal/Mol-Kelvin
 Total                   53.048             35.247            103.320
 Electronic               0.000              0.000              0.000
 Translational            0.889              2.981             40.927
 Rotational               0.889              2.981             30.197
 Vibrational             51.271             29.285             32.196
 Vibration     1          0.593              1.986              6.815
 Vibration     2          0.597              1.971              4.329
 Vibration     3          0.609              1.931              3.076
 Vibration     4          0.616              1.910              2.760
 Vibration     5          0.623              1.888              2.514
 Vibration     6          0.631              1.861              2.284
 Vibration     7          0.647              1.810              1.958
 Vibration     8          0.693              1.672              1.413
 Vibration     9          0.702              1.646              1.339
 Vibration    10          0.776              1.443              0.918
 Vibration    11          0.797              1.389              0.836
 Vibration    12          0.854              1.254              0.662
 Vibration    13          0.868              1.222              0.628
 Vibration    14          0.881              1.191              0.595
 Vibration    15          0.940              1.068              0.480

 Optimization completed.
    -- Stationary point found.
 Normal termination of Gaussian 16 at Tue Dec  8 19:16:17 2020.

 ----------------------------------------------------------------------
 # B3LYP/6-311++G(d,p) empiricaldispersion=gd3bj scf=xqc pop=npa geom=c
 heck
 ----------------------------------------------------------------------

 --------------------------------------
 CID_91163752_JID_1199_Energie_neutraal
 --------------------------------------
 Structure from the checkpoint file:  "JID_1199.chk"
 Charge =  0 Multiplicity = 1

 SCF Done:  E(RB3LYP) =  -561.261955379     A.U. after   16 cycles
 Normal termination of Gaussian 16 at Tue Dec  8 19:17:07 2020.

 ----------------------------------------------------------------------
 # B3LYP/6-311++G(d,p) empiricaldispersion=gd3bj scf=xqc pop=npa geom=c
 heck
 ----------------------------------------------------------------------

 ------------------------------------
 CID_91163752_JID_1199_Energie_kation
 ------------------------------------
 Structure from the checkpoint file:  "JID_1199.chk"
 Charge =  1 Multiplicity = 2

 SCF Done:  E(UB3LYP) =  -560.877225065     A.U. after   33 cycles
 SCF Done:  E(UB3LYP) =  -560.877225065     a.u. after    1 cycles
 Normal termination of Gaussian 16 at Tue Dec  8 19:19:29 2020.
 Gaussian 16:  ES64L-G16RevA.03 25-Dec-2016

 ----------------------------------------------------------------------
 # B3LYP/6-311++G(d,p) empiricaldispersion=gd3bj scf=xqc pop=npa geom=c
 heck
 ----------------------------------------------------------------------

 -----------------------------------
 CID_91163752_JID_1199_Energie_anion
 -----------------------------------
 Structure from the checkpoint file:  "JID_1199.chk"
 Charge = -1 Multiplicity = 2

                         Standard orientation:
 ---------------------------------------------------------------------
 Center     Atomic      Atomic             Coordinates (Angstroms)
 Number     Number       Type             X           Y           Z
 ---------------------------------------------------------------------
      1          6           0        1.011771    1.660842    0.000019
      2          7           0        1.448086    2.737795   -0.000022
      3          6           0        0.531939    0.313904    0.000017
      4          6           0       -0.810992    0.078513    0.000005
      5          6           0       -1.428032   -1.212332    0.000002
      6          7           0       -2.016496   -2.214156    0.000001
      7          7           0       -1.642905    1.245576    0.000002
      8          7           0       -2.865005    0.984245   -0.000007
      9          6           0        1.617430   -0.723671    0.000031
     10          8           0        2.790930   -0.434961   -0.000005
     11          8           0        1.139129   -1.977400   -0.000019
     12          1           0       -3.347753    1.898852   -0.000022
     13          1           0        1.908822   -2.577714   -0.000047
 ---------------------------------------------------------------------

 SCF Done:  E(UB3LYP) =  -561.363279411     A.U. after   21 cycles

 The electronic state is 2-A.
 Alpha  occ. eigenvalues --  -19.05718 -18.98563 -14.23143 -14.20452 -14.17824
 Alpha  occ. eigenvalues --  -14.16780 -10.18308 -10.09876 -10.07874 -10.07754
 Alpha  occ. eigenvalues --  -10.07188  -0.99737  -0.90461  -0.89968  -0.77542
 Alpha  occ. eigenvalues --   -0.76774  -0.70748  -0.60427  -0.53095  -0.50978
 Alpha  occ. eigenvalues --   -0.42739  -0.38134  -0.36640  -0.34355  -0.34234
 Alpha  occ. eigenvalues --   -0.30004  -0.29825  -0.28342  -0.24153  -0.23654
 Alpha  occ. eigenvalues --   -0.23100  -0.22595  -0.21035  -0.20425  -0.19328
 Alpha  occ. eigenvalues --   -0.16624  -0.15089  -0.10770  -0.03287
 Alpha virt. eigenvalues --    0.08633   0.08772   0.10404   0.13520   0.14074
 Alpha virt. eigenvalues --    0.14199   0.14661   0.15664   0.16257   0.16813
 Alpha virt. eigenvalues --    0.17437   0.19086   0.19603   0.19643   0.20011

  Beta  occ. eigenvalues --  -19.05691 -18.98315 -14.23188 -14.19811 -14.17641
  Beta  occ. eigenvalues --  -14.16572 -10.18267 -10.09523 -10.07934 -10.07382
  Beta  occ. eigenvalues --  -10.07255  -0.99585  -0.90115  -0.89316  -0.77230
  Beta  occ. eigenvalues --   -0.76448  -0.69869  -0.59367  -0.52736  -0.50521
  Beta  occ. eigenvalues --   -0.42395  -0.37894  -0.36371  -0.33868  -0.33510
  Beta  occ. eigenvalues --   -0.29679  -0.28169  -0.28046  -0.23848  -0.22775
  Beta  occ. eigenvalues --   -0.22446  -0.21586  -0.20321  -0.20119  -0.19169
  Beta  occ. eigenvalues --   -0.16342  -0.12562  -0.10333
  Beta virt. eigenvalues --    0.03751   0.08787   0.10442   0.10626   0.14103
  Beta virt. eigenvalues --    0.14244   0.14693   0.14712   0.15801   0.16283
  Beta virt. eigenvalues --    0.16894   0.17462   0.19109   0.19614   0.19754

 Mulliken charges and spin densities:
               1          2
     1  C   -0.789247  -0.061137
     2  N   -0.331598   0.106281
     3  C    0.674005   0.323393
     4  C    0.860232   0.189521
     5  C   -0.953345  -0.040450
     6  N   -0.294831   0.093820
     7  N   -0.197101  -0.047787
     8  N   -0.139048   0.334442
     9  C    0.199397   0.020680
    10  O   -0.357800   0.089710
    11  O   -0.179686   0.004574
    12  H    0.214571  -0.011532
    13  H    0.294452  -0.001516
 Sum of Mulliken charges =  -1.00000   1.00000

 Dipole moment (field-independent basis, Debye):
    X=              0.5467    Y=             -2.3458    Z=              0.0000  Tot=              2.4087
 Quadrupole moment (field-independent basis, Debye-Ang):
   XX=            -93.4766   YY=            -86.6687   ZZ=            -64.1589
   XY=            -20.4808   XZ=              0.0001   YZ=              0.0002

 Summary of Natural Population Analysis:

                                       Natural Population
                Natural  -----------------------------------------------
    Atom  No    Charge         Core      Valence    Rydberg      Total
 -----------------------------------------------------------------------
      C    1    0.14511      0.99964     1.83631    0.01893     2.85489
      N    2   -0.15346      0.99978     2.64275    0.01093     3.65346
      C    3   -0.04242      0.99933     2.03050    0.01259     3.04242
      C    4    0.09648      0.99936     1.88900    0.01516     2.90352
      C    5    0.13102      0.99962     1.84781    0.02154     2.86898
      N    6   -0.14699      0.99978     2.63583    0.01137     3.64699
      N    7   -0.12114      0.99976     2.60266    0.01872     3.62114
      N    8   -0.06243      0.99978     2.54780    0.01485     3.56243
      C    9    0.40013      0.99970     1.57655    0.02362     2.59987
      O   10   -0.28138      0.99987     3.27449    0.00702     4.28138
      O   11   -0.33966      0.99987     3.33168    0.00810     4.33966
      H   12    0.13878      0.00000     0.35859    0.00263     0.36122
      H   13    0.23594      0.00000     0.26163    0.00243     0.26406
 =======================================================================
   * Total *   -0.00000     10.99650    26.83559    0.16791    38.00000

 Normal termination of Gaussian 16 at Tue Dec  8 19:21:05 2020.
