 Gaussian 16, Revision A.03,

 -----------------------------------------------------------
 # opt freq B3LYP/6-31G(d) empiricaldispersion=gd3bj scf=xqc
 -----------------------------------------------------------

 -------------------------------
 CID_104461028_JID_6436_neutraal
 -------------------------------
 Symbolic Z-matrix:
 Charge =  0 Multiplicity = 1

 SCF Done:  E(RB3LYP) =  -1393.86766863     A.U. after   15 cycles
 SCF Done:  E(RB3LYP) =  -1393.87671330     A.U. after   12 cycles
 SCF Done:  E(RB3LYP) =  -1393.87784717     A.U. after   12 cycles
 SCF Done:  E(RB3LYP) =  -1393.87813969     A.U. after   12 cycles
 SCF Done:  E(RB3LYP) =  -1393.87819077     A.U. after   11 cycles
 SCF Done:  E(RB3LYP) =  -1393.87821432     A.U. after   10 cycles
 SCF Done:  E(RB3LYP) =  -1393.87821868     A.U. after   10 cycles
 SCF Done:  E(RB3LYP) =  -1393.87822000     A.U. after    8 cycles
 SCF Done:  E(RB3LYP) =  -1393.87822039     A.U. after    8 cycles
 SCF Done:  E(RB3LYP) =  -1393.87822046     A.U. after    7 cycles
 Optimization completed.
    -- Stationary point found.
 Normal termination of Gaussian 16 at Thu Dec 10 22:46:03 2020.

 --------------------------------------------------------------------
 #N Geom=AllCheck Guess=TCheck SCRF=Check GenChk RB3LYP/6-31G(d) Freq
 --------------------------------------------------------------------

 Structure from the checkpoint file:  "JID_6436.chk"
 -------------------------------
 CID_104461028_JID_6436_neutraal
 -------------------------------
 Charge =  0 Multiplicity = 1

 SCF Done:  E(RB3LYP) =  -1393.87822046     A.U. after    1 cycles

  Exact polarizability: 190.424 -19.095 134.198   1.872   4.588 158.861
 Approx polarizability: 253.795 -33.430 205.765   6.650  13.875 278.347

                      1                      2                      3
                      A                      A                      A
 Frequencies --     19.1430                22.7978                50.1505
 Red. masses --      6.0864                 5.3001                 5.0834
 Frc consts  --      0.0013                 0.0016                 0.0075
 IR Inten    --      0.0947                 0.0704                 0.6532

                      4                      5                      6
                      A                      A                      A
 Frequencies --     81.8496                93.3085               106.2210
 Red. masses --      2.8401                 4.2256                 3.1136
 Frc consts  --      0.0112                 0.0217                 0.0207
 IR Inten    --      1.3053                 2.9759                 1.9216

                      7                      8                      9
                      A                      A                      A
 Frequencies --    152.7464               207.4753               212.9186
 Red. masses --      4.9025                 3.5008                 3.1309
 Frc consts  --      0.0674                 0.0888                 0.0836
 IR Inten    --      1.6965                 1.3600                 1.5628

                     10                     11                     12
                      A                      A                      A
 Frequencies --    232.3830               257.8916               299.8787
 Red. masses --      2.3005                 2.2295                 5.1936
 Frc consts  --      0.0732                 0.0874                 0.2752
 IR Inten    --      4.3066                 1.6729                 4.6821

                     13                     14                     15
                      A                      A                      A
 Frequencies --    315.6862               322.1370               337.8235
 Red. masses --      3.2392                 2.0626                 1.6766
 Frc consts  --      0.1902                 0.1261                 0.1127
 IR Inten    --     23.6332                31.1926                45.3523

                     16                     17                     18
                      A                      A                      A
 Frequencies --    361.6810               389.4782               421.9209
 Red. masses --      2.6790                 3.9395                 2.9229
 Frc consts  --      0.2065                 0.3521                 0.3066
 IR Inten    --      3.2877                 1.4682                 6.9065

                     19                     20                     21
                      A                      A                      A
 Frequencies --    429.8492               454.2901               524.9255
 Red. masses --      2.9268                 2.7859                 5.4144
 Frc consts  --      0.3186                 0.3388                 0.8790
 IR Inten    --      7.8131                 0.4297                 6.2228

                     22                     23                     24
                      A                      A                      A
 Frequencies --    583.5321               586.9090               629.9897
 Red. masses --      5.5397                 4.0343                 4.1109
 Frc consts  --      1.1114                 0.8188                 0.9613
 IR Inten    --     14.8439                 3.9917                 3.9264

                     25                     26                     27
                      A                      A                      A
 Frequencies --    663.1690               685.0451               704.8268
 Red. masses --      4.2165                 4.3427                 4.0919
 Frc consts  --      1.0926                 1.2007                 1.1977
 IR Inten    --      6.9122                 1.8263                 8.7898

                     28                     29                     30
                      A                      A                      A
 Frequencies --    728.7338               765.3690               797.5577
 Red. masses --      3.5091                 4.1638                 2.4835
 Frc consts  --      1.0980                 1.4371                 0.9308
 IR Inten    --      3.1107                 4.0355                 1.5260

                     31                     32                     33
                      A                      A                      A
 Frequencies --    849.3275               868.5489               906.1720
 Red. masses --      1.4162                 1.9266                 1.7188
 Frc consts  --      0.6019                 0.8563                 0.8316
 IR Inten    --      7.8534                 4.1195                 7.4637

                     34                     35                     36
                      A                      A                      A
 Frequencies --    907.7748               912.3016               946.6152
 Red. masses --      1.6745                 1.2836                 2.0641
 Frc consts  --      0.8130                 0.6294                 1.0897
 IR Inten    --      3.1949                 1.4622                 4.0538

                     37                     38                     39
                      A                      A                      A
 Frequencies --    959.6606               983.9013              1013.2417
 Red. masses --      2.6761                 2.2280                 3.4940
 Frc consts  --      1.4520                 1.2708                 2.1135
 IR Inten    --      1.7224                 1.5863                 5.2406

                     40                     41                     42
                      A                      A                      A
 Frequencies --   1028.3771              1037.1944              1061.3882
 Red. masses --      2.1611                 2.7661                 3.7399
 Frc consts  --      1.3465                 1.7532                 2.4823
 IR Inten    --      4.7624                 3.0909                84.3754

                     43                     44                     45
                      A                      A                      A
 Frequencies --   1087.8928              1105.8708              1137.7117
 Red. masses --      2.9933                 2.6171                 2.3130
 Frc consts  --      2.0872                 1.8857                 1.7639
 IR Inten    --     44.4132                44.8585                16.3930

                     46                     47                     48
                      A                      A                      A
 Frequencies --   1151.6250              1157.5608              1171.0664
 Red. masses --      1.6221                 1.2857                 1.3420
 Frc consts  --      1.2675                 1.0151                 1.0844
 IR Inten    --     11.0930                 4.4609                 1.9419

                     49                     50                     51
                      A                      A                      A
 Frequencies --   1179.3206              1189.3472              1213.5090
 Red. masses --      1.7978                 1.5273                 1.3166
 Frc consts  --      1.4732                 1.2729                 1.1423
 IR Inten    --      2.1740                 8.5452                 6.1273

                     52                     53                     54
                      A                      A                      A
 Frequencies --   1216.2919              1219.6327              1242.2545
 Red. masses --      2.1492                 1.7058                 1.2907
 Frc consts  --      1.8732                 1.4950                 1.1735
 IR Inten    --     26.0974                 3.6397                 0.8776

                     55                     56                     57
                      A                      A                      A
 Frequencies --   1257.0131              1279.8933              1287.6097
 Red. masses --      1.3320                 1.3604                 1.3991
 Frc consts  --      1.2400                 1.3130                 1.3667
 IR Inten    --     12.2171                13.0348                11.1570

                     58                     59                     60
                      A                      A                      A
 Frequencies --   1302.2289              1340.5137              1341.3651
 Red. masses --      1.3442                 1.3886                 1.2687
 Frc consts  --      1.3430                 1.4702                 1.3450
 IR Inten    --      6.6795                12.9007                11.7763

                     61                     62                     63
                      A                      A                      A
 Frequencies --   1361.6528              1376.5903              1383.1723
 Red. masses --      1.5633                 1.2848                 1.5657
 Frc consts  --      1.7077                 1.4345                 1.7649
 IR Inten    --      3.2497                29.8172                 2.1845

                     64                     65                     66
                      A                      A                      A
 Frequencies --   1387.3938              1408.8109              1415.8705
 Red. masses --      1.4256                 1.2433                 2.8635
 Frc consts  --      1.6168                 1.4539                 3.3822
 IR Inten    --      4.1958                19.2123                 1.5079

                     67                     68                     69
                      A                      A                      A
 Frequencies --   1443.1578              1489.6802              1490.9081
 Red. masses --      1.4164                 1.1289                 1.0910
 Frc consts  --      1.7380                 1.4760                 1.4288
 IR Inten    --     51.8174                 2.7553                 6.8268

                     70                     71                     72
                      A                      A                      A
 Frequencies --   1499.2822              1505.4462              1531.2308
 Red. masses --      1.0879                 1.1181                 1.0866
 Frc consts  --      1.4408                 1.4931                 1.5011
 IR Inten    --      4.8352                 1.1368                 1.1504

                     73                     74                     75
                      A                      A                      A
 Frequencies --   1536.6113              1544.7504              1558.4487
 Red. masses --      1.0918                 5.7023                 1.1136
 Frc consts  --      1.5189                 8.0170                 1.5935
 IR Inten    --      0.2271                 6.9504                 3.7367

                     76                     77                     78
                      A                      A                      A
 Frequencies --   1631.3311              2985.7156              2989.9373
 Red. masses --      6.1361                 1.0666                 1.0692
 Frc consts  --      9.6212                 5.6020                 5.6316
 IR Inten    --      2.1421                41.3987                27.4990

                     79                     80                     81
                      A                      A                      A
 Frequencies --   3003.7139              3034.6669              3042.5627
 Red. masses --      1.0667                 1.0591                 1.0655
 Frc consts  --      5.6706                 5.7466                 5.8113
 IR Inten    --     50.1195                29.0552                23.3897

                     82                     83                     84
                      A                      A                      A
 Frequencies --   3046.6083              3061.4766              3068.7731
 Red. masses --      1.0600                 1.0877                 1.0954
 Frc consts  --      5.7966                 6.0066                 6.0781
 IR Inten    --     39.4359                 5.7951                54.2222

                     85                     86                     87
                      A                      A                      A
 Frequencies --   3072.6762              3075.6291              3090.9028
 Red. masses --      1.0971                 1.0769                 1.1049
 Frc consts  --      6.1031                 6.0018                 6.2195
 IR Inten    --     52.3692                35.0212                16.9814

                     88                     89                     90
                      A                      A                      A
 Frequencies --   3091.0948              3100.1092              3109.4393
 Red. masses --      1.0909                 1.0979                 1.0907
 Frc consts  --      6.1413                 6.2166                 6.2135
 IR Inten    --     19.7606                 6.9337                70.3170

                     91                     92                     93
                      A                      A                      A
 Frequencies --   3131.2433              3198.0938              3735.9826
 Red. masses --      1.1043                 1.0924                 1.0660
 Frc consts  --      6.3793                 6.5827                 8.7665
 IR Inten    --     12.6315                 8.5474                 6.1688

 - Thermochemistry -
 -------------------
 Temperature   298.150 Kelvin.  Pressure   1.00000 Atm.
 Atom     1 has atomic number  6 and mass  12.00000

 Molecular mass:   255.07516 amu.
 Principal axes and moments of inertia in atomic units:
                           1         2         3
     Eigenvalues --  2540.965217985.696538591.81514
           X            0.99996   0.00366  -0.00787
           Y           -0.00324   0.99862   0.05247
           Z            0.00805  -0.05244   0.99859
 This molecule is an asymmetric top.
 Rotational symmetry number  1.
 Warning -- assumption of classical behavior for rotation
           may cause significant error
 Rotational temperatures (Kelvin)      0.03409     0.01085     0.01008
 Rotational constants (GHZ):           0.71026     0.22600     0.21005
 Zero-point vibrational energy     724924.2 (Joules/Mol)
                                  173.26104 (Kcal/Mol)
 Warning -- explicit consideration of  23 degrees of freedom as
           vibrations may cause significant error
 Vibrational temperatures:     27.54    32.80    72.16   117.76   134.25
          (Kelvin)            152.83   219.77   298.51   306.34   334.35
                              371.05   431.46   454.20   463.48   486.05
                              520.38   560.37   607.05   618.46   653.62
                              755.25   839.57   844.43   906.41   954.15
                              985.63  1014.09  1048.49  1101.20  1147.51
                             1221.99  1249.65  1303.78  1306.09  1312.60
                             1361.97  1380.74  1415.61  1457.83  1479.61
                             1492.29  1527.10  1565.24  1591.10  1636.91
                             1656.93  1665.47  1684.90  1696.78  1711.21
                             1745.97  1749.97  1754.78  1787.33  1808.56
                             1841.48  1852.58  1873.62  1928.70  1929.93
                             1959.11  1980.61  1990.08  1996.15  2026.96
                             2037.12  2076.38  2143.32  2145.08  2157.13
                             2166.00  2203.10  2210.84  2222.55  2242.26
                             2347.12  4295.78  4301.85  4321.67  4366.21
                             4377.57  4383.39  4404.78  4415.28  4420.90
                             4425.14  4447.12  4447.40  4460.37  4473.79
                             4505.16  4601.34  5375.25

 Zero-point correction=                           0.276109 (Hartree/Particle)
 Thermal correction to Energy=                    0.291856
 Thermal correction to Enthalpy=                  0.292800
 Thermal correction to Gibbs Free Energy=         0.230620
 Sum of electronic and zero-point Energies=          -1393.602111
 Sum of electronic and thermal Energies=             -1393.586365
 Sum of electronic and thermal Enthalpies=           -1393.585420
 Sum of electronic and thermal Free Energies=        -1393.647601

                     E (Thermal)             CV                S
                      KCal/Mol        Cal/Mol-Kelvin    Cal/Mol-Kelvin
 Total                  183.142             59.801            130.870
 Electronic               0.000              0.000              0.000
 Translational            0.889              2.981             42.509
 Rotational               0.889              2.981             33.522
 Vibrational            181.365             53.839             54.839
 Vibration     1          0.593              1.986              6.721
 Vibration     2          0.593              1.985              6.374
 Vibration     3          0.595              1.978              4.811
 Vibration     4          0.600              1.962              3.846
 Vibration     5          0.602              1.954              3.589
 Vibration     6          0.605              1.944              3.337
 Vibration     7          0.619              1.900              2.638
 Vibration     8          0.641              1.829              2.066
 Vibration     9          0.644              1.821              2.019
 Vibration    10          0.653              1.791              1.860
 Vibration    11          0.667              1.749              1.676
 Vibration    12          0.692              1.674              1.418
 Vibration    13          0.703              1.644              1.332
 Vibration    14          0.707              1.631              1.299
 Vibration    15          0.718              1.600              1.222
 Vibration    16          0.736              1.551              1.115
 Vibration    17          0.757              1.493              1.002
 Vibration    18          0.784              1.423              0.885
 Vibration    19          0.791              1.405              0.859
 Vibration    20          0.813              1.351              0.783
 Vibration    21          0.880              1.195              0.599
 Vibration    22          0.940              1.067              0.479
 Vibration    23          0.944              1.060              0.473

                           ! Non-Optimized Parameters !
 Normal termination of Gaussian 16 at Thu Dec 10 22:58:15 2020.

 ----------------------------------------------------------------------
 # B3LYP/6-311++G(d,p) empiricaldispersion=gd3bj scf=xqc pop=npa geom=c
 heck
 ----------------------------------------------------------------------

 ---------------------------------------
 CID_104461028_JID_6436_Energie_neutraal
 ---------------------------------------
 Structure from the checkpoint file:  "JID_6436.chk"
 Charge =  0 Multiplicity = 1

 SCF Done:  E(RB3LYP) =  -1394.09999444     A.U. after   15 cycles
 Normal termination of Gaussian 16 at Thu Dec 10 23:04:40 2020.

 ----------------------------------------------------------------------
 # B3LYP/6-311++G(d,p) empiricaldispersion=gd3bj scf=xqc pop=npa geom=c
 heck
 ----------------------------------------------------------------------

 -------------------------------------
 CID_104461028_JID_6436_Energie_kation
 -------------------------------------
 Structure from the checkpoint file:  "JID_6436.chk"
 Charge =  1 Multiplicity = 2

 SCF Done:  E(UB3LYP) =  -1393.81812824     A.U. after   31 cycles
 Normal termination of Gaussian 16 at Thu Dec 10 23:23:21 2020.
 Gaussian 16:  ES64L-G16RevA.03 25-Dec-2016

 ----------------------------------------------------------------------
 # B3LYP/6-311++G(d,p) empiricaldispersion=gd3bj scf=xqc pop=npa geom=c
 heck
 ----------------------------------------------------------------------

 ------------------------------------
 CID_104461028_JID_6436_Energie_anion
 ------------------------------------
 Structure from the checkpoint file:  "JID_6436.chk"
 Charge = -1 Multiplicity = 2

                         Standard orientation:
 ---------------------------------------------------------------------
 Center     Atomic      Atomic             Coordinates (Angstroms)
 Number     Number       Type             X           Y           Z
 ---------------------------------------------------------------------
      1          6           0       -2.694397    0.545284    1.536990
      2          6           0       -4.044520    0.565965    0.815510
      3         16           0       -3.888085    1.149940   -0.914183
      4          6           0       -2.804904   -0.201482   -1.519729
      5          6           0       -1.690628   -0.558083   -0.570123
      6          6           0       -1.669151   -0.235867    0.763436
      7         16           0       -0.227486   -0.853464    1.531394
      8          6           0        0.350964   -1.561150    0.037767
      9          6           0       -0.540018   -1.314200   -0.971456
     10          6           0        1.696451   -2.234742   -0.064888
     11          7           0        2.838823   -1.359045   -0.309347
     12          6           0        2.799574   -0.371098   -1.405339
     13          6           0        3.594030    0.613541   -0.511749
     14          6           0        3.222167   -0.322753    0.668892
     15          6           0        3.095982    2.045914   -0.438901
     16          8           0        3.770983    2.805498    0.557798
     17          1           0       -2.348630    1.576229    1.688053
     18          1           0       -2.830910    0.107084    2.534922
     19          1           0       -4.735950    1.254731    1.308329
     20          1           0       -4.499478   -0.430464    0.817683
     21          1           0       -3.419053   -1.083974   -1.740546
     22          1           0       -2.396807    0.150922   -2.472704
     23          1           0       -0.385271   -1.668934   -1.986412
     24          1           0        1.912121   -2.808344    0.844193
     25          1           0        1.649164   -2.954398   -0.891601
     26          1           0        3.266385   -0.712939   -2.336752
     27          1           0        1.788161    0.004451   -1.628515
     28          1           0        4.667284    0.599937   -0.720643
     29          1           0        2.379691    0.078621    1.256363
     30          1           0        4.018274   -0.631539    1.357062
     31          1           0        3.284776    2.563945   -1.385471
     32          1           0        2.005712    2.050207   -0.273396
     33          1           0        3.560721    2.402209    1.414642
 ---------------------------------------------------------------------

 SCF Done:  E(UB3LYP) =  -1394.08795974     A.U. after   33 cycles
 SCF Done:  E(UB3LYP) =  -1394.08795974     a.u. after    1 cycles

 The electronic state is 2-A.
 Alpha  occ. eigenvalues --  -88.75959 -88.73639 -19.02400 -14.20881 -10.11798
 Alpha  occ. eigenvalues --  -10.11050 -10.10500 -10.10028 -10.09696 -10.09656
 Alpha  occ. eigenvalues --  -10.08681 -10.08668 -10.08292 -10.07810 -10.07304
 Alpha  occ. eigenvalues --  -10.06651  -7.84588  -7.82251  -5.80877  -5.80517
 Alpha  occ. eigenvalues --   -5.80186  -5.78638  -5.78304  -5.77603  -0.92482
 Alpha  occ. eigenvalues --   -0.84985  -0.77891  -0.72157  -0.68915  -0.67027
 Alpha  occ. eigenvalues --   -0.63405  -0.60927  -0.59591  -0.58577  -0.54129
 Alpha  occ. eigenvalues --   -0.51569  -0.49762  -0.46043  -0.44072  -0.42337
 Alpha  occ. eigenvalues --   -0.41043  -0.39770  -0.38259  -0.37281  -0.36478
 Alpha  occ. eigenvalues --   -0.35449  -0.34136  -0.33604  -0.32824  -0.30759
 Alpha  occ. eigenvalues --   -0.30400  -0.30082  -0.29754  -0.28667  -0.27169
 Alpha  occ. eigenvalues --   -0.25791  -0.25220  -0.24451  -0.23755  -0.23174
 Alpha  occ. eigenvalues --   -0.22896  -0.22201  -0.20967  -0.18021  -0.14251
 Alpha  occ. eigenvalues --   -0.12958  -0.12485  -0.11737   0.04722
 Alpha virt. eigenvalues --    0.06600   0.06869   0.07314   0.08011   0.08616
 Alpha virt. eigenvalues --    0.08845   0.09560   0.09762   0.09956   0.10458
 Alpha virt. eigenvalues --    0.11158   0.11498   0.11963   0.12314   0.12806

  Beta  occ. eigenvalues --  -88.75944 -88.73634 -19.02362 -14.20846 -10.11783
  Beta  occ. eigenvalues --  -10.11059 -10.10491 -10.10025 -10.09652 -10.09639
  Beta  occ. eigenvalues --  -10.08544 -10.08532 -10.08290 -10.07793 -10.07296
  Beta  occ. eigenvalues --  -10.06638  -7.84575  -7.82245  -5.80869  -5.80512
  Beta  occ. eigenvalues --   -5.80139  -5.78630  -5.78301  -5.77599  -0.92402
  Beta  occ. eigenvalues --   -0.84929  -0.77749  -0.72077  -0.68869  -0.66931
  Beta  occ. eigenvalues --   -0.63273  -0.60847  -0.59514  -0.58543  -0.54041
  Beta  occ. eigenvalues --   -0.51498  -0.49653  -0.45982  -0.43952  -0.42277
  Beta  occ. eigenvalues --   -0.40927  -0.39712  -0.38190  -0.37212  -0.36432
  Beta  occ. eigenvalues --   -0.35348  -0.34086  -0.33554  -0.32755  -0.30721
  Beta  occ. eigenvalues --   -0.30325  -0.30009  -0.29701  -0.28503  -0.27102
  Beta  occ. eigenvalues --   -0.25750  -0.25173  -0.24215  -0.23673  -0.23132
  Beta  occ. eigenvalues --   -0.22805  -0.22157  -0.20903  -0.17980  -0.13971
  Beta  occ. eigenvalues --   -0.12785  -0.12433  -0.11220
  Beta virt. eigenvalues --    0.06634   0.07371   0.07509   0.07682   0.08371
  Beta virt. eigenvalues --    0.08980   0.09166   0.09707   0.09824   0.10348
  Beta virt. eigenvalues --    0.10650   0.11276   0.11660   0.12140   0.12440

 Mulliken charges and spin densities:
               1          2
     1  C   -0.199839  -0.182638
     2  C   -0.053998  -0.345970
     3  S    0.071237   0.018213
     4  C   -0.605847  -0.485765
     5  C   -0.243725   0.242984
     6  C    0.462099  -0.067368
     7  S    0.309379  -0.535910
     8  C    0.961575   0.170993
     9  C   -0.204898  -0.117402
    10  C   -0.760406   0.023485
    11  N    0.095151   0.004503
    12  C   -0.390484  -0.128484
    13  C   -0.191534   0.513938
    14  C   -0.096377  -0.355224
    15  C    0.337983  -0.849704
    16  O   -0.249476   0.008243
    17  H   -0.266472   0.444736
    18  H   -0.099126   0.250348
    19  H   -0.804322   1.048055
    20  H    0.143450   0.009036
    21  H    0.066393   0.149564
    22  H    0.167437  -0.012204
    23  H    0.157308  -0.015857
    24  H    0.172237   0.005098
    25  H    0.165076   0.000018
    26  H    0.127584   0.016195
    27  H    0.084053   0.038130
    28  H    0.117735   0.058991
    29  H   -0.266698   0.350473
    30  H   -0.005645   0.178633
    31  H    0.053279   0.097643
    32  H    0.062498   0.102986
    33  H   -0.115628   0.364259
 Sum of Mulliken charges =  -1.00000   1.00000

 Dipole moment (field-independent basis, Debye):
    X=              2.4975    Y=             -6.7214    Z=             -4.8203  Tot=              8.6401
 Quadrupole moment (field-independent basis, Debye-Ang):
   XX=           -199.4249   YY=           -153.6292   ZZ=           -137.7834
   XY=              0.9280   XZ=              0.0599   YZ=             -8.3257

 Summary of Natural Population Analysis:

                                       Natural Population
                Natural  -----------------------------------------------
    Atom  No    Charge         Core      Valence    Rydberg      Total
 -----------------------------------------------------------------------
      C    1   -0.20977      0.99957     2.19872    0.01149     3.20977
      C    2   -0.24500      0.99960     2.23363    0.01176     3.24500
      S    3    0.08774      4.99965     2.89318    0.01943     7.91226
      C    4   -0.24460      0.99954     2.23626    0.00880     3.24460
      C    5   -0.06007      0.99941     2.04975    0.01091     3.06007
      C    6   -0.07010      0.99941     2.05717    0.01353     3.07010
      S    7    0.21041      4.99937     2.77088    0.01933     7.78959
      C    8   -0.08849      0.99949     2.07767    0.01133     3.08849
      C    9   -0.12531      0.99942     2.11573    0.01017     3.12531
      C   10   -0.09921      0.99956     2.08738    0.01227     3.09921
      N   11   -0.27497      0.99974     2.76348    0.01175     3.77497
      C   12   -0.08011      0.99963     2.07041    0.01007     3.08011
      C   13   -0.12914      0.99958     2.11895    0.01061     3.12914
      C   14   -0.08641      0.99963     2.07383    0.01295     3.08641
      C   15   -0.00950      0.99956     1.99668    0.01326     3.00950
      O   16   -0.36845      0.99990     3.36212    0.00643     4.36845
      H   17    0.11361      0.00000     0.38226    0.00412     0.38639
      H   18    0.10437      0.00000     0.39446    0.00118     0.39563
      H   19    0.11196      0.00000     0.38497    0.00308     0.38804
      H   20    0.09837      0.00000     0.40010    0.00153     0.40163
      H   21    0.10096      0.00000     0.39740    0.00163     0.39904
      H   22    0.10720      0.00000     0.39150    0.00130     0.39280
      H   23    0.09996      0.00000     0.39906    0.00099     0.40004
      H   24    0.09985      0.00000     0.39919    0.00097     0.40015
      H   25    0.09921      0.00000     0.39987    0.00092     0.40079
      H   26    0.08708      0.00000     0.41186    0.00106     0.41292
      H   27    0.09216      0.00000     0.40636    0.00148     0.40784
      H   28    0.09930      0.00000     0.39965    0.00105     0.40070
      H   29    0.09203      0.00000     0.40619    0.00178     0.40797
      H   30    0.09040      0.00000     0.40823    0.00137     0.40960
      H   31    0.08389      0.00000     0.41496    0.00116     0.41611
      H   32    0.08200      0.00000     0.41619    0.00181     0.41800
      H   33    0.23066      0.00000     0.26327    0.00607     0.26934
 =======================================================================
   * Total *   -0.00000     23.99306    43.78136    0.22558    68.00000

 Normal termination of Gaussian 16 at Thu Dec 10 23:43:26 2020.
