 Gaussian 16, Revision A.03,

 -----------------------------------------------------------
 # opt freq B3LYP/6-31G(d) empiricaldispersion=gd3bj scf=xqc
 -----------------------------------------------------------

 -------------------------------
 CID_103808800_JID_9207_neutraal
 -------------------------------
 Symbolic Z-matrix:
 Charge =  0 Multiplicity = 1

 SCF Done:  E(RB3LYP) =  -844.823177868     A.U. after   14 cycles
 SCF Done:  E(RB3LYP) =  -844.828386939     A.U. after   12 cycles
 SCF Done:  E(RB3LYP) =  -844.828762315     A.U. after   12 cycles
 SCF Done:  E(RB3LYP) =  -844.829321917     A.U. after   12 cycles
 SCF Done:  E(RB3LYP) =  -844.829678542     A.U. after   11 cycles
 SCF Done:  E(RB3LYP) =  -844.829757371     A.U. after   11 cycles
 SCF Done:  E(RB3LYP) =  -844.829777974     A.U. after   10 cycles
 SCF Done:  E(RB3LYP) =  -844.829786507     A.U. after    9 cycles
 SCF Done:  E(RB3LYP) =  -844.829796709     A.U. after   10 cycles
 SCF Done:  E(RB3LYP) =  -844.829801066     A.U. after   10 cycles
 SCF Done:  E(RB3LYP) =  -844.830459171     A.U. after   11 cycles
 SCF Done:  E(RB3LYP) =  -844.830459827     A.U. after   10 cycles
 SCF Done:  E(RB3LYP) =  -844.830460015     A.U. after    8 cycles
 SCF Done:  E(RB3LYP) =  -844.830460102     A.U. after    7 cycles
 SCF Done:  E(RB3LYP) =  -844.830460111     A.U. after    7 cycles
 Optimization completed.
    -- Stationary point found.
 Normal termination of Gaussian 16 at Sat Dec 12 10:06:30 2020.

 --------------------------------------------------------------------
 #N Geom=AllCheck Guess=TCheck SCRF=Check GenChk RB3LYP/6-31G(d) Freq
 --------------------------------------------------------------------

 Structure from the checkpoint file:  "JID_9207.chk"
 -------------------------------
 CID_103808800_JID_9207_neutraal
 -------------------------------
 Charge =  0 Multiplicity = 1

 SCF Done:  E(RB3LYP) =  -844.830460111     A.U. after    1 cycles

  Exact polarizability: 228.708  -8.421 150.234   0.968 -23.855 138.453
 Approx polarizability: 291.832 -12.168 235.981   2.629 -53.678 222.324

                      1                      2                      3
                      A                      A                      A
 Frequencies --     15.8613                22.8107                33.5179
 Red. masses --      4.4903                 5.3313                 3.2692
 Frc consts  --      0.0007                 0.0016                 0.0022
 IR Inten    --      0.3126                 0.2057                 0.4057

                      4                      5                      6
                      A                      A                      A
 Frequencies --     39.6567                49.9691                59.2309
 Red. masses --      3.5765                 6.1136                 3.6962
 Frc consts  --      0.0033                 0.0090                 0.0076
 IR Inten    --      1.2085                 0.8854                 1.3093

                      7                      8                      9
                      A                      A                      A
 Frequencies --     93.2344               104.0927               111.6183
 Red. masses --      3.6028                 3.7383                 4.2560
 Frc consts  --      0.0185                 0.0239                 0.0312
 IR Inten    --      5.1965                 0.0768                 0.9247

                     10                     11                     12
                      A                      A                      A
 Frequencies --    126.9602               204.8058               211.4505
 Red. masses --      3.1000                 3.4339                 2.2787
 Frc consts  --      0.0294                 0.0849                 0.0600
 IR Inten    --      3.0570                 1.0606                 0.4591

                     13                     14                     15
                      A                      A                      A
 Frequencies --    228.0331               232.8145               258.6573
 Red. masses --      2.7094                 2.8856                 3.7760
 Frc consts  --      0.0830                 0.0922                 0.1488
 IR Inten    --      1.5113                 2.1314                 2.6105

                     16                     17                     18
                      A                      A                      A
 Frequencies --    278.2940               289.0485               346.7934
 Red. masses --      2.7262                 1.6678                 2.5895
 Frc consts  --      0.1244                 0.0821                 0.1835
 IR Inten    --      1.5915                 0.3585                 0.3422

                     19                     20                     21
                      A                      A                      A
 Frequencies --    376.8874               392.5760               424.6856
 Red. masses --      2.3822                 1.9040                 2.7893
 Frc consts  --      0.1994                 0.1729                 0.2964
 IR Inten    --      4.7497                 0.9799                 1.5582

                     22                     23                     24
                      A                      A                      A
 Frequencies --    464.6210               469.0898               486.6965
 Red. masses --      3.9250                 3.0435                 3.5444
 Frc consts  --      0.4992                 0.3946                 0.4947
 IR Inten    --      0.2378                 2.5598                 8.7445

                     25                     26                     27
                      A                      A                      A
 Frequencies --    522.2967               546.7020               554.9593
 Red. masses --      3.5343                 3.4890                 2.7443
 Frc consts  --      0.5681                 0.6144                 0.4980
 IR Inten    --      6.2098                 5.4873                42.4718

                     28                     29                     30
                      A                      A                      A
 Frequencies --    562.9116               633.4474               650.3482
 Red. masses --      4.7680                 2.3686                 2.7976
 Frc consts  --      0.8902                 0.5600                 0.6971
 IR Inten    --      4.4447                38.3528                 5.9663

                     31                     32                     33
                      A                      A                      A
 Frequencies --    715.9523               730.0596               740.8573
 Red. masses --      2.3872                 3.7664                 2.8375
 Frc consts  --      0.7210                 1.1827                 0.9176
 IR Inten    --     21.5166                18.0999                73.4271

                     34                     35                     36
                      A                      A                      A
 Frequencies --    776.2604               793.0199               808.0505
 Red. masses --      1.6274                 1.1356                 1.4060
 Frc consts  --      0.5778                 0.4208                 0.5409
 IR Inten    --     20.3317                18.0374                33.2919

                     37                     38                     39
                      A                      A                      A
 Frequencies --    837.5798               848.4946               867.2547
 Red. masses --      1.4012                 1.7913                 1.7269
 Frc consts  --      0.5792                 0.7599                 0.7653
 IR Inten    --     26.3356                13.7289                13.2514

                     40                     41                     42
                      A                      A                      A
 Frequencies --    870.1273               900.8145               906.2405
 Red. masses --      2.0788                 1.9879                 2.1331
 Frc consts  --      0.9273                 0.9504                 1.0322
 IR Inten    --     39.8317                 3.2789                37.2831

                     43                     44                     45
                      A                      A                      A
 Frequencies --    913.7393               931.5705               947.6891
 Red. masses --      1.4652                 1.8758                 3.3578
 Frc consts  --      0.7208                 0.9591                 1.7768
 IR Inten    --      1.0524                16.6833                 7.9318

                     46                     47                     48
                      A                      A                      A
 Frequencies --    980.9300               982.1948               990.2582
 Red. masses --      2.4913                 1.3070                 2.4487
 Frc consts  --      1.4124                 0.7429                 1.4148
 IR Inten    --      5.2196                 0.2244                 6.7008

                     49                     50                     51
                      A                      A                      A
 Frequencies --   1012.1501              1017.8981              1052.8986
 Red. masses --      2.0291                 6.0938                 1.8245
 Frc consts  --      1.2247                 3.7200                 1.1917
 IR Inten    --     31.4112                 1.2206                 4.2687

                     52                     53                     54
                      A                      A                      A
 Frequencies --   1064.5383              1084.6950              1089.1801
 Red. masses --      1.3503                 1.3805                 4.1708
 Frc consts  --      0.9016                 0.9570                 2.9152
 IR Inten    --      7.3152                 2.2027                42.5023

                     55                     56                     57
                      A                      A                      A
 Frequencies --   1099.5315              1119.8332              1142.9987
 Red. masses --      1.6583                 1.5661                 2.2115
 Frc consts  --      1.1812                 1.1571                 1.7023
 IR Inten    --     37.3261                 8.8748                 3.4886

                     58                     59                     60
                      A                      A                      A
 Frequencies --   1148.6963              1150.9071              1185.0146
 Red. masses --      1.8681                 1.9242                 1.5832
 Frc consts  --      1.4523                 1.5017                 1.3099
 IR Inten    --     31.7399                26.9731                 3.3106

                     61                     62                     63
                      A                      A                      A
 Frequencies --   1187.1357              1198.0777              1208.4714
 Red. masses --      1.2722                 1.2260                 1.4911
 Frc consts  --      1.0563                 1.0368                 1.2830
 IR Inten    --      0.6882                 3.9019                44.6607

                     64                     65                     66
                      A                      A                      A
 Frequencies --   1210.1789              1224.0197              1229.1349
 Red. masses --      1.4126                 1.4041                 1.6268
 Frc consts  --      1.2189                 1.2394                 1.4481
 IR Inten    --      0.4199                 0.3377                29.2519

                     67                     68                     69
                      A                      A                      A
 Frequencies --   1236.7040              1247.1793              1288.2891
 Red. masses --      1.6583                 1.5241                 1.2855
 Frc consts  --      1.4943                 1.3968                 1.2570
 IR Inten    --      2.2275                 2.3227                 8.4935

                     70                     71                     72
                      A                      A                      A
 Frequencies --   1312.0485              1329.5073              1343.6272
 Red. masses --      4.0347                 1.2868                 1.5692
 Frc consts  --      4.0922                 1.3401                 1.6691
 IR Inten    --    172.1698                 1.1646                31.8795

                     73                     74                     75
                      A                      A                      A
 Frequencies --   1351.0557              1375.0821              1378.7118
 Red. masses --      1.4940                 1.3344                 2.6350
 Frc consts  --      1.6067                 1.4866                 2.9511
 IR Inten    --    108.6080                 2.1195                15.9757

                     76                     77                     78
                      A                      A                      A
 Frequencies --   1398.1864              1404.6952              1437.1976
 Red. masses --      1.5257                 1.3565                 1.5157
 Frc consts  --      1.7574                 1.5770                 1.8445
 IR Inten    --      5.7919                56.7881                17.7541

                     79                     80                     81
                      A                      A                      A
 Frequencies --   1448.4863              1486.7288              1493.5633
 Red. masses --      1.7321                 1.6723                 1.5907
 Frc consts  --      2.1411                 2.1779                 2.0907
 IR Inten    --     72.1541                21.6889                70.2723

                     82                     83                     84
                      A                      A                      A
 Frequencies --   1495.2495              1504.0755              1511.9788
 Red. masses --      1.1070                 1.0943                 1.5590
 Frc consts  --      1.4582                 1.4585                 2.0998
 IR Inten    --      2.8880                 1.6165                 0.9598

                     85                     86                     87
                      A                      A                      A
 Frequencies --   1517.9663              1519.6402              1520.5572
 Red. masses --      1.2277                 1.2079                 1.0484
 Frc consts  --      1.6668                 1.6435                 1.4282
 IR Inten    --      0.2026                16.1039                 6.0128

                     88                     89                     90
                      A                      A                      A
 Frequencies --   1527.7673              1534.2353              1537.5373
 Red. masses --      1.1609                 1.1631                 1.3426
 Frc consts  --      1.5965                 1.6130                 1.8700
 IR Inten    --     64.0761                60.1367                 1.1378

                     91                     92                     93
                      A                      A                      A
 Frequencies --   1542.3387              1549.4069              1654.8832
 Red. masses --      1.0979                 2.0226                 6.1047
 Frc consts  --      1.5387                 2.8609                 9.8502
 IR Inten    --      2.8402                26.1981                17.6826

                     94                     95                     96
                      A                      A                      A
 Frequencies --   1664.1805              1785.6200              2995.9131
 Red. masses --      5.5049                 7.7800                 1.0705
 Frc consts  --      8.9825                14.6153                 5.6608
 IR Inten    --    110.8941               269.7515                50.7377

                     97                     98                     99
                      A                      A                      A
 Frequencies --   3021.6978              3034.0944              3047.9932
 Red. masses --      1.0352                 1.0597                 1.0645
 Frc consts  --      5.5687                 5.7476                 5.8268
 IR Inten    --     49.4201                32.9501                24.3551

                    100                    101                    102
                      A                      A                      A
 Frequencies --   3069.7221              3072.8012              3078.5166
 Red. masses --      1.0610                 1.1049                 1.1063
 Frc consts  --      5.8909                 6.1467                 6.1775
 IR Inten    --     40.8081                24.3630                46.1527

                    103                    104                    105
                      A                      A                      A
 Frequencies --   3100.1106              3106.0668              3120.0726
 Red. masses --      1.0973                 1.0952                 1.1019
 Frc consts  --      6.2135                 6.2256                 6.3202
 IR Inten    --     22.0132                33.4980                22.5977

                    106                    107                    108
                      A                      A                      A
 Frequencies --   3140.5488              3144.9149              3156.9951
 Red. masses --      1.0519                 1.0583                 1.0993
 Frc consts  --      6.1128                 6.1671                 6.4550
 IR Inten    --     20.0479                20.0199                30.6236

                    109                    110                    111
                      A                      A                      A
 Frequencies --   3157.2630              3190.9946              3206.8045
 Red. masses --      1.0895                 1.0871                 1.0890
 Frc consts  --      6.3987                 6.5216                 6.5979
 IR Inten    --     14.5803                10.4235                12.6964

                    112                    113                    114
                      A                      A                      A
 Frequencies --   3209.1810              3215.7462              3218.7263
 Red. masses --      1.0922                 1.1184                 1.0950
 Frc consts  --      6.6275                 6.8143                 6.6840
 IR Inten    --      0.5237                 0.5693                11.6981

                    115                    116                    117
                      A                      A                      A
 Frequencies --   3229.7514              3484.6941              3582.3872
 Red. masses --      1.1153                 1.0733                 1.0755
 Frc consts  --      6.8544                 7.6788                 8.1322
 IR Inten    --     26.6790                 2.6294                15.0872

 - Thermochemistry -
 -------------------
 Temperature   298.150 Kelvin.  Pressure   1.00000 Atm.
 Atom     1 has atomic number  6 and mass  12.00000

 Molecular mass:   262.16813 amu.
 Principal axes and moments of inertia in atomic units:
                           1         2         3
     Eigenvalues --  2138.43909********************
           X            0.99995  -0.00957   0.00015
           Y            0.00954   0.99452  -0.10409
           Z            0.00084   0.10409   0.99457
 This molecule is an asymmetric top.
 Rotational symmetry number  1.
 Warning -- assumption of classical behavior for rotation
           may cause significant error
 Rotational temperatures (Kelvin)      0.04050     0.00687     0.00666
 Rotational constants (GHZ):           0.84395     0.14310     0.13877
 Zero-point vibrational energy     937513.5 (Joules/Mol)
                                  224.07111 (Kcal/Mol)
 Warning -- explicit consideration of  28 degrees of freedom as
           vibrations may cause significant error
 Vibrational temperatures:     22.82    32.82    48.22    57.06    71.89
          (Kelvin)             85.22   134.14   149.77   160.59   182.67
                              294.67   304.23   328.09   334.97   372.15
                              400.40   415.88   498.96   542.26   564.83
                              611.03   668.49   674.92   700.25   751.47
                              786.58   798.46   809.90   911.39   935.71
                             1030.10  1050.39  1065.93  1116.87  1140.98
                             1162.60  1205.09  1220.79  1247.79  1251.92
                             1296.07  1303.88  1314.67  1340.32  1363.51
                             1411.34  1413.16  1424.76  1456.26  1464.53
                             1514.89  1531.63  1560.63  1567.09  1581.98
                             1611.19  1644.52  1652.72  1655.90  1704.97
                             1708.02  1723.77  1738.72  1741.18  1761.09
                             1768.45  1779.34  1794.41  1853.56  1887.75
                             1912.86  1933.18  1943.87  1978.44  1983.66
                             2011.68  2021.04  2067.81  2084.05  2139.07
                             2148.90  2151.33  2164.03  2175.40  2184.01
                             2186.42  2187.74  2198.12  2207.42  2212.17
                             2219.08  2229.25  2381.01  2394.38  2569.11
                             4310.45  4347.55  4365.39  4385.38  4416.65
                             4421.08  4429.30  4460.37  4468.94  4489.09
                             4518.55  4524.83  4542.21  4542.60  4591.13
                             4613.88  4617.30  4626.74  4631.03  4646.89
                             5013.70  5154.26

 Zero-point correction=                           0.357080 (Hartree/Particle)
 Thermal correction to Energy=                    0.376288
 Thermal correction to Enthalpy=                  0.377232
 Thermal correction to Gibbs Free Energy=         0.305949
 Sum of electronic and zero-point Energies=           -844.473380
 Sum of electronic and thermal Energies=              -844.454172
 Sum of electronic and thermal Enthalpies=            -844.453228
 Sum of electronic and thermal Free Energies=         -844.524511

                     E (Thermal)             CV                S
                      KCal/Mol        Cal/Mol-Kelvin    Cal/Mol-Kelvin
 Total                  236.124             71.853            150.028
 Electronic               0.000              0.000              0.000
 Translational            0.889              2.981             42.591
 Rotational               0.889              2.981             34.216
 Vibrational            234.347             65.891             73.221
 Vibration     1          0.593              1.986              7.095
 Vibration     2          0.593              1.985              6.373
 Vibration     3          0.594              1.983              5.610
 Vibration     4          0.594              1.981              5.276
 Vibration     5          0.595              1.978              4.819
 Vibration     6          0.597              1.974              4.483
 Vibration     7          0.602              1.954              3.591
 Vibration     8          0.605              1.946              3.376
 Vibration     9          0.607              1.940              3.241
 Vibration    10          0.611              1.926              2.992
 Vibration    11          0.640              1.833              2.089
 Vibration    12          0.643              1.823              2.031
 Vibration    13          0.651              1.798              1.894
 Vibration    14          0.654              1.791              1.857
 Vibration    15          0.667              1.748              1.671
 Vibration    16          0.679              1.714              1.544
 Vibration    17          0.686              1.694              1.480
 Vibration    18          0.725              1.582              1.181
 Vibration    19          0.747              1.519              1.052
 Vibration    20          0.760              1.486              0.990
 Vibration    21          0.787              1.417              0.876
 Vibration    22          0.822              1.329              0.753
 Vibration    23          0.826              1.319              0.740
 Vibration    24          0.843              1.280              0.692
 Vibration    25          0.877              1.201              0.605
 Vibration    26          0.902              1.147              0.551
 Vibration    27          0.910              1.129              0.534
 Vibration    28          0.919              1.112              0.518

 Optimization completed.
    -- Stationary point found.
 Normal termination of Gaussian 16 at Sat Dec 12 10:24:44 2020.

 ----------------------------------------------------------------------
 # B3LYP/6-311++G(d,p) empiricaldispersion=gd3bj scf=xqc pop=npa geom=c
 heck
 ----------------------------------------------------------------------

 ---------------------------------------
 CID_103808800_JID_9207_Energie_neutraal
 ---------------------------------------
 Structure from the checkpoint file:  "JID_9207.chk"
 Charge =  0 Multiplicity = 1

 SCF Done:  E(RB3LYP) =  -845.070880637     A.U. after   16 cycles
 Normal termination of Gaussian 16 at Sat Dec 12 10:32:48 2020.

 ----------------------------------------------------------------------
 # B3LYP/6-311++G(d,p) empiricaldispersion=gd3bj scf=xqc pop=npa geom=c
 heck
 ----------------------------------------------------------------------

 -------------------------------------
 CID_103808800_JID_9207_Energie_kation
 -------------------------------------
 Structure from the checkpoint file:  "JID_9207.chk"
 Charge =  1 Multiplicity = 2

 SCF Done:  E(UB3LYP) =  -844.786071507     A.U. after   31 cycles
 Normal termination of Gaussian 16 at Sat Dec 12 10:54:06 2020.
 Gaussian 16:  ES64L-G16RevA.03 25-Dec-2016

 ----------------------------------------------------------------------
 # B3LYP/6-311++G(d,p) empiricaldispersion=gd3bj scf=xqc pop=npa geom=c
 heck
 ----------------------------------------------------------------------

 ------------------------------------
 CID_103808800_JID_9207_Energie_anion
 ------------------------------------
 Structure from the checkpoint file:  "JID_9207.chk"
 Charge = -1 Multiplicity = 2

                         Standard orientation:
 ---------------------------------------------------------------------
 Center     Atomic      Atomic             Coordinates (Angstroms)
 Number     Number       Type             X           Y           Z
 ---------------------------------------------------------------------
      1          6           0       -5.927045    0.457123   -0.832169
      2          8           0       -5.380511   -0.598039   -0.062020
      3          6           0       -4.019941   -0.721068   -0.019426
      4          6           0       -3.530606   -1.783284    0.753724
      5          6           0       -2.160231   -1.988106    0.850295
      6          6           0       -1.262787   -1.146849    0.185558
      7          6           0       -1.745377   -0.086450   -0.583667
      8          6           0       -3.128725    0.126056   -0.683573
      9          6           0       -0.783701    0.873163   -1.242429
     10          6           0       -0.526743    2.120506   -0.369403
     11          7           0       -0.038564    1.816021    0.971663
     12          6           0        1.150670    1.222824    1.292232
     13          8           0        1.344663    0.711333    2.390059
     14          6           0        2.260005    1.185314    0.245379
     15          7           0        2.426130   -0.219387   -0.131257
     16          6           0        3.523257   -0.469147   -1.068187
     17          6           0        4.916325   -0.144667   -0.560038
     18          6           0        5.593000   -1.104672    0.388188
     19          6           0        6.093272   -0.963049   -1.028575
     20          1           0       -7.010593    0.373247   -0.731979
     21          1           0       -5.652248    0.368371   -1.891795
     22          1           0       -5.603346    1.438711   -0.460221
     23          1           0       -4.242035   -2.427461    1.260043
     24          1           0       -1.784228   -2.812142    1.450231
     25          1           0       -0.191368   -1.306214    0.259814
     26          1           0       -3.492405    0.950466   -1.287866
     27          1           0        0.169410    0.366555   -1.424511
     28          1           0       -1.174253    1.212051   -2.210747
     29          1           0        0.177187    2.792168   -0.871614
     30          1           0       -1.458328    2.680616   -0.241370
     31          1           0       -0.746664    1.637282    1.674831
     32          1           0        2.027717    1.762253   -0.654446
     33          1           0        3.152675    1.633625    0.710927
     34          1           0        2.587944   -0.740397    0.730572
     35          1           0        3.481478   -1.531505   -1.341535
     36          1           0        3.314417    0.097797   -1.985414
     37          1           0        5.112688    0.911717   -0.388245
     38          1           0        6.196351   -0.699848    1.195281
     39          1           0        5.061565   -2.017469    0.648727
     40          1           0        5.898499   -1.779449   -1.720010
     41          1           0        7.041113   -0.459343   -1.195282
 ---------------------------------------------------------------------

 SCF Done:  E(UB3LYP) =  -845.062170038     A.U. after   33 cycles
 SCF Done:  E(UB3LYP) =  -845.062170038     a.u. after    1 cycles

 The electronic state is 2-A.
 Alpha  occ. eigenvalues --  -19.06609 -19.00248 -14.24899 -14.22050 -10.18585
 Alpha  occ. eigenvalues --  -10.14569 -10.13232 -10.12154 -10.11648 -10.11580
 Alpha  occ. eigenvalues --  -10.09950 -10.09777 -10.09741 -10.09188 -10.08775
 Alpha  occ. eigenvalues --  -10.08099 -10.08086 -10.07997 -10.07353  -0.98191
 Alpha  occ. eigenvalues --   -0.95371  -0.83847  -0.83013  -0.78016  -0.76816
 Alpha  occ. eigenvalues --   -0.69825  -0.66251  -0.65066  -0.64194  -0.60743
 Alpha  occ. eigenvalues --   -0.58215  -0.55980  -0.52779  -0.51226  -0.50351
 Alpha  occ. eigenvalues --   -0.49455  -0.48070  -0.44486  -0.43489  -0.41640
 Alpha  occ. eigenvalues --   -0.40869  -0.39710  -0.39420  -0.39103  -0.38916
 Alpha  occ. eigenvalues --   -0.38151  -0.35998  -0.35250  -0.35009  -0.34005
 Alpha  occ. eigenvalues --   -0.32600  -0.32586  -0.31336  -0.30542  -0.29590
 Alpha  occ. eigenvalues --   -0.29345  -0.29134  -0.28623  -0.28165  -0.27578
 Alpha  occ. eigenvalues --   -0.27030  -0.26019  -0.23862  -0.23093  -0.22416
 Alpha  occ. eigenvalues --   -0.21517  -0.18078  -0.17141  -0.16025  -0.14999
 Alpha  occ. eigenvalues --   -0.13602   0.03685
 Alpha virt. eigenvalues --    0.05061   0.06151   0.06583   0.07170   0.07242
 Alpha virt. eigenvalues --    0.07537   0.07986   0.08294   0.08823   0.08960
 Alpha virt. eigenvalues --    0.09330   0.09600   0.09807   0.10412   0.10772

  Beta  occ. eigenvalues --  -19.06603 -19.00247 -14.24896 -14.22048 -10.18585
  Beta  occ. eigenvalues --  -10.14572 -10.13187 -10.12120 -10.11638 -10.11561
  Beta  occ. eigenvalues --  -10.09940 -10.09764 -10.09734 -10.09175 -10.08774
  Beta  occ. eigenvalues --  -10.08084 -10.08069 -10.07971 -10.07349  -0.98176
  Beta  occ. eigenvalues --   -0.95367  -0.83835  -0.83002  -0.78000  -0.76790
  Beta  occ. eigenvalues --   -0.69786  -0.66221  -0.65040  -0.64149  -0.60685
  Beta  occ. eigenvalues --   -0.58190  -0.55931  -0.52744  -0.51191  -0.50324
  Beta  occ. eigenvalues --   -0.49422  -0.48041  -0.44460  -0.43461  -0.41599
  Beta  occ. eigenvalues --   -0.40834  -0.39674  -0.39396  -0.39083  -0.38888
  Beta  occ. eigenvalues --   -0.38121  -0.35962  -0.35219  -0.34981  -0.33978
  Beta  occ. eigenvalues --   -0.32575  -0.32553  -0.31315  -0.30514  -0.29559
  Beta  occ. eigenvalues --   -0.29325  -0.29114  -0.28587  -0.28143  -0.27553
  Beta  occ. eigenvalues --   -0.26996  -0.25995  -0.23832  -0.23060  -0.22398
  Beta  occ. eigenvalues --   -0.21500  -0.18065  -0.17113  -0.15961  -0.14989
  Beta  occ. eigenvalues --   -0.13545
  Beta virt. eigenvalues --    0.05573   0.06177   0.06628   0.06944   0.07205
  Beta virt. eigenvalues --    0.07581   0.07750   0.08410   0.08730   0.08901
  Beta virt. eigenvalues --    0.09224   0.09499   0.09802   0.10137   0.10675

 Mulliken charges and spin densities:
               1          2
     1  C    0.599277  -0.974121
     2  O   -0.207035   0.052950
     3  C   -0.683468  -0.159140
     4  C    0.056686  -0.200323
     5  C   -0.326315   0.102088
     6  C   -0.468370  -0.058418
     7  C    1.364936  -0.422835
     8  C    0.326498  -0.063837
     9  C   -0.479573   0.376637
    10  C    0.484296  -1.142291
    11  N   -0.021769   0.043237
    12  C   -0.500009   0.219683
    13  O   -0.318085   0.002182
    14  C   -0.100400  -0.303130
    15  N    0.000597   0.041157
    16  C    0.372807  -0.971459
    17  C   -0.566136   0.951508
    18  C   -0.292994  -0.141888
    19  C    0.533255  -0.959422
    20  H   -0.287668   0.456538
    21  H   -0.287896   0.453422
    22  H   -0.257431   0.420574
    23  H    0.152085   0.010892
    24  H    0.137106   0.023123
    25  H    0.158113  -0.010988
    26  H    0.152872   0.040226
    27  H    0.395725  -0.190593
    28  H   -0.625692   0.826226
    29  H   -0.482178   0.653641
    30  H   -0.255705   0.442622
    31  H    0.235232   0.045839
    32  H    0.097045   0.077130
    33  H    0.088052   0.063797
    34  H    0.209212   0.001341
    35  H    0.070056   0.105703
    36  H   -0.087476   0.225367
    37  H   -0.265330   0.486690
    38  H    0.127360   0.018975
    39  H    0.086563   0.054687
    40  H    0.076981   0.037859
    41  H   -0.211222   0.364349
 Sum of Mulliken charges =  -1.00000   1.00000

 Dipole moment (field-independent basis, Debye):
    X=              2.9690    Y=             -5.3188    Z=              2.9475  Tot=              6.7670
 Quadrupole moment (field-independent basis, Debye-Ang):
   XX=           -238.1589   YY=           -154.5668   ZZ=           -161.0187
   XY=              3.3092   XZ=             -8.6718   YZ=              7.1475

 Summary of Natural Population Analysis:

                                       Natural Population
                Natural  -----------------------------------------------
    Atom  No    Charge         Core      Valence    Rydberg      Total
 -----------------------------------------------------------------------
      C    1   -0.10117      0.99960     2.09246    0.00911     3.10117
      O    2   -0.27433      0.99986     3.26495    0.00952     4.27433
      C    3    0.16167      0.99938     1.82483    0.01412     2.83833
      C    4   -0.12394      0.99952     2.11545    0.00897     3.12394
      C    5   -0.09308      0.99957     2.08445    0.00906     3.09308
      C    6   -0.11873      0.99950     2.11081    0.00842     3.11873
      C    7   -0.00483      0.99952     1.99443    0.01088     3.00483
      C    8   -0.14470      0.99946     2.13638    0.00885     3.14470
      C    9   -0.20934      0.99959     2.19922    0.01054     3.20934
      C   10   -0.08514      0.99960     2.07366    0.01188     3.08514
      N   11   -0.31457      0.99967     2.80545    0.00945     3.81457
      C   12    0.34445      0.99967     1.63242    0.02345     2.65555
      O   13   -0.32799      0.99988     3.32244    0.00567     4.32799
      C   14   -0.13057      0.99959     2.12025    0.01073     3.13057
      N   15   -0.33747      0.99975     2.82780    0.00991     3.83747
      C   16   -0.08688      0.99961     2.07433    0.01295     3.08688
      C   17   -0.12639      0.99959     2.11626    0.01055     3.12639
      C   18   -0.20087      0.99962     2.19290    0.00835     3.20087
      C   19   -0.19748      0.99962     2.18971    0.00815     3.19748
      H   20    0.09276      0.00000     0.40612    0.00112     0.40724
      H   21    0.08685      0.00000     0.41141    0.00174     0.41315
      H   22    0.08659      0.00000     0.41159    0.00182     0.41341
      H   23    0.10386      0.00000     0.39521    0.00093     0.39614
      H   24    0.09878      0.00000     0.40048    0.00074     0.40122
      H   25    0.10861      0.00000     0.38971    0.00169     0.39139
      H   26    0.10841      0.00000     0.38964    0.00194     0.39159
      H   27    0.10894      0.00000     0.38836    0.00270     0.39106
      H   28    0.10775      0.00000     0.39036    0.00188     0.39225
      H   29    0.10051      0.00000     0.39734    0.00215     0.39949
      H   30    0.10214      0.00000     0.39630    0.00156     0.39786
      H   31    0.19582      0.00000     0.30212    0.00206     0.30418
      H   32    0.09798      0.00000     0.40041    0.00162     0.40202
      H   33    0.09375      0.00000     0.40488    0.00136     0.40625
      H   34    0.17783      0.00000     0.31961    0.00256     0.32217
      H   35    0.09279      0.00000     0.40613    0.00108     0.40721
      H   36    0.09656      0.00000     0.40232    0.00113     0.40344
      H   37    0.10580      0.00000     0.39284    0.00136     0.39420
      H   38    0.10349      0.00000     0.39578    0.00073     0.39651
      H   39    0.09887      0.00000     0.40022    0.00092     0.40113
      H   40    0.09942      0.00000     0.39973    0.00085     0.40058
      H   41    0.10388      0.00000     0.39509    0.00103     0.39612
 =======================================================================
   * Total *   -0.00000     18.99260    51.77386    0.23354    71.00000

 Normal termination of Gaussian 16 at Sat Dec 12 11:16:23 2020.
