 Gaussian 16, Revision A.03,

 -----------------------------------------------------------
 # opt freq B3LYP/6-31G(d) empiricaldispersion=gd3bj scf=xqc
 -----------------------------------------------------------

 ------------------------------
 CID_84090536_JID_7088_neutraal
 ------------------------------
 Symbolic Z-matrix:
 Charge =  0 Multiplicity = 1

 SCF Done:  E(RB3LYP) =  -752.642590991     A.U. after   14 cycles
 SCF Done:  E(RB3LYP) =  -752.644706349     A.U. after   11 cycles
 SCF Done:  E(RB3LYP) =  -752.643887801     A.U. after   13 cycles
 SCF Done:  E(RB3LYP) =  -752.644803476     A.U. after   12 cycles
 SCF Done:  E(RB3LYP) =  -752.645488476     A.U. after   11 cycles
 SCF Done:  E(RB3LYP) =  -752.645545043     A.U. after   11 cycles
 SCF Done:  E(RB3LYP) =  -752.645549987     A.U. after   10 cycles
 SCF Done:  E(RB3LYP) =  -752.645576855     A.U. after   10 cycles
 SCF Done:  E(RB3LYP) =  -752.645582028     A.U. after    9 cycles
 SCF Done:  E(RB3LYP) =  -752.645582591     A.U. after    8 cycles
 SCF Done:  E(RB3LYP) =  -752.645583046     A.U. after    8 cycles
 SCF Done:  E(RB3LYP) =  -752.645583047     A.U. after    6 cycles
 Optimization completed.
    -- Stationary point found.
 Normal termination of Gaussian 16 at Sun Dec 13 16:09:33 2020.

 --------------------------------------------------------------------
 #N Geom=AllCheck Guess=TCheck SCRF=Check GenChk RB3LYP/6-31G(d) Freq
 --------------------------------------------------------------------

 Structure from the checkpoint file:  "JID_7088.chk"
 ------------------------------
 CID_84090536_JID_7088_neutraal
 ------------------------------
 Charge =  0 Multiplicity = 1

 SCF Done:  E(RB3LYP) =  -752.645583047     A.U. after    1 cycles

  Exact polarizability: 155.878  -3.443 146.164  -0.995  -0.789 135.517
 Approx polarizability: 202.382  -2.908 216.302  -5.676   3.981 215.458

                      1                      2                      3
                      A                      A                      A
 Frequencies --     34.6170                70.6850                72.8846
 Red. masses --      3.9343                10.9198                 3.8926
 Frc consts  --      0.0028                 0.0321                 0.0122
 IR Inten    --      0.0274                 2.5944                 0.3378

                      4                      5                      6
                      A                      A                      A
 Frequencies --    106.8477               123.4736               157.8037
 Red. masses --      4.7515                 2.6747                 3.2047
 Frc consts  --      0.0320                 0.0240                 0.0470
 IR Inten    --      0.1845                 1.0220                 0.8917

                      7                      8                      9
                      A                      A                      A
 Frequencies --    182.4597               218.8961               254.5434
 Red. masses --      2.7686                 2.1175                 1.7501
 Frc consts  --      0.0543                 0.0598                 0.0668
 IR Inten    --      0.6970                 0.5642                 1.3254

                     10                     11                     12
                      A                      A                      A
 Frequencies --    316.5732               330.4005               344.2986
 Red. masses --      2.4166                 2.1260                 2.2583
 Frc consts  --      0.1427                 0.1367                 0.1577
 IR Inten    --      1.4825                 0.0665                 0.0160

                     13                     14                     15
                      A                      A                      A
 Frequencies --    365.5483               386.5190               392.8971
 Red. masses --      3.1160                 3.4484                 2.2844
 Frc consts  --      0.2453                 0.3035                 0.2078
 IR Inten    --      0.8918                 2.1875                 0.1991

                     16                     17                     18
                      A                      A                      A
 Frequencies --    423.5921               453.5003               453.6000
 Red. masses --      4.2039                 1.7958                 1.7829
 Frc consts  --      0.4444                 0.2176                 0.2161
 IR Inten    --      0.4525                 0.0129                 0.2688

                     19                     20                     21
                      A                      A                      A
 Frequencies --    481.1271               493.8501               542.8274
 Red. masses --      4.5891                 3.5532                 2.8251
 Frc consts  --      0.6259                 0.5106                 0.4905
 IR Inten    --      4.7352                 2.4543                22.9493

                     22                     23                     24
                      A                      A                      A
 Frequencies --    606.3062               635.4609               652.5490
 Red. masses --      3.7022                 2.6703                 3.1026
 Frc consts  --      0.8018                 0.6353                 0.7784
 IR Inten    --     51.2609                 9.7349                 5.5088

                     25                     26                     27
                      A                      A                      A
 Frequencies --    675.8211               679.0773               729.3824
 Red. masses --      1.6479                 3.4274                 1.7789
 Frc consts  --      0.4434                 0.9312                 0.5576
 IR Inten    --     33.2889                 0.2897               130.7948

                     28                     29                     30
                      A                      A                      A
 Frequencies --    744.8289               768.4750               788.4104
 Red. masses --      2.9633                 2.9868                 2.9247
 Frc consts  --      0.9686                 1.0392                 1.0711
 IR Inten    --     14.4057                60.4464                 6.5716

                     31                     32                     33
                      A                      A                      A
 Frequencies --    813.2681               835.8479               856.3909
 Red. masses --      2.6917                 2.7862                 2.7189
 Frc consts  --      1.0489                 1.1469                 1.1749
 IR Inten    --      0.6103                 1.0262                13.9221

                     34                     35                     36
                      A                      A                      A
 Frequencies --    901.4714               906.7622               910.9044
 Red. masses --      1.7420                 1.5698                 2.2096
 Frc consts  --      0.8341                 0.7604                 1.0802
 IR Inten    --      0.4587                 0.0314                 1.1188

                     37                     38                     39
                      A                      A                      A
 Frequencies --    923.5493               928.9120               959.2329
 Red. masses --      2.1736                 2.1835                 2.1196
 Frc consts  --      1.0923                 1.1101                 1.1491
 IR Inten    --      0.6459                 0.2914                 3.1415

                     40                     41                     42
                      A                      A                      A
 Frequencies --    966.7155               997.2528              1013.3006
 Red. masses --      2.1007                 2.2012                 2.0081
 Frc consts  --      1.1567                 1.2898                 1.2148
 IR Inten    --      1.6895                 2.3284                 8.2765

                     43                     44                     45
                      A                      A                      A
 Frequencies --   1037.6796              1051.7603              1059.4076
 Red. masses --      2.0148                 2.8243                 2.3824
 Frc consts  --      1.2782                 1.8408                 1.5754
 IR Inten    --      4.0247                 5.6526                 1.0090

                     46                     47                     48
                      A                      A                      A
 Frequencies --   1061.6137              1084.5613              1093.9775
 Red. masses --      1.8294                 1.9746                 1.9625
 Frc consts  --      1.2147                 1.3684                 1.3838
 IR Inten    --      0.9912                 1.9080                 0.4723

                     49                     50                     51
                      A                      A                      A
 Frequencies --   1126.8302              1129.5019              1135.1445
 Red. masses --      1.7918                 1.6016                 2.1025
 Frc consts  --      1.3404                 1.2039                 1.5962
 IR Inten    --      7.7048                 2.2577                20.7649

                     52                     53                     54
                      A                      A                      A
 Frequencies --   1142.8166              1148.3669              1149.1792
 Red. masses --      1.0224                 1.7697                 1.2209
 Frc consts  --      0.7868                 1.3750                 0.9500
 IR Inten    --      0.0732                44.7867                18.5657

                     55                     56                     57
                      A                      A                      A
 Frequencies --   1152.8901              1171.9831              1191.9039
 Red. masses --      1.0454                 1.4779                 2.0136
 Frc consts  --      0.8187                 1.1960                 1.6855
 IR Inten    --      2.5802                10.4104               110.7278

                     58                     59                     60
                      A                      A                      A
 Frequencies --   1205.4508              1226.7756              1256.3575
 Red. masses --      1.2750                 1.7647                 1.1207
 Frc consts  --      1.0916                 1.5648                 1.0423
 IR Inten    --      7.1274                78.6054                 3.2305

                     61                     62                     63
                      A                      A                      A
 Frequencies --   1258.4904              1276.0534              1304.8282
 Red. masses --      1.1404                 1.4121                 1.5765
 Frc consts  --      1.0641                 1.3547                 1.5814
 IR Inten    --      8.2204                 7.4193                 0.9765

                     64                     65                     66
                      A                      A                      A
 Frequencies --   1324.1071              1330.9383              1344.1167
 Red. masses --      1.5360                 1.6743                 1.6013
 Frc consts  --      1.5867                 1.7474                 1.7046
 IR Inten    --      0.9300                 0.0410                 0.8780

                     67                     68                     69
                      A                      A                      A
 Frequencies --   1349.4153              1355.3488              1360.6798
 Red. masses --      1.5598                 1.7602                 1.9851
 Frc consts  --      1.6734                 1.9051                 2.1654
 IR Inten    --      6.0831                 4.6742                 1.1178

                     70                     71                     72
                      A                      A                      A
 Frequencies --   1367.7096              1369.7022              1372.9335
 Red. masses --      1.4621                 1.3266                 1.3320
 Frc consts  --      1.6114                 1.4664                 1.4793
 IR Inten    --      2.6608                 0.5165                 0.2816

                     73                     74                     75
                      A                      A                      A
 Frequencies --   1381.1650              1396.4344              1407.7831
 Red. masses --      1.3837                 1.6203                 1.4740
 Frc consts  --      1.5552                 1.8617                 1.7212
 IR Inten    --      3.2738                 6.9905                 1.4214

                     76                     77                     78
                      A                      A                      A
 Frequencies --   1410.7533              1413.6067              1420.9067
 Red. masses --      1.8011                 1.4734                 1.4720
 Frc consts  --      2.1119                 1.7347                 1.7510
 IR Inten    --     15.7609                 2.3920                 0.2849

                     79                     80                     81
                      A                      A                      A
 Frequencies --   1424.6598              1437.8262              1483.4748
 Red. masses --      1.5582                 1.5404                 1.1598
 Frc consts  --      1.8634                 1.8763                 1.5038
 IR Inten    --      1.1173                 0.2458                 1.0712

                     82                     83                     84
                      A                      A                      A
 Frequencies --   1509.7303              1512.9301              1515.2389
 Red. masses --      1.1009                 1.1032                 1.1079
 Frc consts  --      1.4784                 1.4878                 1.4986
 IR Inten    --      3.8091                 4.9657                 8.7754

                     85                     86                     87
                      A                      A                      A
 Frequencies --   1518.7808              1523.9113              1525.9239
 Red. masses --      1.1701                 1.0743                 1.0980
 Frc consts  --      1.5903                 1.4700                 1.5063
 IR Inten    --     11.0184                 7.7516                10.8413

                     88                     89                     90
                      A                      A                      A
 Frequencies --   1533.6175              1546.4256              1552.3716
 Red. masses --      1.0908                 1.0882                 1.0517
 Frc consts  --      1.5116                 1.5333                 1.4932
 IR Inten    --      7.9633                 8.5696                 2.3175

                     91                     92                     93
                      A                      A                      A
 Frequencies --   1831.2776              2975.8411              3001.0818
 Red. masses --      9.7055                 1.0579                 1.0818
 Frc consts  --     19.1768                 5.5195                 5.7407
 IR Inten    --    204.6185                60.2452                25.9557

                     94                     95                     96
                      A                      A                      A
 Frequencies --   3021.2273              3024.1798              3025.0837
 Red. masses --      1.0708                 1.0635                 1.0614
 Frc consts  --      5.7588                 5.7308                 5.7226
 IR Inten    --      9.5721                16.8021                18.2788

                     97                     98                     99
                      A                      A                      A
 Frequencies --   3025.3637              3029.4212              3035.6456
 Red. masses --      1.0815                 1.0690                 1.0721
 Frc consts  --      5.8321                 5.7803                 5.8210
 IR Inten    --     15.5698                20.7208                 7.9385

                    100                    101                    102
                      A                      A                      A
 Frequencies --   3039.9100              3047.1987              3054.0633
 Red. masses --      1.0723                 1.0814                 1.0785
 Frc consts  --      5.8384                 5.9161                 5.9268
 IR Inten    --     98.9640               125.8552                89.5171

                    103                    104                    105
                      A                      A                      A
 Frequencies --   3058.0924              3060.3104              3065.5454
 Red. masses --      1.0718                 1.1050                 1.1030
 Frc consts  --      5.9054                 6.0971                 6.1071
 IR Inten    --     46.7757                 1.9010                87.1478

                    106                    107                    108
                      A                      A                      A
 Frequencies --   3066.4361              3069.9207              3072.2809
 Red. masses --      1.1029                 1.0845                 1.0774
 Frc consts  --      6.1099                 6.0218                 5.9917
 IR Inten    --     72.3620                39.9020                45.4413

                    109                    110                    111
                      A                      A                      A
 Frequencies --   3077.5464              3098.5790              3120.8893
 Red. masses --      1.1007                 1.0951                 1.1016
 Frc consts  --      6.1423                 6.1948                 6.3216
 IR Inten    --     42.7443                24.1988                32.8120

                    112                    113                    114
                      A                      A                      A
 Frequencies --   3125.1007              3528.9345              3678.2491
 Red. masses --      1.0924                 1.0741                 1.0639
 Frc consts  --      6.2860                 7.8809                 8.4806
 IR Inten    --     14.9073                 0.1863                48.8843

 - Thermochemistry -
 -------------------
 Temperature   298.150 Kelvin.  Pressure   1.00000 Atm.
 Atom     1 has atomic number  6 and mass  12.00000

 Molecular mass:   237.17288 amu.
 Principal axes and moments of inertia in atomic units:
                           1         2         3
     Eigenvalues --  2243.119505142.068155818.31445
           X            0.99965  -0.02642   0.00234
           Y            0.02645   0.99950  -0.01715
           Z           -0.00188   0.01721   0.99985
 This molecule is an asymmetric top.
 Rotational symmetry number  1.
 Warning -- assumption of classical behavior for rotation
           may cause significant error
 Rotational temperatures (Kelvin)      0.03861     0.01684     0.01489
 Rotational constants (GHZ):           0.80457     0.35098     0.31018
 Zero-point vibrational energy     954554.8 (Joules/Mol)
                                  228.14408 (Kcal/Mol)
 Warning -- explicit consideration of  22 degrees of freedom as
           vibrations may cause significant error
 Vibrational temperatures:     49.81   101.70   104.86   153.73   177.65
          (Kelvin)            227.04   262.52   314.94   366.23   455.48
                              475.37   495.37   525.94   556.11   565.29
                              609.45   652.49   652.63   692.23   710.54
                              781.01   872.34   914.29   938.87   972.36
                              977.04  1049.42  1071.64  1105.66  1134.35
                             1170.11  1202.60  1232.16  1297.02  1304.63
                             1310.59  1328.78  1336.50  1380.12  1390.89
                             1434.82  1457.91  1492.99  1513.25  1524.25
                             1527.43  1560.44  1573.99  1621.26  1625.10
                             1633.22  1644.26  1652.24  1653.41  1658.75
                             1686.22  1714.88  1734.37  1765.06  1807.62
                             1810.69  1835.96  1877.36  1905.09  1914.92
                             1933.88  1941.51  1950.04  1957.71  1967.83
                             1970.70  1975.35  1987.19  2009.16  2025.49
                             2029.76  2033.86  2044.37  2049.77  2068.71
                             2134.39  2172.17  2176.77  2180.09  2185.19
                             2192.57  2195.46  2206.53  2224.96  2233.52
                             2634.80  4281.57  4317.89  4346.87  4351.12
                             4352.42  4352.82  4358.66  4367.62  4373.75
                             4384.24  4394.12  4399.91  4403.10  4410.64
                             4411.92  4416.93  4420.33  4427.90  4458.16
                             4490.26  4496.32  5077.35  5292.18

 Zero-point correction=                           0.363571 (Hartree/Particle)
 Thermal correction to Energy=                    0.378384
 Thermal correction to Enthalpy=                  0.379328
 Thermal correction to Gibbs Free Energy=         0.321935
 Sum of electronic and zero-point Energies=           -752.282012
 Sum of electronic and thermal Energies=              -752.267199
 Sum of electronic and thermal Enthalpies=            -752.266255
 Sum of electronic and thermal Free Energies=         -752.323648

                     E (Thermal)             CV                S
                      KCal/Mol        Cal/Mol-Kelvin    Cal/Mol-Kelvin
 Total                  237.439             61.320            120.793
 Electronic               0.000              0.000              0.000
 Translational            0.889              2.981             42.292
 Rotational               0.889              2.981             32.573
 Vibrational            235.662             55.358             45.928
 Vibration     1          0.594              1.983              5.546
 Vibration     2          0.598              1.968              4.134
 Vibration     3          0.599              1.967              4.074
 Vibration     4          0.606              1.944              3.325
 Vibration     5          0.610              1.929              3.045
 Vibration     6          0.621              1.894              2.576
 Vibration     7          0.630              1.864              2.303
 Vibration     8          0.647              1.812              1.968
 Vibration     9          0.665              1.755              1.699
 Vibration    10          0.703              1.642              1.328
 Vibration    11          0.713              1.615              1.258
 Vibration    12          0.723              1.587              1.192
 Vibration    13          0.739              1.543              1.098
 Vibration    14          0.755              1.499              1.014
 Vibration    15          0.760              1.485              0.989
 Vibration    16          0.786              1.419              0.880
 Vibration    17          0.812              1.353              0.785
 Vibration    18          0.812              1.353              0.785
 Vibration    19          0.837              1.292              0.707
 Vibration    20          0.850              1.264              0.674
 Vibration    21          0.898              1.155              0.559
 Vibration    22          0.965              1.018              0.439

 Optimization completed.
    -- Stationary point found.
 Normal termination of Gaussian 16 at Sun Dec 13 16:29:14 2020.

 ----------------------------------------------------------------------
 # B3LYP/6-311++G(d,p) empiricaldispersion=gd3bj scf=xqc pop=npa geom=c
 heck
 ----------------------------------------------------------------------

 --------------------------------------
 CID_84090536_JID_7088_Energie_neutraal
 --------------------------------------
 Structure from the checkpoint file:  "JID_7088.chk"
 Charge =  0 Multiplicity = 1

 SCF Done:  E(RB3LYP) =  -752.860262832     A.U. after   14 cycles
 Normal termination of Gaussian 16 at Sun Dec 13 16:38:43 2020.

 ----------------------------------------------------------------------
 # B3LYP/6-311++G(d,p) empiricaldispersion=gd3bj scf=xqc pop=npa geom=c
 heck
 ----------------------------------------------------------------------

 ------------------------------------
 CID_84090536_JID_7088_Energie_kation
 ------------------------------------
 Structure from the checkpoint file:  "JID_7088.chk"
 Charge =  1 Multiplicity = 2

 SCF Done:  E(UB3LYP) =  -752.551998124     A.U. after   33 cycles
 SCF Done:  E(UB3LYP) =  -752.551998124     a.u. after    1 cycles
 Normal termination of Gaussian 16 at Sun Dec 13 17:10:25 2020.
 Gaussian 16:  ES64L-G16RevA.03 25-Dec-2016

 ----------------------------------------------------------------------
 # B3LYP/6-311++G(d,p) empiricaldispersion=gd3bj scf=xqc pop=npa geom=c
 heck
 ----------------------------------------------------------------------

 -----------------------------------
 CID_84090536_JID_7088_Energie_anion
 -----------------------------------
 Structure from the checkpoint file:  "JID_7088.chk"
 Charge = -1 Multiplicity = 2

                         Standard orientation:
 ---------------------------------------------------------------------
 Center     Atomic      Atomic             Coordinates (Angstroms)
 Number     Number       Type             X           Y           Z
 ---------------------------------------------------------------------
      1          6           0       -2.943823    2.501076    0.099178
      2          7           0       -2.874657    1.106147    0.511028
      3          6           0       -2.421206    0.195692   -0.528659
      4          6           0       -1.026587    0.472670   -1.157755
      5          6           0        0.111978    0.721285   -0.158033
      6          6           0        0.471593   -0.476907    0.756220
      7          6           0        1.093623   -1.625298   -0.062000
      8          6           0        2.374658   -1.128876   -0.759270
      9          6           0        3.385163   -0.654302    0.302629
     10          6           0        2.771166    0.494416    1.125528
     11          6           0        1.487923   -0.003696    1.815097
     12          6           0        2.421158    1.663913    0.186539
     13          6           0        1.403627    1.194640   -0.870385
     14          6           0        2.026383    0.047510   -1.691143
     15          6           0       -2.514859   -1.262506   -0.094753
     16          8           0       -2.248020   -2.196509   -0.821399
     17          8           0       -2.920166   -1.437533    1.184466
     18          1           0       -3.643956    2.591378   -0.740068
     19          1           0       -1.985587    2.948824   -0.216548
     20          1           0       -3.339903    3.096740    0.927589
     21          1           0       -2.304259    1.003509    1.345759
     22          1           0       -3.146231    0.270151   -1.352372
     23          1           0       -0.801296   -0.359025   -1.830124
     24          1           0       -1.118210    1.363653   -1.791047
     25          1           0       -0.210987    1.544153    0.497618
     26          1           0       -0.425772   -0.836695    1.272224
     27          1           0        1.334511   -2.460378    0.609682
     28          1           0        0.377470   -2.010156   -0.795548
     29          1           0        2.813536   -1.945402   -1.346607
     30          1           0        4.310866   -0.315832   -0.182272
     31          1           0        3.654706   -1.488423    0.964508
     32          1           0        3.489880    0.831963    1.883333
     33          1           0        1.724855   -0.830565    2.497915
     34          1           0        1.050692    0.799793    2.423823
     35          1           0        3.329479    2.035113   -0.306914
     36          1           0        2.004244    2.500043    0.764290
     37          1           0        1.156880    2.032042   -1.537230
     38          1           0        1.339808   -0.284667   -2.478978
     39          1           0        2.933042    0.408950   -2.194780
     40          1           0       -2.920461   -2.403574    1.324865
 ---------------------------------------------------------------------

 SCF Done:  E(UB3LYP) =  -752.849763628     A.U. after   33 cycles
 SCF Done:  E(UB3LYP) =  -752.849763628     a.u. after    1 cycles

 The electronic state is 2-A.
 Alpha  occ. eigenvalues --  -19.07891 -19.02205 -14.20633 -10.21356 -10.12240
 Alpha  occ. eigenvalues --  -10.09413 -10.07140 -10.07105 -10.06994 -10.06992
 Alpha  occ. eigenvalues --  -10.06890 -10.06877 -10.06211 -10.06156 -10.06033
 Alpha  occ. eigenvalues --  -10.06001 -10.05784  -1.01992  -0.92885  -0.82044
 Alpha  occ. eigenvalues --   -0.77292  -0.69480  -0.66967  -0.66867  -0.65527
 Alpha  occ. eigenvalues --   -0.60223  -0.56632  -0.55997  -0.54392  -0.50144
 Alpha  occ. eigenvalues --   -0.48729  -0.48552  -0.46662  -0.42810  -0.41971
 Alpha  occ. eigenvalues --   -0.39830  -0.38537  -0.37119  -0.36032  -0.35344
 Alpha  occ. eigenvalues --   -0.35027  -0.34611  -0.33408  -0.32748  -0.32018
 Alpha  occ. eigenvalues --   -0.30800  -0.30370  -0.30222  -0.29458  -0.29226
 Alpha  occ. eigenvalues --   -0.28874  -0.28521  -0.27267  -0.26709  -0.23819
 Alpha  occ. eigenvalues --   -0.23051  -0.22707  -0.22457  -0.22350  -0.21840
 Alpha  occ. eigenvalues --   -0.19317  -0.18438  -0.18226  -0.18076  -0.13362
 Alpha  occ. eigenvalues --    0.04004
 Alpha virt. eigenvalues --    0.06146   0.06275   0.07175   0.08005   0.08127
 Alpha virt. eigenvalues --    0.08879   0.08930   0.09440   0.09842   0.10518
 Alpha virt. eigenvalues --    0.10829   0.11219   0.11843   0.12234   0.12852

  Beta  occ. eigenvalues --  -19.07854 -19.02191 -14.20621 -10.21347 -10.12230
  Beta  occ. eigenvalues --  -10.09379 -10.07129 -10.07097 -10.06989 -10.06986
  Beta  occ. eigenvalues --  -10.06886 -10.06869 -10.06199 -10.06141 -10.06016
  Beta  occ. eigenvalues --  -10.05982 -10.05774  -1.01939  -0.92842  -0.82021
  Beta  occ. eigenvalues --   -0.77268  -0.69455  -0.66942  -0.66843  -0.65491
  Beta  occ. eigenvalues --   -0.60183  -0.56596  -0.55934  -0.54330  -0.50097
  Beta  occ. eigenvalues --   -0.48697  -0.48524  -0.46627  -0.42773  -0.41914
  Beta  occ. eigenvalues --   -0.39800  -0.38497  -0.37077  -0.35996  -0.35314
  Beta  occ. eigenvalues --   -0.35000  -0.34571  -0.33379  -0.32714  -0.31985
  Beta  occ. eigenvalues --   -0.30780  -0.30343  -0.30197  -0.29431  -0.29196
  Beta  occ. eigenvalues --   -0.28843  -0.28490  -0.27240  -0.26682  -0.23778
  Beta  occ. eigenvalues --   -0.23027  -0.22685  -0.22431  -0.22327  -0.21814
  Beta  occ. eigenvalues --   -0.19282  -0.18407  -0.18196  -0.18045  -0.13341
  Beta virt. eigenvalues --    0.06018   0.06821   0.07122   0.07684   0.08353
  Beta virt. eigenvalues --    0.08507   0.09234   0.09300   0.09694   0.10171
  Beta virt. eigenvalues --    0.10830   0.11146   0.11410   0.12081   0.12508

 Mulliken charges and spin densities:
               1          2
     1  C    0.704167  -1.018707
     2  N    0.029136  -0.041194
     3  C   -0.026180  -0.004414
     4  C    0.461134  -0.888968
     5  C   -0.480068   0.015244
     6  C    0.613913   0.115393
     7  C   -0.371238  -0.662720
     8  C   -0.358291   0.842548
     9  C    1.027176  -1.672408
    10  C   -0.738391   1.218421
    11  C   -0.730389  -0.222086
    12  C    0.235016  -1.173364
    13  C   -0.423979   0.991079
    14  C    0.218794  -1.055994
    15  C   -0.337195  -0.317795
    16  O   -0.215878   0.029779
    17  O   -0.084947   0.003795
    18  H   -0.165262   0.308859
    19  H   -0.118054   0.265156
    20  H   -0.278657   0.427383
    21  H    0.175709   0.088612
    22  H   -0.074122   0.282402
    23  H    0.355518  -0.159286
    24  H    0.110454   0.071162
    25  H    0.613133  -0.337122
    26  H    0.463858  -0.166184
    27  H   -0.135485   0.286776
    28  H    0.113892   0.062358
    29  H    0.079431   0.141300
    30  H   -0.134873   0.278759
    31  H    0.005423   0.132769
    32  H   -0.157261   0.389520
    33  H   -0.130404   0.286854
    34  H   -0.314160   0.451282
    35  H   -0.064981   0.224926
    36  H   -0.260887   0.391659
    37  H   -0.182783   0.417071
    38  H   -0.042054   0.163295
    39  H   -0.124690   0.289372
    40  H   -0.256523   0.544468
 Sum of Mulliken charges =  -1.00000   1.00000

 Dipole moment (field-independent basis, Debye):
    X=              0.1740    Y=             -1.2814    Z=             -1.5974  Tot=              2.0552
 Quadrupole moment (field-independent basis, Debye-Ang):
   XX=           -175.2567   YY=           -157.6284   ZZ=           -144.3159
   XY=             -2.9255   XZ=              2.1878   YZ=             -0.3921

 Summary of Natural Population Analysis:

                                       Natural Population
                Natural  -----------------------------------------------
    Atom  No    Charge         Core      Valence    Rydberg      Total
 -----------------------------------------------------------------------
      C    1   -0.17700      0.99966     2.17038    0.00697     3.17700
      N    2   -0.33644      0.99974     2.82541    0.01128     3.83644
      C    3   -0.05088      0.99953     2.03762    0.01372     3.05088
      C    4   -0.19676      0.99959     2.18749    0.00968     3.19676
      C    5   -0.11222      0.99956     2.09930    0.01337     3.11222
      C    6   -0.11586      0.99957     2.10367    0.01262     3.11586
      C    7   -0.19192      0.99960     2.18273    0.00959     3.19192
      C    8   -0.11063      0.99959     2.10026    0.01078     3.11063
      C    9   -0.18716      0.99960     2.17795    0.00961     3.18716
      C   10   -0.11119      0.99959     2.10002    0.01158     3.11119
      C   11   -0.18419      0.99960     2.17438    0.01020     3.18419
      C   12   -0.18560      0.99960     2.17588    0.01011     3.18560
      C   13   -0.10744      0.99958     2.09519    0.01267     3.10744
      C   14   -0.18847      0.99960     2.17957    0.00930     3.18847
      C   15    0.41009      0.99968     1.56392    0.02631     2.58991
      O   16   -0.31211      0.99987     3.30624    0.00601     4.31211
      O   17   -0.33804      0.99987     3.33148    0.00669     4.33804
      H   18    0.09026      0.00000     0.40851    0.00123     0.40974
      H   19    0.08197      0.00000     0.41619    0.00184     0.41803
      H   20    0.09631      0.00000     0.40260    0.00109     0.40369
      H   21    0.17772      0.00000     0.31879    0.00349     0.32228
      H   22    0.10891      0.00000     0.38991    0.00119     0.39109
      H   23    0.10980      0.00000     0.38882    0.00138     0.39020
      H   24    0.10127      0.00000     0.39752    0.00122     0.39873
      H   25    0.09953      0.00000     0.39797    0.00250     0.40047
      H   26    0.10102      0.00000     0.39653    0.00245     0.39898
      H   27    0.09823      0.00000     0.40066    0.00111     0.40177
      H   28    0.10646      0.00000     0.39232    0.00122     0.39354
      H   29    0.09703      0.00000     0.40171    0.00125     0.40297
      H   30    0.09751      0.00000     0.40142    0.00107     0.40249
      H   31    0.09752      0.00000     0.40143    0.00105     0.40248
      H   32    0.09869      0.00000     0.39986    0.00145     0.40131
      H   33    0.09835      0.00000     0.40052    0.00112     0.40165
      H   34    0.09920      0.00000     0.39946    0.00134     0.40080
      H   35    0.09808      0.00000     0.40072    0.00119     0.40192
      H   36    0.10004      0.00000     0.39865    0.00131     0.39996
      H   37    0.09962      0.00000     0.39882    0.00157     0.40038
      H   38    0.09855      0.00000     0.40042    0.00103     0.40145
      H   39    0.09848      0.00000     0.40049    0.00103     0.40152
      H   40    0.24128      0.00000     0.25284    0.00588     0.25872
 =======================================================================
   * Total *    0.00000     16.99384    47.77764    0.22851    65.00000

 Normal termination of Gaussian 16 at Sun Dec 13 17:39:46 2020.
