 Gaussian 16, Revision A.03,

 -----------------------------------------------------------
 # opt freq B3LYP/6-31G(d) empiricaldispersion=gd3bj scf=xqc
 -----------------------------------------------------------

 -----------------------------
 CID_3493775_JID_7598_neutraal
 -----------------------------
 Symbolic Z-matrix:
 Charge =  0 Multiplicity = 1

 SCF Done:  E(RB3LYP) =  -1550.52030018     A.U. after   15 cycles
 SCF Done:  E(RB3LYP) =  -1550.53293261     A.U. after   13 cycles
 SCF Done:  E(RB3LYP) =  -1550.53591134     A.U. after   14 cycles
 SCF Done:  E(RB3LYP) =  -1550.53716464     A.U. after   14 cycles
 SCF Done:  E(RB3LYP) =  -1550.53753666     A.U. after   14 cycles
 SCF Done:  E(RB3LYP) =  -1550.54075873     A.U. after   13 cycles
 SCF Done:  E(RB3LYP) =  -1550.54165758     A.U. after   13 cycles
 SCF Done:  E(RB3LYP) =  -1550.54285963     A.U. after   13 cycles
 SCF Done:  E(RB3LYP) =  -1550.54297381     A.U. after   12 cycles
 SCF Done:  E(RB3LYP) =  -1550.54396785     A.U. after   13 cycles
 SCF Done:  E(RB3LYP) =  -1550.54504517     A.U. after   10 cycles
 SCF Done:  E(RB3LYP) =  -1550.54504815     A.U. after   10 cycles
 SCF Done:  E(RB3LYP) =  -1550.54504877     A.U. after    8 cycles
 SCF Done:  E(RB3LYP) =  -1550.54504896     A.U. after    8 cycles
 Optimization completed.
    -- Stationary point found.
 Normal termination of Gaussian 16 at Fri Dec 11 13:09:53 2020.

 --------------------------------------------------------------------
 #N Geom=AllCheck Guess=TCheck SCRF=Check GenChk RB3LYP/6-31G(d) Freq
 --------------------------------------------------------------------

 Structure from the checkpoint file:  "JID_7598.chk"
 -----------------------------
 CID_3493775_JID_7598_neutraal
 -----------------------------
 Charge =  0 Multiplicity = 1

 SCF Done:  E(RB3LYP) =  -1550.54504896     A.U. after    1 cycles

  Exact polarizability: 193.596 -32.018 164.319   4.863   4.622 118.878
 Approx polarizability: 254.599 -64.923 274.324   7.163   4.563 192.468

                      1                      2                      3
                      A                      A                      A
 Frequencies --     24.6206                33.6501                38.7549
 Red. masses --      8.1566                 6.7620                 6.4122
 Frc consts  --      0.0029                 0.0045                 0.0057
 IR Inten    --      2.7084                 1.3396                 1.7095

                      4                      5                      6
                      A                      A                      A
 Frequencies --     47.5817                63.9005                78.8496
 Red. masses --      7.8953                 4.8017                 9.0377
 Frc consts  --      0.0105                 0.0116                 0.0331
 IR Inten    --      3.4390                 2.3123                 0.8702

                      7                      8                      9
                      A                      A                      A
 Frequencies --     87.6972               115.1395               126.2375
 Red. masses --      6.5459                 5.3347                 2.4643
 Frc consts  --      0.0297                 0.0417                 0.0231
 IR Inten    --      5.6380                 3.9944                 4.4170

                     10                     11                     12
                      A                      A                      A
 Frequencies --    152.5844               174.5146               180.3590
 Red. masses --      3.4023                 6.2167                 1.2378
 Frc consts  --      0.0467                 0.1116                 0.0237
 IR Inten    --      1.3426                 0.7388                 0.3504

                     13                     14                     15
                      A                      A                      A
 Frequencies --    195.9700               230.1121               270.0767
 Red. masses --      6.1754                 1.0749                 3.6684
 Frc consts  --      0.1397                 0.0335                 0.1577
 IR Inten    --      5.5593                 0.0434                 0.7915

                     16                     17                     18
                      A                      A                      A
 Frequencies --    276.5371               291.9577               316.9516
 Red. masses --      3.9587                 5.8959                 5.9192
 Frc consts  --      0.1784                 0.2961                 0.3503
 IR Inten    --      2.1287                29.5534                10.6788

                     19                     20                     21
                      A                      A                      A
 Frequencies --    337.1769               358.4470               381.9106
 Red. masses --      4.7400                 5.3636                 4.5010
 Frc consts  --      0.3175                 0.4060                 0.3868
 IR Inten    --      1.9862                 0.6617                21.1154

                     22                     23                     24
                      A                      A                      A
 Frequencies --    469.3562               487.5086               490.2484
 Red. masses --      4.3096                 4.2013                 2.7164
 Frc consts  --      0.5594                 0.5883                 0.3847
 IR Inten    --     20.3191                10.1372                10.2065

                     25                     26                     27
                      A                      A                      A
 Frequencies --    514.9827               528.9616               537.2984
 Red. masses --      3.4485                 1.7019                 1.5861
 Frc consts  --      0.5388                 0.2806                 0.2698
 IR Inten    --     23.7614               186.7643                18.0402

                     28                     29                     30
                      A                      A                      A
 Frequencies --    552.1746               611.4592               620.6585
 Red. masses --      1.5738                 1.5670                 3.0170
 Frc consts  --      0.2827                 0.3452                 0.6847
 IR Inten    --     53.6477                55.2509                43.4279

                     31                     32                     33
                      A                      A                      A
 Frequencies --    641.5410               649.4599               673.7262
 Red. masses --      2.8348                 6.9393                 2.2185
 Frc consts  --      0.6874                 1.7245                 0.5933
 IR Inten    --     63.7309                26.5027                70.6653

                     34                     35                     36
                      A                      A                      A
 Frequencies --    681.9986               702.1113               738.0208
 Red. masses --      2.7235                 2.3240                 2.0360
 Frc consts  --      0.7463                 0.6750                 0.6534
 IR Inten    --     82.1146               172.2365                25.3505

                     37                     38                     39
                      A                      A                      A
 Frequencies --    759.6205               872.3454               887.1759
 Red. masses --      1.9880                 3.4576                 3.1352
 Frc consts  --      0.6759                 1.5503                 1.4539
 IR Inten    --    136.4749                12.5501                 8.2951

                     40                     41                     42
                      A                      A                      A
 Frequencies --    895.2385               915.3892               991.2859
 Red. masses --      2.5892                 4.6942                 2.0911
 Frc consts  --      1.2226                 2.3175                 1.2107
 IR Inten    --     19.5577                39.1369                11.1464

                     43                     44                     45
                      A                      A                      A
 Frequencies --   1064.8542              1073.3444              1117.4344
 Red. masses --      6.3205                 6.5928                 2.1803
 Frc consts  --      4.2226                 4.4751                 1.6040
 IR Inten    --     56.6173                33.0996                57.3322

                     46                     47                     48
                      A                      A                      A
 Frequencies --   1133.0702              1153.9194              1155.5071
 Red. masses --      2.4220                 1.3114                 1.2984
 Frc consts  --      1.8321                 1.0288                 1.0214
 IR Inten    --    107.1475                14.2222                 1.3250

                     49                     50                     51
                      A                      A                      A
 Frequencies --   1172.1772              1196.8530              1206.8111
 Red. masses --      1.4239                 2.1661                 1.9969
 Frc consts  --      1.1527                 1.8281                 1.7135
 IR Inten    --      7.4380                35.0469                18.0885

                     52                     53                     54
                      A                      A                      A
 Frequencies --   1237.5240              1259.3589              1301.2116
 Red. masses --      2.4885                 2.5646                 1.6750
 Frc consts  --      2.2454                 2.3964                 1.6709
 IR Inten    --    346.8522                94.5918                20.6888

                     55                     56                     57
                      A                      A                      A
 Frequencies --   1365.1730              1395.6813              1439.7942
 Red. masses --      2.6807                 2.0692                 2.2844
 Frc consts  --      2.9435                 2.3747                 2.7901
 IR Inten    --    333.8996                43.6080                98.5686

                     58                     59                     60
                      A                      A                      A
 Frequencies --   1442.5841              1456.6745              1469.0859
 Red. masses --      2.0685                 1.4025                 1.3119
 Frc consts  --      2.5362                 1.7534                 1.6682
 IR Inten    --     54.4134                18.6745                13.1252

                     61                     62                     63
                      A                      A                      A
 Frequencies --   1481.1493              1482.1459              1502.6102
 Red. masses --      1.3715                 1.2569                 1.1863
 Frc consts  --      1.7728                 1.6267                 1.5782
 IR Inten    --     69.9582                44.8596                 6.3991

                     64                     65                     66
                      A                      A                      A
 Frequencies --   1510.2179              1513.2005              1522.7976
 Red. masses --      1.4068                 1.0825                 1.5482
 Frc consts  --      1.8904                 1.4603                 2.1153
 IR Inten    --     25.1237                14.1345                56.4201

                     67                     68                     69
                      A                      A                      A
 Frequencies --   1523.9063              1535.9935              1539.9460
 Red. masses --      1.0534                 1.0744                 1.0977
 Frc consts  --      1.4413                 1.4935                 1.5337
 IR Inten    --      2.3098                16.1990                57.8601

                     70                     71                     72
                      A                      A                      A
 Frequencies --   1585.5685              1620.5859              1766.5601
 Red. masses --      1.7103                 2.1037                 8.4180
 Frc consts  --      2.5334                 3.2553                15.4781
 IR Inten    --    284.2117               261.8756               359.7619

                     73                     74                     75
                      A                      A                      A
 Frequencies --   1804.3478              3065.7158              3066.2700
 Red. masses --      8.4759                 1.0340                 1.0340
 Frc consts  --     16.2584                 5.7255                 5.7276
 IR Inten    --    254.7411                29.7760                40.6952

                     76                     77                     78
                      A                      A                      A
 Frequencies --   3104.7001              3133.5059              3134.9185
 Red. masses --      1.0621                 1.1036                 1.1040
 Frc consts  --      6.0319                 6.3846                 6.3923
 IR Inten    --      1.6216                21.9496                18.5595

                     79                     80                     81
                      A                      A                      A
 Frequencies --   3153.9441              3155.7845              3177.2058
 Red. masses --      1.1052                 1.1049                 1.1027
 Frc consts  --      6.4772                 6.4832                 6.5585
 IR Inten    --     20.5979                12.0231                10.7723

                     82                     83                     84
                      A                      A                      A
 Frequencies --   3522.4108              3535.1630              3559.8348
 Red. masses --      1.0770                 1.0780                 1.0776
 Frc consts  --      7.8730                 7.9373                 8.0457
 IR Inten    --     20.7900                97.5909                29.1248

                     85                     86                     87
                      A                      A                      A
 Frequencies --   3576.2114              3623.0993              3642.2748
 Red. masses --      1.0771                 1.0771                 1.0773
 Frc consts  --      8.1160                 8.3304                 8.4208
 IR Inten    --     30.7448                48.0168                61.0522

 - Thermochemistry -
 -------------------
 Temperature   298.150 Kelvin.  Pressure   1.00000 Atm.
 Atom     1 has atomic number  6 and mass  12.00000

 Molecular mass:   278.06197 amu.
 Principal axes and moments of inertia in atomic units:
                           1         2         3
     Eigenvalues --  2420.714869864.42480**********
           X            0.99972   0.02277   0.00658
           Y           -0.02296   0.99924   0.03163
           Z           -0.00585  -0.03177   0.99948
 This molecule is an asymmetric top.
 Rotational symmetry number  1.
 Warning -- assumption of classical behavior for rotation
           may cause significant error
 Rotational temperatures (Kelvin)      0.03578     0.00878     0.00807
 Rotational constants (GHZ):           0.74554     0.18295     0.16816
 Zero-point vibrational energy     642901.4 (Joules/Mol)
                                  153.65712 (Kcal/Mol)
 Warning -- explicit consideration of  30 degrees of freedom as
           vibrations may cause significant error
 Vibrational temperatures:     35.42    48.42    55.76    68.46    91.94
          (Kelvin)            113.45   126.18   165.66   181.63   219.53
                              251.09   259.50   281.96   331.08   388.58
                              397.88   420.06   456.02   485.12   515.73
                              549.48   675.30   701.42   705.36   740.95
                              761.06   773.05   794.46   879.75   892.99
                              923.03   934.43   969.34   981.24  1010.18
                             1061.85  1092.92  1255.11  1276.45  1288.05
                             1317.04  1426.24  1532.09  1544.30  1607.74
                             1630.24  1660.23  1662.52  1686.50  1722.00
                             1736.33  1780.52  1811.94  1872.15  1964.18
                             2008.07  2071.54  2075.56  2095.83  2113.69
                             2131.04  2132.48  2161.92  2172.87  2177.16
                             2190.97  2192.56  2209.95  2215.64  2281.28
                             2331.66  2541.69  2596.05  4410.88  4411.68
                             4466.97  4508.42  4510.45  4537.82  4540.47
                             4571.29  5067.96  5086.31  5121.81  5145.37
                             5212.83  5240.42

 Zero-point correction=                           0.244868 (Hartree/Particle)
 Thermal correction to Energy=                    0.263820
 Thermal correction to Enthalpy=                  0.264764
 Thermal correction to Gibbs Free Energy=         0.195117
 Sum of electronic and zero-point Energies=          -1550.300181
 Sum of electronic and thermal Energies=             -1550.281229
 Sum of electronic and thermal Enthalpies=           -1550.280285
 Sum of electronic and thermal Free Energies=        -1550.349932

                     E (Thermal)             CV                S
                      KCal/Mol        Cal/Mol-Kelvin    Cal/Mol-Kelvin
 Total                  165.550             67.411            146.585
 Electronic               0.000              0.000              0.000
 Translational            0.889              2.981             42.766
 Rotational               0.889              2.981             33.904
 Vibrational            163.772             61.449             69.914
 Vibration     1          0.593              1.985              6.222
 Vibration     2          0.594              1.983              5.602
 Vibration     3          0.594              1.981              5.322
 Vibration     4          0.595              1.978              4.915
 Vibration     5          0.597              1.972              4.333
 Vibration     6          0.600              1.963              3.919
 Vibration     7          0.601              1.958              3.711
 Vibration     8          0.608              1.937              3.180
 Vibration     9          0.611              1.927              3.003
 Vibration    10          0.619              1.900              2.640
 Vibration    11          0.627              1.874              2.386
 Vibration    12          0.629              1.866              2.325
 Vibration    13          0.636              1.845              2.171
 Vibration    14          0.652              1.795              1.878
 Vibration    15          0.674              1.728              1.596
 Vibration    16          0.678              1.717              1.555
 Vibration    17          0.687              1.689              1.463
 Vibration    18          0.704              1.641              1.326
 Vibration    19          0.718              1.601              1.225
 Vibration    20          0.733              1.558              1.129
 Vibration    21          0.751              1.509              1.032
 Vibration    22          0.826              1.318              0.739
 Vibration    23          0.843              1.278              0.690
 Vibration    24          0.846              1.272              0.683
 Vibration    25          0.870              1.217              0.622
 Vibration    26          0.884              1.186              0.590
 Vibration    27          0.892              1.168              0.571
 Vibration    28          0.908              1.135              0.540
 Vibration    29          0.971              1.008              0.430
 Vibration    30          0.981              0.988              0.415

                           ! Non-Optimized Parameters !
 Normal termination of Gaussian 16 at Fri Dec 11 13:21:28 2020.

 ----------------------------------------------------------------------
 # B3LYP/6-311++G(d,p) empiricaldispersion=gd3bj scf=xqc pop=npa geom=c
 heck
 ----------------------------------------------------------------------

 -------------------------------------
 CID_3493775_JID_7598_Energie_neutraal
 -------------------------------------
 Structure from the checkpoint file:  "JID_7598.chk"
 Charge =  0 Multiplicity = 1

 SCF Done:  E(RB3LYP) =  -1550.83293929     A.U. after   15 cycles
 Normal termination of Gaussian 16 at Fri Dec 11 13:26:12 2020.

 ----------------------------------------------------------------------
 # B3LYP/6-311++G(d,p) empiricaldispersion=gd3bj scf=xqc pop=npa geom=c
 heck
 ----------------------------------------------------------------------

 -----------------------------------
 CID_3493775_JID_7598_Energie_kation
 -----------------------------------
 Structure from the checkpoint file:  "JID_7598.chk"
 Charge =  1 Multiplicity = 2

 SCF Done:  E(UB3LYP) =  -1550.55217458     A.U. after   33 cycles
 SCF Done:  E(UB3LYP) =  -1550.55217493     a.u. after    2 cycles
 Normal termination of Gaussian 16 at Fri Dec 11 13:51:42 2020.
 Gaussian 16:  ES64L-G16RevA.03 25-Dec-2016

 ----------------------------------------------------------------------
 # B3LYP/6-311++G(d,p) empiricaldispersion=gd3bj scf=xqc pop=npa geom=c
 heck
 ----------------------------------------------------------------------

 ----------------------------------
 CID_3493775_JID_7598_Energie_anion
 ----------------------------------
 Structure from the checkpoint file:  "JID_7598.chk"
 Charge = -1 Multiplicity = 2

                         Standard orientation:
 ---------------------------------------------------------------------
 Center     Atomic      Atomic             Coordinates (Angstroms)
 Number     Number       Type             X           Y           Z
 ---------------------------------------------------------------------
      1          6           0       -3.170365   -1.363838   -1.675801
      2          7           0       -3.351021   -0.072014   -1.029156
      3          6           0       -3.409748    0.220184    0.279322
      4         16           0       -3.910901    1.707432    0.872421
      5          7           0       -3.033927   -0.772739    1.185444
      6          7           0       -1.974436   -1.634925    0.925737
      7          6           0       -0.701659   -1.280157    0.547682
      8          8           0        0.078695   -2.145196    0.167363
      9          6           0       -0.314092    0.193564    0.586527
     10          6           0        0.187428    0.550862   -0.809837
     11          8           0       -0.544150    0.954612   -1.699235
     12          7           0        1.526962    0.343583   -1.037510
     13          7           0        2.332681   -0.349980   -0.141918
     14          6           0        3.637484    0.043519    0.072120
     15         16           0        4.805788   -1.100640    0.437587
     16          7           0        3.909913    1.369947   -0.015767
     17          6           0        2.975343    2.471805    0.212094
     18          1           0       -3.693626   -2.142396   -1.115412
     19          1           0       -2.115601   -1.635864   -1.785595
     20          1           0       -3.618474   -1.302959   -2.670097
     21          1           0       -3.436242    0.738397   -1.625777
     22          1           0       -3.074432   -0.438901    2.142606
     23          1           0       -2.201210   -2.616104    0.808996
     24          1           0       -1.134125    0.863421    0.841566
     25          1           0        0.487925    0.289536    1.323272
     26          1           0        1.811703    0.352630   -2.014153
     27          1           0        2.162398   -1.352244   -0.106484
     28          1           0        4.885546    1.560314    0.166843
     29          1           0        3.552669    3.329951    0.563328
     30          1           0        2.439415    2.755714   -0.696876
     31          1           0        2.241964    2.211763    0.982189
 ---------------------------------------------------------------------

 SCF Done:  E(UB3LYP) =  -1550.83278176     A.U. after   33 cycles
 SCF Done:  E(UB3LYP) =  -1550.83278176     a.u. after    1 cycles

 The electronic state is 2-A.
 Alpha  occ. eigenvalues --  -88.70740 -88.69674 -19.01803 -19.01010 -14.29846
 Alpha  occ. eigenvalues --  -14.29278 -14.28777 -14.28547 -14.27061 -14.26068
 Alpha  occ. eigenvalues --  -10.20633 -10.20265 -10.19369 -10.18889 -10.12454
 Alpha  occ. eigenvalues --  -10.12258 -10.10561  -7.79524  -7.78447  -5.75944
 Alpha  occ. eigenvalues --   -5.75353  -5.75048  -5.74858  -5.74282  -5.73979
 Alpha  occ. eigenvalues --   -0.98334  -0.97137  -0.94046  -0.93288  -0.87095
 Alpha  occ. eigenvalues --   -0.86213  -0.76795  -0.76115  -0.69060  -0.66383
 Alpha  occ. eigenvalues --   -0.65590  -0.60302  -0.59558  -0.55772  -0.54248
 Alpha  occ. eigenvalues --   -0.53627  -0.50807  -0.48653  -0.47264  -0.43496
 Alpha  occ. eigenvalues --   -0.42603  -0.41789  -0.41590  -0.40814  -0.40275
 Alpha  occ. eigenvalues --   -0.37550  -0.36958  -0.35232  -0.34368  -0.33245
 Alpha  occ. eigenvalues --   -0.32829  -0.32430  -0.30994  -0.30413  -0.29578
 Alpha  occ. eigenvalues --   -0.29320  -0.28582  -0.28138  -0.21664  -0.21153
 Alpha  occ. eigenvalues --   -0.19461  -0.18981  -0.17829  -0.17384  -0.14247
 Alpha  occ. eigenvalues --   -0.13478  -0.13185  -0.12100   0.03416
 Alpha virt. eigenvalues --    0.04944   0.05625   0.05857   0.06664   0.07046
 Alpha virt. eigenvalues --    0.07541   0.08292   0.08416   0.09461   0.09660
 Alpha virt. eigenvalues --    0.10474   0.10789   0.11234   0.11804   0.12105

  Beta  occ. eigenvalues --  -88.70738 -88.69670 -19.01764 -19.00938 -14.29827
  Beta  occ. eigenvalues --  -14.29226 -14.28765 -14.28544 -14.27051 -14.26040
  Beta  occ. eigenvalues --  -10.20622 -10.20155 -10.19248 -10.18718 -10.12415
  Beta  occ. eigenvalues --  -10.12202 -10.10568  -7.79522  -7.78443  -5.75939
  Beta  occ. eigenvalues --   -5.75349  -5.75047  -5.74862  -5.74264  -5.73976
  Beta  occ. eigenvalues --   -0.98226  -0.97021  -0.93984  -0.93181  -0.87052
  Beta  occ. eigenvalues --   -0.86097  -0.76711  -0.76006  -0.68936  -0.66315
  Beta  occ. eigenvalues --   -0.65472  -0.60237  -0.59483  -0.55658  -0.54160
  Beta  occ. eigenvalues --   -0.53495  -0.50718  -0.48581  -0.47181  -0.43403
  Beta  occ. eigenvalues --   -0.42495  -0.41686  -0.41444  -0.40742  -0.40194
  Beta  occ. eigenvalues --   -0.37455  -0.36824  -0.35093  -0.34190  -0.33149
  Beta  occ. eigenvalues --   -0.32748  -0.32345  -0.30836  -0.30146  -0.29416
  Beta  occ. eigenvalues --   -0.29013  -0.28463  -0.27995  -0.21520  -0.20985
  Beta  occ. eigenvalues --   -0.19334  -0.18904  -0.17719  -0.17265  -0.14220
  Beta  occ. eigenvalues --   -0.13344  -0.13174  -0.12048
  Beta virt. eigenvalues --    0.05672   0.05967   0.06213   0.06719   0.07154
  Beta virt. eigenvalues --    0.07701   0.08153   0.08667   0.08709   0.09680
  Beta virt. eigenvalues --    0.09993   0.10774   0.11024   0.11297   0.11896

 Mulliken charges and spin densities:
               1          2
     1  C    0.624881  -0.986284
     2  N   -0.130364   0.130672
     3  C    0.040430  -0.185886
     4  S   -0.464935  -0.191134
     5  N   -0.148503   0.067465
     6  N   -0.193144   0.008142
     7  C   -0.106527  -0.170071
     8  O   -0.308778   0.032805
     9  C    0.669686  -0.193647
    10  C   -0.324588   0.025459
    11  O   -0.285357   0.035714
    12  N   -0.156128  -0.002115
    13  N   -0.108628   0.023667
    14  C    0.063025   0.059707
    15  S   -0.682367  -0.016078
    16  N   -0.215904   0.076779
    17  C    0.264736  -0.659896
    18  H   -0.371261   0.556558
    19  H    0.052822   0.191287
    20  H   -0.400516   0.571461
    21  H    0.252933   0.033571
    22  H    0.127773   0.155213
    23  H   -0.040315   0.373998
    24  H    0.176668  -0.004455
    25  H    0.248125   0.011815
    26  H    0.179540   0.133198
    27  H    0.323019  -0.005504
    28  H    0.230842   0.074154
    29  H   -0.535893   0.696777
    30  H    0.193554   0.002339
    31  H    0.025172   0.154289
 Sum of Mulliken charges =  -1.00000   1.00000

 Dipole moment (field-independent basis, Debye):
    X=             -0.3888    Y=              1.6453    Z=              0.3697  Tot=              1.7305
 Quadrupole moment (field-independent basis, Debye-Ang):
   XX=           -216.1387   YY=           -166.5484   ZZ=           -139.5953
   XY=              4.4627   XZ=             -6.6027   YZ=             -4.9905

 Summary of Natural Population Analysis:

                                       Natural Population
                Natural  -----------------------------------------------
    Atom  No    Charge         Core      Valence    Rydberg      Total
 -----------------------------------------------------------------------
      C    1   -0.18078      0.99963     2.17301    0.00814     3.18078
      N    2   -0.29587      0.99962     2.78394    0.01231     3.79587
      C    3    0.14239      0.99964     1.83309    0.02488     2.85761
      S    4   -0.13690      4.99956     3.12505    0.01228     8.13690
      N    5   -0.23520      0.99963     2.72022    0.01535     3.73520
      N    6   -0.22703      0.99965     2.71464    0.01274     3.72703
      C    7    0.35962      0.99967     1.61774    0.02296     2.64038
      O    8   -0.31977      0.99987     3.31385    0.00605     4.31977
      C    9   -0.28805      0.99954     2.28069    0.00782     3.28805
      C   10    0.36455      0.99968     1.61293    0.02284     2.63545
      O   11   -0.30856      0.99987     3.30251    0.00618     4.30856
      N   12   -0.23058      0.99964     2.71894    0.01199     3.73058
      N   13   -0.23813      0.99962     2.72481    0.01370     3.73813
      C   14    0.16948      0.99966     1.80857    0.02229     2.83052
      S   15   -0.14395      4.99958     3.13110    0.01327     8.14395
      N   16   -0.30994      0.99964     2.79837    0.01194     3.80994
      C   17   -0.18037      0.99964     2.17304    0.00769     3.18037
      H   18    0.10223      0.00000     0.39551    0.00226     0.39777
      H   19    0.10290      0.00000     0.39585    0.00124     0.39710
      H   20    0.10298      0.00000     0.39585    0.00118     0.39702
      H   21    0.20556      0.00000     0.29258    0.00186     0.29444
      H   22    0.19591      0.00000     0.30185    0.00225     0.30409
      H   23    0.19992      0.00000     0.29589    0.00419     0.30008
      H   24    0.12594      0.00000     0.37257    0.00149     0.37406
      H   25    0.12579      0.00000     0.37292    0.00129     0.37421
      H   26    0.19028      0.00000     0.30754    0.00218     0.30972
      H   27    0.21176      0.00000     0.28607    0.00216     0.28824
      H   28    0.19933      0.00000     0.29857    0.00209     0.30067
      H   29    0.10064      0.00000     0.39796    0.00140     0.39936
      H   30    0.09914      0.00000     0.39966    0.00121     0.40086
      H   31    0.09670      0.00000     0.40210    0.00119     0.40330
 =======================================================================
   * Total *   -0.00000     24.99415    47.74743    0.25842    73.00000

 Normal termination of Gaussian 16 at Fri Dec 11 14:05:25 2020.
