 Gaussian 16, Revision A.03,

 -----------------------------------------------------------
 # opt freq B3LYP/6-31G(d) empiricaldispersion=gd3bj scf=xqc
 -----------------------------------------------------------

 ----------------------------
 CID_606582_JID_3848_neutraal
 ----------------------------
 Symbolic Z-matrix:
 Charge =  0 Multiplicity = 1

 SCF Done:  E(RB3LYP) =  -928.111645612     A.U. after   15 cycles
 SCF Done:  E(RB3LYP) =  -928.120332614     A.U. after   13 cycles
 SCF Done:  E(RB3LYP) =  -928.121366051     A.U. after   12 cycles
 SCF Done:  E(RB3LYP) =  -928.121495901     A.U. after   11 cycles
 SCF Done:  E(RB3LYP) =  -928.121539158     A.U. after   10 cycles
 SCF Done:  E(RB3LYP) =  -928.121558502     A.U. after   10 cycles
 SCF Done:  E(RB3LYP) =  -928.121577825     A.U. after   10 cycles
 SCF Done:  E(RB3LYP) =  -928.121594713     A.U. after   10 cycles
 SCF Done:  E(RB3LYP) =  -928.121607922     A.U. after   10 cycles
 SCF Done:  E(RB3LYP) =  -928.121618653     A.U. after   10 cycles
 SCF Done:  E(RB3LYP) =  -928.121620255     A.U. after    8 cycles
 SCF Done:  E(RB3LYP) =  -928.121620361     A.U. after    7 cycles
 Optimization completed.
    -- Stationary point found.
 Normal termination of Gaussian 16 at Sun Dec 13 15:56:40 2020.

 --------------------------------------------------------------------
 #N Geom=AllCheck Guess=TCheck SCRF=Check GenChk RB3LYP/6-31G(d) Freq
 --------------------------------------------------------------------

 Structure from the checkpoint file:  "JID_3848.chk"
 ----------------------------
 CID_606582_JID_3848_neutraal
 ----------------------------
 Charge =  0 Multiplicity = 1

 SCF Done:  E(RB3LYP) =  -928.121620361     A.U. after    1 cycles

  Exact polarizability: 174.415   9.111 155.441   0.001  -0.002  63.185
 Approx polarizability: 284.531  24.769 257.932  -0.002   0.002  99.932

                      1                      2                      3
                      A                      A                      A
 Frequencies --     67.5978                87.4022               107.9549
 Red. masses --      3.3948                 3.9769                 1.0269
 Frc consts  --      0.0091                 0.0179                 0.0071
 IR Inten    --      2.5567                 0.1967                 0.1147

                      4                      5                      6
                      A                      A                      A
 Frequencies --    135.5169               149.8753               151.1128
 Red. masses --      1.5233                 4.0789                 1.5021
 Frc consts  --      0.0165                 0.0540                 0.0202
 IR Inten    --      0.2651                 1.0840                 0.4908

                      7                      8                      9
                      A                      A                      A
 Frequencies --    181.4501               205.2953               262.4437
 Red. masses --      3.9032                 1.3517                 4.6634
 Frc consts  --      0.0757                 0.0336                 0.1892
 IR Inten    --      0.9860                 0.3098                 0.9877

                     10                     11                     12
                      A                      A                      A
 Frequencies --    276.7495               315.2150               335.5849
 Red. masses --      5.5822                 3.4041                 2.6220
 Frc consts  --      0.2519                 0.1993                 0.1740
 IR Inten    --      0.3613                 3.3596                 1.2984

                     13                     14                     15
                      A                      A                      A
 Frequencies --    382.9591               394.9069               519.4294
 Red. masses --      5.0099                 8.2328                 5.9484
 Frc consts  --      0.4329                 0.7565                 0.9456
 IR Inten    --      0.2018                 6.6168                 4.0746

                     16                     17                     18
                      A                      A                      A
 Frequencies --    561.7185               588.5669               643.0309
 Red. masses --      7.9866                 5.3466                 3.8977
 Frc consts  --      1.4847                 1.0912                 0.9496
 IR Inten    --      1.0014                 1.2730                 1.0857

                     19                     20                     21
                      A                      A                      A
 Frequencies --    658.9804               667.6159               707.3660
 Red. masses --      6.9026                 4.5261                 7.5359
 Frc consts  --      1.7661                 1.1886                 2.2216
 IR Inten    --      0.3900                23.6282                 1.3537

                     22                     23                     24
                      A                      A                      A
 Frequencies --    718.1974               775.0453               882.8488
 Red. masses --      6.3690                10.9999                 5.0766
 Frc consts  --      1.9356                 3.8931                 2.3313
 IR Inten    --      1.0538                 1.0223                12.3454

                     25                     26                     27
                      A                      A                      A
 Frequencies --    919.0347               943.8342               995.4579
 Red. masses --      1.4646                10.2801                 1.1842
 Frc consts  --      0.7289                 5.3956                 0.6914
 IR Inten    --      3.0502                22.8891                 4.1852

                     28                     29                     30
                      A                      A                      A
 Frequencies --    995.5108              1036.9902              1040.9224
 Red. masses --      1.5334                 1.7817                 2.5530
 Frc consts  --      0.8953                 1.1288                 1.6298
 IR Inten    --     17.7642                 8.3571                86.3689

                     31                     32                     33
                      A                      A                      A
 Frequencies --   1069.2667              1115.3367              1158.6627
 Red. masses --      1.5155                 6.5814                 1.3118
 Frc consts  --      1.0209                 4.8237                 1.0376
 IR Inten    --      2.4848                70.2232                 0.2506

                     34                     35                     36
                      A                      A                      A
 Frequencies --   1177.8124              1192.4945              1245.3739
 Red. masses --      2.5213                 2.1522                 3.6202
 Frc consts  --      2.0607                 1.8032                 3.3081
 IR Inten    --     43.1661                38.6285                13.8871

                     37                     38                     39
                      A                      A                      A
 Frequencies --   1302.1044              1329.0365              1377.3050
 Red. masses --      9.1790                 3.2683                 2.2748
 Frc consts  --      9.1693                 3.4013                 2.5424
 IR Inten    --     46.6549                69.3793                61.9308

                     40                     41                     42
                      A                      A                      A
 Frequencies --   1396.2689              1424.8307              1442.3593
 Red. masses --      1.6128                 1.8668                 3.0352
 Frc consts  --      1.8525                 2.2330                 3.7204
 IR Inten    --      5.3114                43.5182                 4.7116

                     43                     44                     45
                      A                      A                      A
 Frequencies --   1454.6973              1485.1643              1490.4625
 Red. masses --      2.0538                 1.5492                 1.0528
 Frc consts  --      2.5607                 2.0133                 1.3779
 IR Inten    --     66.0691                21.4143                 8.6212

                     46                     47                     48
                      A                      A                      A
 Frequencies --   1496.3292              1503.2959              1509.8245
 Red. masses --      1.2366                 1.0613                 1.0442
 Frc consts  --      1.6313                 1.4131                 1.4024
 IR Inten    --     63.5908                46.1516                 1.5624

                     49                     50                     51
                      A                      A                      A
 Frequencies --   1527.3869              1534.8725              1534.9443
 Red. masses --      1.3158                 1.0455                 3.0043
 Frc consts  --      1.8086                 1.4511                 4.1704
 IR Inten    --      2.7540                20.7431                 3.2447

                     52                     53                     54
                      A                      A                      A
 Frequencies --   1603.5075              1636.3824              3053.8635
 Red. masses --      5.6865                 9.0130                 1.0408
 Frc consts  --      8.6147                14.2196                 5.7188
 IR Inten    --     92.4886               344.2361                12.1795

                     55                     56                     57
                      A                      A                      A
 Frequencies --   3079.5007              3083.3022              3105.2611
 Red. masses --      1.0335                 1.0294                 1.1007
 Frc consts  --      5.7746                 5.7659                 6.2533
 IR Inten    --     32.0156                17.8897                 9.8411

                     58                     59                     60
                      A                      A                      A
 Frequencies --   3149.4458              3173.4376              3181.4232
 Red. masses --      1.1065                 1.1053                 1.1079
 Frc consts  --      6.4667                 6.5585                 6.6066
 IR Inten    --     11.9346                 5.9484                 4.9381

                     61                     62                     63
                      A                      A                      A
 Frequencies --   3184.1392              3195.7806              3243.3574
 Red. masses --      1.0982                 1.1040                 1.0942
 Frc consts  --      6.5602                 6.6431                 6.7816
 IR Inten    --      2.4788                 0.3804                20.3144

 - Thermochemistry -
 -------------------
 Temperature   298.150 Kelvin.  Pressure   1.00000 Atm.
 Atom     1 has atomic number  6 and mass  12.00000

 Molecular mass:   194.06262 amu.
 Principal axes and moments of inertia in atomic units:
                           1         2         3
     Eigenvalues --  1804.959132715.510844486.34932
           X            0.99998  -0.00705   0.00000
           Y            0.00705   0.99998  -0.00001
           Z           -0.00000   0.00001   1.00000
 This molecule is an asymmetric top.
 Rotational symmetry number  1.
 Warning -- assumption of classical behavior for rotation
           may cause significant error
 Rotational temperatures (Kelvin)      0.04799     0.03190     0.01931
 Rotational constants (GHZ):           0.99988     0.66460     0.40227
 Zero-point vibrational energy     473516.9 (Joules/Mol)
                                  113.17326 (Kcal/Mol)
 Warning -- explicit consideration of  17 degrees of freedom as
           vibrations may cause significant error
 Vibrational temperatures:     97.26   125.75   155.32   194.98   215.64
          (Kelvin)            217.42   261.07   295.37   377.60   398.18
                              453.52   482.83   550.99   568.18   747.34
                              808.19   846.82   925.18   948.13   960.55
                             1017.74  1033.33  1115.12  1270.22  1322.29
                             1357.97  1432.24  1432.32  1492.00  1497.66
                             1538.44  1604.72  1667.06  1694.61  1715.73
                             1791.82  1873.44  1912.19  1981.63  2008.92
                             2050.01  2075.23  2092.98  2136.82  2144.44
                             2152.88  2162.91  2172.30  2197.57  2208.34
                             2208.44  2307.09  2354.39  4393.83  4430.71
                             4436.18  4467.78  4531.35  4565.87  4577.36
                             4581.27  4598.02  4666.47

 Zero-point correction=                           0.180353 (Hartree/Particle)
 Thermal correction to Energy=                    0.192665
 Thermal correction to Enthalpy=                  0.193609
 Thermal correction to Gibbs Free Energy=         0.141553
 Sum of electronic and zero-point Energies=           -927.941267
 Sum of electronic and thermal Energies=              -927.928955
 Sum of electronic and thermal Enthalpies=            -927.928011
 Sum of electronic and thermal Free Energies=         -927.980068

                     E (Thermal)             CV                S
                      KCal/Mol        Cal/Mol-Kelvin    Cal/Mol-Kelvin
 Total                  120.899             45.122            109.562
 Electronic               0.000              0.000              0.000
 Translational            0.889              2.981             41.694
 Rotational               0.889              2.981             31.464
 Vibrational            119.122             39.160             36.403
 Vibration     1          0.598              1.970              4.222
 Vibration     2          0.601              1.958              3.717
 Vibration     3          0.606              1.943              3.305
 Vibration     4          0.613              1.918              2.866
 Vibration     5          0.618              1.903              2.674
 Vibration     6          0.619              1.901              2.658
 Vibration     7          0.630              1.865              2.313
 Vibration     8          0.640              1.832              2.085
 Vibration     9          0.670              1.742              1.645
 Vibration    10          0.678              1.716              1.554
 Vibration    11          0.703              1.645              1.335
 Vibration    12          0.717              1.604              1.233
 Vibration    13          0.752              1.507              1.027
 Vibration    14          0.762              1.481              0.982
 Vibration    15          0.874              1.207              0.611
 Vibration    16          0.917              1.114              0.520
 Vibration    17          0.946              1.056              0.470

                           ! Non-Optimized Parameters !
 Normal termination of Gaussian 16 at Sun Dec 13 16:02:11 2020.

 ----------------------------------------------------------------------
 # B3LYP/6-311++G(d,p) empiricaldispersion=gd3bj scf=xqc pop=npa geom=c
 heck
 ----------------------------------------------------------------------

 ------------------------------------
 CID_606582_JID_3848_Energie_neutraal
 ------------------------------------
 Structure from the checkpoint file:  "JID_3848.chk"
 Charge =  0 Multiplicity = 1

 SCF Done:  E(RB3LYP) =  -928.284687674     A.U. after   16 cycles
 Normal termination of Gaussian 16 at Sun Dec 13 16:04:13 2020.

 ----------------------------------------------------------------------
 # B3LYP/6-311++G(d,p) empiricaldispersion=gd3bj scf=xqc pop=npa geom=c
 heck
 ----------------------------------------------------------------------

 ----------------------------------
 CID_606582_JID_3848_Energie_kation
 ----------------------------------
 Structure from the checkpoint file:  "JID_3848.chk"
 Charge =  1 Multiplicity = 2

 SCF Done:  E(UB3LYP) =  -927.995195228     A.U. after   23 cycles
 Normal termination of Gaussian 16 at Sun Dec 13 16:08:10 2020.
 Gaussian 16:  ES64L-G16RevA.03 25-Dec-2016

 ----------------------------------------------------------------------
 # B3LYP/6-311++G(d,p) empiricaldispersion=gd3bj scf=xqc pop=npa geom=c
 heck
 ----------------------------------------------------------------------

 ---------------------------------
 CID_606582_JID_3848_Energie_anion
 ---------------------------------
 Structure from the checkpoint file:  "JID_3848.chk"
 Charge = -1 Multiplicity = 2

                         Standard orientation:
 ---------------------------------------------------------------------
 Center     Atomic      Atomic             Coordinates (Angstroms)
 Number     Number       Type             X           Y           Z
 ---------------------------------------------------------------------
      1          6           0       -0.848560    3.037101   -0.000189
      2          6           0       -0.573403    1.561471    0.000156
      3          7           0        0.682385    1.155330    0.000090
      4          6           0        0.988502   -0.166932    0.000009
      5          6           0       -0.028281   -1.112749   -0.000058
      6          6           0       -1.377070   -0.641234    0.000055
      7          7           0       -2.237858   -1.653916    0.000050
      8          6           0       -1.375550   -2.728746   -0.000063
      9          7           0       -0.062899   -2.480878   -0.000133
     10          7           0       -1.639543    0.704952    0.000183
     11          6           0       -3.035330    1.157782    0.000024
     12         16           0        2.674573   -0.660864   -0.000000
     13          6           0        3.511680    0.961273    0.000036
     14          1           0       -1.419605    3.343390   -0.884798
     15          1           0        0.107272    3.560350    0.001207
     16          1           0       -1.422484    3.343562    0.882438
     17          1           0       -1.764984   -3.740434   -0.000095
     18          1           0       -3.658496    0.264262    0.000404
     19          1           0       -3.240688    1.754859    0.892073
     20          1           0       -3.240709    1.754137   -0.892510
     21          1           0        3.249177    1.533810   -0.890569
     22          1           0        3.249127    1.533794    0.890638
     23          1           0        4.581718    0.739880    0.000066
 ---------------------------------------------------------------------

 SCF Done:  E(UB3LYP) =  -928.293673390     A.U. after   30 cycles

 The electronic state is 2-A.
 Alpha  occ. eigenvalues --  -88.70636 -14.21523 -14.15918 -14.13073 -14.12411
 Alpha  occ. eigenvalues --  -10.09054 -10.08693 -10.06852 -10.06053 -10.05775
 Alpha  occ. eigenvalues --  -10.05653 -10.03862 -10.02053  -7.79244  -5.75652
 Alpha  occ. eigenvalues --   -5.75212  -5.74677  -0.86714  -0.81294  -0.76958
 Alpha  occ. eigenvalues --   -0.67769  -0.66588  -0.63279  -0.59752  -0.57344
 Alpha  occ. eigenvalues --   -0.52659  -0.47886  -0.46453  -0.41797  -0.39083
 Alpha  occ. eigenvalues --   -0.35599  -0.33872  -0.32746  -0.31664  -0.30538
 Alpha  occ. eigenvalues --   -0.30154  -0.29481  -0.28385  -0.27663  -0.27440
 Alpha  occ. eigenvalues --   -0.25885  -0.23500  -0.22113  -0.19486  -0.19109
 Alpha  occ. eigenvalues --   -0.13654  -0.12501  -0.11613  -0.10396  -0.09074
 Alpha  occ. eigenvalues --   -0.06857   0.05037
 Alpha virt. eigenvalues --    0.07632   0.08764   0.10083   0.10937   0.11535
 Alpha virt. eigenvalues --    0.12155   0.12726   0.13345   0.14250   0.14358
 Alpha virt. eigenvalues --    0.15077   0.15385   0.15630   0.17036   0.17358

  Beta  occ. eigenvalues --  -88.70620 -14.21035 -14.16131 -14.13159 -14.12469
  Beta  occ. eigenvalues --  -10.08720 -10.08634 -10.06856 -10.05872 -10.05689
  Beta  occ. eigenvalues --  -10.05173 -10.03581 -10.02013  -7.79230  -5.75652
  Beta  occ. eigenvalues --   -5.75219  -5.74604  -0.86083  -0.80999  -0.76541
  Beta  occ. eigenvalues --   -0.67759  -0.66195  -0.63057  -0.59615  -0.57037
  Beta  occ. eigenvalues --   -0.52348  -0.47678  -0.45875  -0.41452  -0.38795
  Beta  occ. eigenvalues --   -0.34720  -0.33588  -0.32484  -0.31555  -0.30357
  Beta  occ. eigenvalues --   -0.29847  -0.29411  -0.28312  -0.27271  -0.26796
  Beta  occ. eigenvalues --   -0.25745  -0.23288  -0.21160  -0.18925  -0.17671
  Beta  occ. eigenvalues --   -0.13667  -0.12564  -0.10783  -0.10433  -0.08885
  Beta  occ. eigenvalues --   -0.05119
  Beta virt. eigenvalues --    0.07599   0.08735   0.10058   0.10894   0.11502
  Beta virt. eigenvalues --    0.11862   0.12124   0.12774   0.13294   0.14327
  Beta virt. eigenvalues --    0.14464   0.15052   0.15598   0.16219   0.17100

 Mulliken charges and spin densities:
               1          2
     1  C   -0.445746  -0.023944
     2  C   -0.174045   0.303736
     3  N    0.092483  -0.112342
     4  C    0.511204   0.347472
     5  C   -0.700914   0.032298
     6  C   -0.194490   0.107607
     7  N   -0.282322  -0.046897
     8  C    0.211066   0.199088
     9  N   -0.213127  -0.037348
    10  N    0.025106   0.144003
    11  C   -0.288512  -0.022898
    12  S   -0.524114   0.043837
    13  C   -0.429011   0.007120
    14  H    0.117889   0.016458
    15  H    0.151562   0.000461
    16  H    0.118171   0.015814
    17  H    0.125694  -0.017577
    18  H    0.176965   0.000242
    19  H    0.119430   0.019686
    20  H    0.119919   0.019237
    21  H    0.179953   0.002290
    22  H    0.179968   0.002253
    23  H    0.122871  -0.000597
 Sum of Mulliken charges =  -1.00000   1.00000

 Dipole moment (field-independent basis, Debye):
    X=             -0.3772    Y=              6.8722    Z=             -0.0003  Tot=              6.8826
 Quadrupole moment (field-independent basis, Debye-Ang):
   XX=           -105.3630   YY=           -110.3876   ZZ=            -91.6810
   XY=             -3.3292   XZ=              0.0016   YZ=              0.0028

 Summary of Natural Population Analysis:

                                       Natural Population
                Natural  -----------------------------------------------
    Atom  No    Charge         Core      Valence    Rydberg      Total
 -----------------------------------------------------------------------
      C    1   -0.30853      0.99965     2.30495    0.00393     3.30853
      C    2    0.29752      0.99963     1.68983    0.01301     2.70248
      N    3   -0.32230      0.99964     2.80864    0.01402     3.82230
      C    4    0.14225      0.99942     1.84306    0.01527     2.85775
      C    5    0.00817      0.99942     1.97692    0.01549     2.99183
      C    6    0.21369      0.99950     1.77027    0.01655     2.78631
      N    7   -0.32764      0.99970     2.81826    0.00968     3.82764
      C    8    0.15820      0.99971     1.82104    0.02104     2.84180
      N    9   -0.28878      0.99972     2.77950    0.00956     3.78878
      N   10   -0.14534      0.99956     2.63726    0.00853     3.64534
      C   11   -0.18444      0.99966     2.17856    0.00622     3.18444
      S   12    0.12976      4.99956     2.84858    0.02210     7.87024
      C   13   -0.35146      0.99962     2.34603    0.00581     3.35146
      H   14    0.09955      0.00000     0.39944    0.00101     0.40045
      H   15    0.10981      0.00000     0.38929    0.00090     0.39019
      H   16    0.09952      0.00000     0.39948    0.00101     0.40048
      H   17    0.06886      0.00000     0.43003    0.00111     0.43114
      H   18    0.11636      0.00000     0.38240    0.00123     0.38364
      H   19    0.09150      0.00000     0.40743    0.00108     0.40850
      H   20    0.09150      0.00000     0.40743    0.00107     0.40850
      H   21    0.10343      0.00000     0.39523    0.00134     0.39657
      H   22    0.10343      0.00000     0.39523    0.00134     0.39657
      H   23    0.09494      0.00000     0.40405    0.00101     0.40506
 =======================================================================
   * Total *   -0.00000     16.99479    33.83291    0.17230    51.00000

 Normal termination of Gaussian 16 at Sun Dec 13 16:13:18 2020.
