 Gaussian 16, Revision A.03,

 -----------------------------------------------------------
 # opt freq B3LYP/6-31G(d) empiricaldispersion=gd3bj scf=xqc
 -----------------------------------------------------------

 ------------------------------
 CID_62692521_JID_3660_neutraal
 ------------------------------
 Symbolic Z-matrix:
 Charge =  0 Multiplicity = 1

 SCF Done:  E(RB3LYP) =  -973.800337056     A.U. after   14 cycles
 SCF Done:  E(RB3LYP) =  -973.806932257     A.U. after   12 cycles
 SCF Done:  E(RB3LYP) =  -973.808512711     A.U. after   12 cycles
 SCF Done:  E(RB3LYP) =  -973.809133677     A.U. after   11 cycles
 SCF Done:  E(RB3LYP) =  -973.809761353     A.U. after   12 cycles
 SCF Done:  E(RB3LYP) =  -973.810244145     A.U. after   12 cycles
 SCF Done:  E(RB3LYP) =  -973.810452282     A.U. after   12 cycles
 SCF Done:  E(RB3LYP) =  -973.810492238     A.U. after   10 cycles
 SCF Done:  E(RB3LYP) =  -973.810502546     A.U. after   10 cycles
 SCF Done:  E(RB3LYP) =  -973.810505613     A.U. after    8 cycles
 SCF Done:  E(RB3LYP) =  -973.810505973     A.U. after    7 cycles
 SCF Done:  E(RB3LYP) =  -973.810506029     A.U. after    7 cycles
 Optimization completed.
    -- Stationary point found.
 Normal termination of Gaussian 16 at Sun Dec 13 16:03:15 2020.

 --------------------------------------------------------------------
 #N Geom=AllCheck Guess=TCheck SCRF=Check GenChk RB3LYP/6-31G(d) Freq
 --------------------------------------------------------------------

 Structure from the checkpoint file:  "JID_3660.chk"
 ------------------------------
 CID_62692521_JID_3660_neutraal
 ------------------------------
 Charge =  0 Multiplicity = 1

 SCF Done:  E(RB3LYP) =  -973.810506029     A.U. after    1 cycles

  Exact polarizability: 135.528   0.397 109.904   0.146  -0.995 107.134
 Approx polarizability: 172.681   6.060 161.789   2.778   0.070 175.964

                      1                      2                      3
                      A                      A                      A
 Frequencies --     19.7796                49.9823                70.8524
 Red. masses --      3.0095                 3.6609                 4.1292
 Frc consts  --      0.0007                 0.0054                 0.0122
 IR Inten    --      0.5173                 0.0734                 3.2343

                      4                      5                      6
                      A                      A                      A
 Frequencies --    118.7711               145.4139               149.8965
 Red. masses --      2.2454                 3.3862                 3.9736
 Frc consts  --      0.0187                 0.0422                 0.0526
 IR Inten    --      0.9603                 1.3068                 1.2042

                      7                      8                      9
                      A                      A                      A
 Frequencies --    206.0905               212.7601               233.7840
 Red. masses --      1.3038                 1.6083                 2.0410
 Frc consts  --      0.0326                 0.0429                 0.0657
 IR Inten    --      0.9892                 1.3178                 2.6297

                     10                     11                     12
                      A                      A                      A
 Frequencies --    272.3384               288.9921               311.8196
 Red. masses --      3.6685                 3.0892                 2.4264
 Frc consts  --      0.1603                 0.1520                 0.1390
 IR Inten    --      0.8878                 2.7760                 8.5150

                     13                     14                     15
                      A                      A                      A
 Frequencies --    324.8601               341.7075               352.6417
 Red. masses --      1.8846                 1.6430                 2.7457
 Frc consts  --      0.1172                 0.1130                 0.2012
 IR Inten    --      1.6903                16.5497                 6.1348

                     16                     17                     18
                      A                      A                      A
 Frequencies --    379.6693               411.2399               436.4755
 Red. masses --      2.4290                 3.9377                 2.0461
 Frc consts  --      0.2063                 0.3924                 0.2297
 IR Inten    --      7.0595                18.1178                 2.7679

                     19                     20                     21
                      A                      A                      A
 Frequencies --    465.9736               488.6760               562.6664
 Red. masses --      2.9433                 3.9276                 3.3653
 Frc consts  --      0.3765                 0.5526                 0.6277
 IR Inten    --      9.9539                28.3922                14.8544

                     22                     23                     24
                      A                      A                      A
 Frequencies --    594.2531               656.8759               699.2076
 Red. masses --      3.7937                 3.5696                 4.3268
 Frc consts  --      0.7893                 0.9075                 1.2463
 IR Inten    --     10.5648                26.6951                 3.3203

                     25                     26                     27
                      A                      A                      A
 Frequencies --    760.6919               795.1870               842.0814
 Red. masses --      1.9148                 1.9413                 3.1134
 Frc consts  --      0.6528                 0.7232                 1.3008
 IR Inten    --     11.9879                15.3410                21.4007

                     28                     29                     30
                      A                      A                      A
 Frequencies --    861.8725               881.3007               896.8130
 Red. masses --      2.4975                 2.5152                 1.7646
 Frc consts  --      1.0930                 1.1510                 0.8362
 IR Inten    --      6.1641                22.3981                23.5114

                     31                     32                     33
                      A                      A                      A
 Frequencies --    937.8988               958.1384               968.2987
 Red. masses --      1.5173                 1.6338                 1.6437
 Frc consts  --      0.7864                 0.8837                 0.9080
 IR Inten    --     23.4542                 7.2911               145.4712

                     34                     35                     36
                      A                      A                      A
 Frequencies --    980.4677              1037.1753              1053.6168
 Red. masses --      1.9042                 1.9297                 2.2204
 Frc consts  --      1.0785                 1.2230                 1.4523
 IR Inten    --     11.1056                21.1963                14.6322

                     37                     38                     39
                      A                      A                      A
 Frequencies --   1076.0966              1092.5618              1104.3740
 Red. masses --      1.3971                 2.2537                 3.1102
 Frc consts  --      0.9532                 1.5850                 2.2349
 IR Inten    --     10.3903                71.8000               126.3464

                     40                     41                     42
                      A                      A                      A
 Frequencies --   1112.6242              1122.6621              1146.8750
 Red. masses --      2.7158                 1.7288                 1.2924
 Frc consts  --      1.9808                 1.2838                 1.0016
 IR Inten    --     31.5164                 4.5128                13.4785

                     43                     44                     45
                      A                      A                      A
 Frequencies --   1164.2512              1187.8188              1212.3640
 Red. masses --      1.5440                 1.3039                 2.1526
 Frc consts  --      1.2331                 1.0839                 1.8642
 IR Inten    --     17.7711                 8.7260                11.8637

                     46                     47                     48
                      A                      A                      A
 Frequencies --   1232.3403              1259.6420              1282.3355
 Red. masses --      1.6174                 1.7332                 2.0978
 Frc consts  --      1.4472                 1.6203                 2.0325
 IR Inten    --     15.7769                 7.1146                26.0021

                     49                     50                     51
                      A                      A                      A
 Frequencies --   1305.1178              1313.9893              1317.2170
 Red. masses --      1.3667                 1.8581                 2.1151
 Frc consts  --      1.3716                 1.8902                 2.1622
 IR Inten    --      9.8786                49.9277                82.2377

                     52                     53                     54
                      A                      A                      A
 Frequencies --   1332.0651              1339.4044              1367.6751
 Red. masses --      1.3123                 1.4822                 1.4144
 Frc consts  --      1.3720                 1.5667                 1.5588
 IR Inten    --      6.4078                29.6216                23.7472

                     55                     56                     57
                      A                      A                      A
 Frequencies --   1393.9127              1405.2235              1428.8466
 Red. masses --      1.3714                 1.4046                 1.3504
 Frc consts  --      1.5700                 1.6342                 1.6244
 IR Inten    --     14.3690                18.9228                 2.4017

                     58                     59                     60
                      A                      A                      A
 Frequencies --   1429.6425              1443.5702              1480.4893
 Red. masses --      1.3551                 1.2661                 1.1051
 Frc consts  --      1.6318                 1.5545                 1.4272
 IR Inten    --      0.3119                10.2296                13.9330

                     61                     62                     63
                      A                      A                      A
 Frequencies --   1487.5384              1491.6920              1517.8250
 Red. masses --      1.1219                 1.1464                 1.0650
 Frc consts  --      1.4627                 1.5029                 1.4456
 IR Inten    --      0.8465                 6.7318                 1.0881

                     64                     65                     66
                      A                      A                      A
 Frequencies --   1522.9751              1530.6372              1533.7341
 Red. masses --      1.0563                 1.0519                 1.0575
 Frc consts  --      1.4435                 1.4520                 1.4656
 IR Inten    --      2.6245                 7.9191                 3.4593

                     67                     68                     69
                      A                      A                      A
 Frequencies --   1537.4474              1544.7196              1724.2272
 Red. masses --      1.0755                 1.0644                 1.0793
 Frc consts  --      1.4978                 1.4964                 1.8905
 IR Inten    --      3.1223                19.2391                27.5359

                     70                     71                     72
                      A                      A                      A
 Frequencies --   2918.8545              2949.7683              2961.7572
 Red. masses --      1.0814                 1.0731                 1.0627
 Frc consts  --      5.4285                 5.5013                 5.4924
 IR Inten    --     43.9309                43.5524               105.4013

                     73                     74                     75
                      A                      A                      A
 Frequencies --   3049.1093              3049.2498              3065.3031
 Red. masses --      1.0538                 1.0472                 1.0855
 Frc consts  --      5.7725                 5.7370                 6.0096
 IR Inten    --     12.4568                41.6786                31.4539

                     76                     77                     78
                      A                      A                      A
 Frequencies --   3075.4610              3109.9035              3111.0485
 Red. masses --      1.0995                 1.0851                 1.0593
 Frc consts  --      6.1271                 6.1831                 6.0404
 IR Inten    --     15.1035                 3.4184                 5.0398

                     79                     80                     81
                      A                      A                      A
 Frequencies --   3114.4903              3118.9586              3121.1475
 Red. masses --      1.0818                 1.0704                 1.0775
 Frc consts  --      6.1827                 6.1352                 6.1841
 IR Inten    --     23.7402                11.6186                54.2495

                     82                     83                     84
                      A                      A                      A
 Frequencies --   3135.8930              3158.7939              3177.8113
 Red. masses --      1.1017                 1.1022                 1.1096
 Frc consts  --      6.3833                 6.4795                 6.6017
 IR Inten    --     38.0487                22.7352                 0.3517

                     85                     86                     87
                      A                      A                      A
 Frequencies --   3185.8233              3469.4312              3550.6077
 Red. masses --      1.1095                 1.0496                 1.0929
 Frc consts  --      6.6347                 7.4437                 8.1177
 IR Inten    --      0.6000                 5.2298                15.7055

 - Thermochemistry -
 -------------------
 Temperature   298.150 Kelvin.  Pressure   1.00000 Atm.
 Atom     1 has atomic number  6 and mass  12.00000

 Molecular mass:   206.10890 amu.
 Principal axes and moments of inertia in atomic units:
                           1         2         3
     Eigenvalues --  1483.624554337.379184694.31646
           X            0.99972  -0.02329   0.00319
           Y            0.02342   0.99860  -0.04738
           Z           -0.00208   0.04745   0.99887
 This molecule is an asymmetric top.
 Rotational symmetry number  1.
 Warning -- assumption of classical behavior for rotation
           may cause significant error
 Rotational temperatures (Kelvin)      0.05838     0.01997     0.01845
 Rotational constants (GHZ):           1.21644     0.41609     0.38445
 Zero-point vibrational energy     714969.6 (Joules/Mol)
                                  170.88183 (Kcal/Mol)
 Warning -- explicit consideration of  22 degrees of freedom as
           vibrations may cause significant error
 Vibrational temperatures:     28.46    71.91   101.94   170.89   209.22
          (Kelvin)            215.67   296.52   306.11   336.36   391.83
                              415.80   448.64   467.40   491.64   507.37
                              546.26   591.68   627.99   670.43   703.10
                              809.55   855.00   945.10  1006.00  1094.47
                             1144.10  1211.57  1240.04  1268.00  1290.31
                             1349.43  1378.55  1393.17  1410.67  1492.26
                             1515.92  1548.26  1571.95  1588.95  1600.82
                             1615.26  1650.10  1675.10  1709.01  1744.32
                             1773.06  1812.34  1844.99  1877.77  1890.54
                             1895.18  1916.54  1927.10  1967.78  2005.53
                             2021.80  2055.79  2056.94  2076.98  2130.09
                             2140.24  2146.21  2183.81  2191.22  2202.25
                             2206.70  2212.04  2222.51  2480.78  4199.58
                             4244.06  4261.31  4386.99  4387.19  4410.29
                             4424.90  4474.46  4476.10  4481.06  4487.49
                             4490.64  4511.85  4544.80  4572.16  4583.69
                             4991.74  5108.53

 Zero-point correction=                           0.272318 (Hartree/Particle)
 Thermal correction to Energy=                    0.286684
 Thermal correction to Enthalpy=                  0.287628
 Thermal correction to Gibbs Free Energy=         0.230484
 Sum of electronic and zero-point Energies=           -973.538189
 Sum of electronic and thermal Energies=              -973.523822
 Sum of electronic and thermal Enthalpies=            -973.522878
 Sum of electronic and thermal Free Energies=         -973.580022

                     E (Thermal)             CV                S
                      KCal/Mol        Cal/Mol-Kelvin    Cal/Mol-Kelvin
 Total                  179.897             54.444            120.271
 Electronic               0.000              0.000              0.000
 Translational            0.889              2.981             41.874
 Rotational               0.889              2.981             31.780
 Vibrational            178.119             48.483             46.617
 Vibration     1          0.593              1.986              6.656
 Vibration     2          0.595              1.978              4.818
 Vibration     3          0.598              1.968              4.130
 Vibration     4          0.609              1.934              3.120
 Vibration     5          0.617              1.908              2.731
 Vibration     6          0.618              1.903              2.674
 Vibration     7          0.641              1.831              2.078
 Vibration     8          0.644              1.821              2.020
 Vibration     9          0.654              1.789              1.850
 Vibration    10          0.675              1.724              1.581
 Vibration    11          0.686              1.694              1.480
 Vibration    12          0.700              1.651              1.353
 Vibration    13          0.709              1.626              1.286
 Vibration    14          0.721              1.592              1.204
 Vibration    15          0.729              1.570              1.154
 Vibration    16          0.750              1.514              1.040
 Vibration    17          0.775              1.446              0.922
 Vibration    18          0.797              1.391              0.838
 Vibration    19          0.823              1.326              0.749
 Vibration    20          0.845              1.275              0.687
 Vibration    21          0.918              1.112              0.519
 Vibration    22          0.952              1.044              0.460

                           ! Non-Optimized Parameters !
 Normal termination of Gaussian 16 at Sun Dec 13 16:12:07 2020.

 ----------------------------------------------------------------------
 # B3LYP/6-311++G(d,p) empiricaldispersion=gd3bj scf=xqc pop=npa geom=c
 heck
 ----------------------------------------------------------------------

 --------------------------------------
 CID_62692521_JID_3660_Energie_neutraal
 --------------------------------------
 Structure from the checkpoint file:  "JID_3660.chk"
 Charge =  0 Multiplicity = 1

 SCF Done:  E(RB3LYP) =  -974.010805875     A.U. after   15 cycles
 Normal termination of Gaussian 16 at Sun Dec 13 16:16:36 2020.

 ----------------------------------------------------------------------
 # B3LYP/6-311++G(d,p) empiricaldispersion=gd3bj scf=xqc pop=npa geom=c
 heck
 ----------------------------------------------------------------------

 ------------------------------------
 CID_62692521_JID_3660_Energie_kation
 ------------------------------------
 Structure from the checkpoint file:  "JID_3660.chk"
 Charge =  1 Multiplicity = 2

 SCF Done:  E(UB3LYP) =  -973.690193873     A.U. after   26 cycles
 Normal termination of Gaussian 16 at Sun Dec 13 16:27:27 2020.
 Gaussian 16:  ES64L-G16RevA.03 25-Dec-2016

 ----------------------------------------------------------------------
 # B3LYP/6-311++G(d,p) empiricaldispersion=gd3bj scf=xqc pop=npa geom=c
 heck
 ----------------------------------------------------------------------

 -----------------------------------
 CID_62692521_JID_3660_Energie_anion
 -----------------------------------
 Structure from the checkpoint file:  "JID_3660.chk"
 Charge = -1 Multiplicity = 2

                         Standard orientation:
 ---------------------------------------------------------------------
 Center     Atomic      Atomic             Coordinates (Angstroms)
 Number     Number       Type             X           Y           Z
 ---------------------------------------------------------------------
      1          6           0        3.400389   -1.362530    1.230438
      2          6           0        3.652926   -0.876573   -0.197719
      3          6           0        2.358773   -0.548094   -0.950769
      4          7           0        1.561386    0.501367   -0.296985
      5          6           0        2.156293    1.817645   -0.529807
      6          6           0        0.147746    0.478149   -0.671124
      7          6           0       -0.493599   -0.897242   -0.412627
      8         16           0       -2.270064   -0.586660   -0.061705
      9          8           0       -2.544106   -0.961996    1.339328
     10          8           0       -3.105027   -1.109915   -1.152613
     11          6           0       -2.139794    1.232044   -0.155132
     12          6           0       -0.674878    1.519107    0.160176
     13          7           0       -0.432094    1.457968    1.598277
     14          1           0        2.876680   -0.598890    1.812815
     15          1           0        4.339313   -1.602584    1.740308
     16          1           0        2.777900   -2.266135    1.232689
     17          1           0        4.321918   -0.007381   -0.183419
     18          1           0        4.180187   -1.649401   -0.771799
     19          1           0        2.585834   -0.273954   -1.998196
     20          1           0        1.759326   -1.461198   -0.989993
     21          1           0        2.061135    2.143982   -1.582290
     22          1           0        1.695394    2.573423    0.110203
     23          1           0        3.218300    1.785514   -0.280157
     24          1           0        0.012108    0.731875   -1.741478
     25          1           0       -0.455532   -1.581380   -1.260140
     26          1           0       -0.077006   -1.370407    0.478464
     27          1           0       -2.831010    1.665195    0.570320
     28          1           0       -2.412704    1.528196   -1.170460
     29          1           0       -0.438084    2.526646   -0.199290
     30          1           0       -0.995118    0.723121    2.024567
     31          1           0        0.543257    1.204836    1.751750
 ---------------------------------------------------------------------

 SCF Done:  E(UB3LYP) =  -974.002481971     A.U. after   27 cycles

 The electronic state is 2-A.
 Alpha  occ. eigenvalues --  -88.95452 -19.02840 -19.02800 -14.22256 -14.20452
 Alpha  occ. eigenvalues --  -10.12874 -10.12795 -10.12110 -10.11883 -10.10029
 Alpha  occ. eigenvalues --  -10.09109 -10.07294 -10.06457  -8.01998  -5.98262
 Alpha  occ. eigenvalues --   -5.98129  -5.98097  -1.01830  -0.91638  -0.85153
 Alpha  occ. eigenvalues --   -0.80665  -0.72996  -0.68672  -0.66500  -0.61371
 Alpha  occ. eigenvalues --   -0.60395  -0.55542  -0.51010  -0.49714  -0.47292
 Alpha  occ. eigenvalues --   -0.43471  -0.42436  -0.41010  -0.39314  -0.38062
 Alpha  occ. eigenvalues --   -0.37121  -0.35888  -0.35538  -0.34964  -0.33857
 Alpha  occ. eigenvalues --   -0.32849  -0.31560  -0.31114  -0.29286  -0.29180
 Alpha  occ. eigenvalues --   -0.28308  -0.27107  -0.25720  -0.24546  -0.24171
 Alpha  occ. eigenvalues --   -0.24002  -0.23215  -0.21933  -0.19863  -0.15882
 Alpha  occ. eigenvalues --   -0.13912   0.04072
 Alpha virt. eigenvalues --    0.06305   0.07256   0.07574   0.08668   0.09125
 Alpha virt. eigenvalues --    0.09404   0.10236   0.10667   0.11078   0.11578
 Alpha virt. eigenvalues --    0.11995   0.12457   0.13038   0.13502   0.14168

  Beta  occ. eigenvalues --  -88.95452 -19.02838 -19.02797 -14.22233 -14.20446
  Beta  occ. eigenvalues --  -10.12858 -10.12777 -10.12091 -10.11872 -10.10006
  Beta  occ. eigenvalues --  -10.09062 -10.07267 -10.06437  -8.01997  -5.98261
  Beta  occ. eigenvalues --   -5.98129  -5.98097  -1.01823  -0.91631  -0.85112
  Beta  occ. eigenvalues --   -0.80634  -0.72966  -0.68628  -0.66461  -0.61329
  Beta  occ. eigenvalues --   -0.60330  -0.55477  -0.50970  -0.49662  -0.47206
  Beta  occ. eigenvalues --   -0.43427  -0.42386  -0.40979  -0.39285  -0.38039
  Beta  occ. eigenvalues --   -0.37087  -0.35845  -0.35508  -0.34920  -0.33830
  Beta  occ. eigenvalues --   -0.32798  -0.31519  -0.31073  -0.29246  -0.29135
  Beta  occ. eigenvalues --   -0.28271  -0.27068  -0.25676  -0.24508  -0.24149
  Beta  occ. eigenvalues --   -0.23958  -0.23209  -0.21925  -0.19844  -0.15865
  Beta  occ. eigenvalues --   -0.13776
  Beta virt. eigenvalues --    0.06489   0.07359   0.07974   0.08088   0.09126
  Beta virt. eigenvalues --    0.09545   0.09997   0.10584   0.11077   0.11423
  Beta virt. eigenvalues --    0.11905   0.12268   0.12885   0.13191   0.13933

 Mulliken charges and spin densities:
               1          2
     1  C    0.347346  -0.820555
     2  C    0.100340  -0.416316
     3  C   -0.159170  -0.046027
     4  N    0.301031   0.099517
     5  C    1.185708  -1.519346
     6  C   -1.198415   0.553140
     7  C   -0.315740  -0.725171
     8  S    0.916985  -0.269779
     9  O   -0.235238   0.003836
    10  O   -0.124356   0.013924
    11  C   -0.347825  -1.000781
    12  C    0.551136  -0.103482
    13  N   -0.210003  -0.015777
    14  H    0.021767   0.130439
    15  H   -0.112766   0.262982
    16  H   -0.039341   0.156102
    17  H   -0.015800   0.148592
    18  H   -0.384742   0.534538
    19  H   -0.327985   0.484141
    20  H   -0.210672   0.366343
    21  H   -0.428514   0.590057
    22  H   -0.194787   0.351065
    23  H   -0.281276   0.419763
    24  H   -0.174373   0.355801
    25  H    0.023380   0.250097
    26  H    0.315698  -0.049474
    27  H    0.253241  -0.004304
    28  H   -0.240927   0.483628
    29  H   -0.392059   0.664422
    30  H    0.177780   0.051739
    31  H    0.199576   0.050886
 Sum of Mulliken charges =  -1.00000   1.00000

 Dipole moment (field-independent basis, Debye):
    X=             -2.9066    Y=             -1.7340    Z=              3.0709  Tot=              4.5701
 Quadrupole moment (field-independent basis, Debye-Ang):
   XX=           -160.8503   YY=           -139.0396   ZZ=           -131.6550
   XY=             -4.4200   XZ=              2.6365   YZ=              3.5466

 Summary of Natural Population Analysis:

                                       Natural Population
                Natural  -----------------------------------------------
    Atom  No    Charge         Core      Valence    Rydberg      Total
 -----------------------------------------------------------------------
      C    1   -0.28679      0.99966     2.28090    0.00623     3.28679
      C    2   -0.19248      0.99963     2.18503    0.00781     3.19248
      C    3   -0.08315      0.99960     2.07146    0.01209     3.08315
      N    4   -0.28858      0.99970     2.77491    0.01397     3.78858
      C    5   -0.18184      0.99963     2.17320    0.00901     3.18184
      C    6   -0.01415      0.99955     1.99985    0.01475     3.01415
      C    7   -0.29620      0.99956     2.28296    0.01368     3.29620
      S    8    1.01264      4.99930     1.89535    0.09272     6.98736
      O    9   -0.47366      0.99991     3.46838    0.00538     4.47366
      O   10   -0.46312      0.99991     3.45771    0.00551     4.46312
      C   11   -0.28841      0.99957     2.27535    0.01349     3.28841
      C   12   -0.02822      0.99958     2.01226    0.01638     3.02822
      N   13   -0.42873      0.99977     2.91874    0.01022     3.92873
      H   14    0.10019      0.00000     0.39840    0.00141     0.39981
      H   15    0.09811      0.00000     0.40105    0.00083     0.40189
      H   16    0.09400      0.00000     0.40500    0.00099     0.40600
      H   17    0.09519      0.00000     0.40339    0.00142     0.40481
      H   18    0.09856      0.00000     0.40003    0.00140     0.40144
      H   19    0.08950      0.00000     0.40870    0.00179     0.41050
      H   20    0.09401      0.00000     0.40411    0.00187     0.40599
      H   21    0.08934      0.00000     0.40840    0.00226     0.41066
      H   22    0.09791      0.00000     0.40051    0.00157     0.40209
      H   23    0.10060      0.00000     0.39798    0.00142     0.39940
      H   24    0.09432      0.00000     0.40262    0.00307     0.40568
      H   25    0.12242      0.00000     0.37643    0.00115     0.37758
      H   26    0.12169      0.00000     0.37685    0.00146     0.37831
      H   27    0.12147      0.00000     0.37745    0.00108     0.37853
      H   28    0.12350      0.00000     0.37504    0.00146     0.37650
      H   29    0.10746      0.00000     0.39010    0.00245     0.39254
      H   30    0.18093      0.00000     0.31689    0.00217     0.31907
      H   31    0.18346      0.00000     0.31404    0.00250     0.31654
 =======================================================================
   * Total *   -0.00000     16.99537    38.75307    0.25156    56.00000

 Normal termination of Gaussian 16 at Sun Dec 13 16:38:51 2020.
