 Gaussian 16, Revision A.03,

 -----------------------------------------------------------
 # opt freq B3LYP/6-31G(d) empiricaldispersion=gd3bj scf=xqc
 -----------------------------------------------------------

 --------------------------------
 CID_108104782_JID_10668_neutraal
 --------------------------------
 Symbolic Z-matrix:
 Charge =  0 Multiplicity = 1

 SCF Done:  E(RB3LYP) =  -954.822848046     A.U. after   15 cycles
 SCF Done:  E(RB3LYP) =  -954.831983334     A.U. after   13 cycles
 SCF Done:  E(RB3LYP) =  -954.834317807     A.U. after   13 cycles
 SCF Done:  E(RB3LYP) =  -954.834978733     A.U. after   13 cycles
 SCF Done:  E(RB3LYP) =  -954.835509162     A.U. after   13 cycles
 SCF Done:  E(RB3LYP) =  -954.836088181     A.U. after   12 cycles
 SCF Done:  E(RB3LYP) =  -954.836589971     A.U. after   13 cycles
 SCF Done:  E(RB3LYP) =  -954.837175110     A.U. after   13 cycles
 SCF Done:  E(RB3LYP) =  -954.837662299     A.U. after   13 cycles
 SCF Done:  E(RB3LYP) =  -954.837789303     A.U. after   13 cycles
 SCF Done:  E(RB3LYP) =  -954.838158436     A.U. after   11 cycles
 SCF Done:  E(RB3LYP) =  -954.838161948     A.U. after    9 cycles
 SCF Done:  E(RB3LYP) =  -954.838153292     A.U. after   10 cycles
 SCF Done:  E(RB3LYP) =  -954.838163002     A.U. after   10 cycles
 SCF Done:  E(RB3LYP) =  -954.838163251     A.U. after    7 cycles
 SCF Done:  E(RB3LYP) =  -954.838163353     A.U. after    8 cycles
 Optimization completed.
    -- Stationary point found.
 Normal termination of Gaussian 16 at Sat Dec 12 16:44:51 2020.

 --------------------------------------------------------------------
 #N Geom=AllCheck Guess=TCheck SCRF=Check GenChk RB3LYP/6-31G(d) Freq
 --------------------------------------------------------------------

 Structure from the checkpoint file:  "JID_10668.chk"
 --------------------------------
 CID_108104782_JID_10668_neutraal
 --------------------------------
 Charge =  0 Multiplicity = 1

 SCF Done:  E(RB3LYP) =  -954.838163353     A.U. after    1 cycles

  Exact polarizability: 206.296   3.198 167.292  16.143  -1.848 118.851
 Approx polarizability: 265.805  18.277 298.123  34.434   6.892 191.819

                      1                      2                      3
                      A                      A                      A
 Frequencies --     30.3688                33.8305                48.1218
 Red. masses --      5.5948                 4.8118                 5.7665
 Frc consts  --      0.0030                 0.0032                 0.0079
 IR Inten    --      0.5932                 2.5414                 0.8908

                      4                      5                      6
                      A                      A                      A
 Frequencies --     62.9398                72.7168                93.2425
 Red. masses --      5.5888                 6.5754                 3.1349
 Frc consts  --      0.0130                 0.0205                 0.0161
 IR Inten    --      1.6526                 8.2203                 0.4345

                      7                      8                      9
                      A                      A                      A
 Frequencies --    121.0468               141.8991               169.9196
 Red. masses --      3.6812                 3.5866                 4.7539
 Frc consts  --      0.0318                 0.0425                 0.0809
 IR Inten    --      1.6345                 0.2378                 0.3976

                     10                     11                     12
                      A                      A                      A
 Frequencies --    179.8027               183.1050               215.3728
 Red. masses --      5.4371                 4.6114                 4.6521
 Frc consts  --      0.1036                 0.0911                 0.1271
 IR Inten    --      0.8206                 1.5010                 1.3498

                     13                     14                     15
                      A                      A                      A
 Frequencies --    234.6604               253.6602               272.1017
 Red. masses --      1.3715                 1.0686                 4.2471
 Frc consts  --      0.0445                 0.0405                 0.1853
 IR Inten    --      1.2722                 0.1263                 5.5277

                     16                     17                     18
                      A                      A                      A
 Frequencies --    292.4571               310.3627               364.0222
 Red. masses --      1.9321                 5.4125                 6.3988
 Frc consts  --      0.0974                 0.3072                 0.4996
 IR Inten    --      0.9067                 8.6811                 2.3637

                     19                     20                     21
                      A                      A                      A
 Frequencies --    378.1437               393.1152               408.4256
 Red. masses --      3.4637                 3.1901                 2.2058
 Frc consts  --      0.2918                 0.2905                 0.2168
 IR Inten    --      2.2239                 4.6052                10.6842

                     22                     23                     24
                      A                      A                      A
 Frequencies --    424.7583               441.4561               463.7263
 Red. masses --      2.8406                 3.4879                 2.8443
 Frc consts  --      0.3020                 0.4005                 0.3604
 IR Inten    --      2.0832                19.5394                 2.2729

                     25                     26                     27
                      A                      A                      A
 Frequencies --    475.4957               526.2510               548.8502
 Red. masses --      5.2160                 4.0910                 4.8373
 Frc consts  --      0.6948                 0.6675                 0.8585
 IR Inten    --     11.7716                20.7199                 3.8771

                     28                     29                     30
                      A                      A                      A
 Frequencies --    560.4750               623.3481               641.9544
 Red. masses --      7.1142                 3.6108                 1.4073
 Frc consts  --      1.3167                 0.8266                 0.3417
 IR Inten    --      4.2094                27.7059                55.8253

                     31                     32                     33
                      A                      A                      A
 Frequencies --    676.7554               686.0314               705.0694
 Red. masses --      2.4171                 3.3409                 2.7324
 Frc consts  --      0.6522                 0.9264                 0.8003
 IR Inten    --     41.4665                24.1988                 6.6074

                     34                     35                     36
                      A                      A                      A
 Frequencies --    711.9014               747.1444               761.6133
 Red. masses --      2.6531                 2.6887                 2.4472
 Frc consts  --      0.7922                 0.8843                 0.8363
 IR Inten    --     20.4505                10.1254                81.9981

                     37                     38                     39
                      A                      A                      A
 Frequencies --    774.1804               788.2147               808.4438
 Red. masses --      4.1726                 4.0006                 2.1874
 Frc consts  --      1.4735                 1.4644                 0.8423
 IR Inten    --     12.2415                28.3033                 4.3311

                     40                     41                     42
                      A                      A                      A
 Frequencies --    852.8864               884.0273               891.4411
 Red. masses --      1.5286                 4.2121                 2.9052
 Frc consts  --      0.6551                 1.9395                 1.3602
 IR Inten    --      4.5413                10.4325                 2.2011

                     43                     44                     45
                      A                      A                      A
 Frequencies --    899.5465               937.6913               941.2596
 Red. masses --      1.5461                 1.2668                 1.7564
 Frc consts  --      0.7371                 0.6563                 0.9168
 IR Inten    --     20.4507                 0.4240                 1.4068

                     46                     47                     48
                      A                      A                      A
 Frequencies --    952.8127               964.0236               982.2001
 Red. masses --      2.9556                 1.4637                 1.5623
 Frc consts  --      1.5809                 0.8014                 0.8880
 IR Inten    --      7.5231                 1.4521                 0.6202

                     49                     50                     51
                      A                      A                      A
 Frequencies --    997.5180              1017.3348              1020.0413
 Red. masses --      2.2949                 4.7299                 2.0814
 Frc consts  --      1.3454                 2.8842                 1.2760
 IR Inten    --      1.1253                16.0257                 8.3724

                     52                     53                     54
                      A                      A                      A
 Frequencies --   1030.1588              1102.7992              1110.5109
 Red. masses --      1.8339                 2.8267                 2.1769
 Frc consts  --      1.1467                 2.0254                 1.5817
 IR Inten    --      2.1194                65.4228                 3.0512

                     55                     56                     57
                      A                      A                      A
 Frequencies --   1128.8905              1140.5193              1162.3697
 Red. masses --      1.5889                 2.4619                 2.2862
 Frc consts  --      1.1930                 1.8868                 1.8199
 IR Inten    --     35.9079                20.9853               111.9731

                     58                     59                     60
                      A                      A                      A
 Frequencies --   1193.3982              1204.7056              1214.2883
 Red. masses --      2.5578                 2.1797                 2.3954
 Frc consts  --      2.1463                 1.8638                 2.0810
 IR Inten    --     33.2178                10.9615                71.7546

                     61                     62                     63
                      A                      A                      A
 Frequencies --   1222.0280              1224.1922              1242.6413
 Red. masses --      2.0673                 1.5236                 1.8187
 Frc consts  --      1.8189                 1.3453                 1.6546
 IR Inten    --      0.5925                39.1691                57.8188

                     64                     65                     66
                      A                      A                      A
 Frequencies --   1260.0856              1267.4523              1302.8602
 Red. masses --      1.4573                 1.4526                 1.5363
 Frc consts  --      1.3633                 1.3749                 1.5364
 IR Inten    --     27.1857                10.9267                46.3139

                     67                     68                     69
                      A                      A                      A
 Frequencies --   1337.5746              1339.8953              1347.5688
 Red. masses --      1.2904                 1.7480                 1.5389
 Frc consts  --      1.3602                 1.8490                 1.6465
 IR Inten    --      2.4020                11.6954                19.8087

                     70                     71                     72
                      A                      A                      A
 Frequencies --   1364.7996              1369.7452              1392.1615
 Red. masses --      1.4219                 1.4064                 1.4206
 Frc consts  --      1.5605                 1.5547                 1.6222
 IR Inten    --      2.2433                14.0922                 5.6209

                     73                     74                     75
                      A                      A                      A
 Frequencies --   1414.5961              1437.9123              1438.9750
 Red. masses --      2.1502                 1.6904                 1.6461
 Frc consts  --      2.5351                 2.0593                 2.0082
 IR Inten    --    144.7635                80.7352                68.5748

                     76                     77                     78
                      A                      A                      A
 Frequencies --   1458.0973              1461.3988              1518.3724
 Red. masses --      1.2596                 2.7036                 1.1121
 Frc consts  --      1.5778                 3.4020                 1.5105
 IR Inten    --     17.7522                40.4100                 1.6181

                     79                     80                     81
                      A                      A                      A
 Frequencies --   1520.0642              1521.8535              1528.6806
 Red. masses --      1.8499                 1.2320                 1.0672
 Frc consts  --      2.5184                 1.6812                 1.4693
 IR Inten    --     26.6476                 9.3420                 5.9289

                     82                     83                     84
                      A                      A                      A
 Frequencies --   1535.5974              1542.1478              1551.8681
 Red. masses --      1.0603                 1.0615                 1.0892
 Frc consts  --      1.4731                 1.4874                 1.5455
 IR Inten    --     18.9221                 5.8570                 1.7790

                     85                     86                     87
                      A                      A                      A
 Frequencies --   1563.9898              1591.8811              1682.7334
 Red. masses --      1.0643                 6.0648                 5.3601
 Frc consts  --      1.5338                 9.0550                 8.9423
 IR Inten    --      5.7293                76.3115                43.8362

                     88                     89                     90
                      A                      A                      A
 Frequencies --   1732.1751              1791.7553              1829.8874
 Red. masses --     11.3535                 8.2611                 9.8626
 Frc consts  --     20.0708                15.6259                19.4576
 IR Inten    --    231.1926               568.0685               235.4195

                     91                     92                     93
                      A                      A                      A
 Frequencies --   3032.9124              3053.4618              3054.1615
 Red. masses --      1.0835                 1.0744                 1.0363
 Frc consts  --      5.8722                 5.9021                 5.6953
 IR Inten    --     24.6811                35.9934                16.8370

                     94                     95                     96
                      A                      A                      A
 Frequencies --   3060.3920              3074.6078              3095.8975
 Red. masses --      1.0379                 1.0634                 1.0647
 Frc consts  --      5.7273                 5.9229                 6.0127
 IR Inten    --     27.2213                26.9507                21.2306

                     97                     98                     99
                      A                      A                      A
 Frequencies --   3118.1272              3120.2850              3123.8302
 Red. masses --      1.1019                 1.1025                 1.1005
 Frc consts  --      6.3121                 6.3245                 6.3272
 IR Inten    --     11.9848                 5.8542                26.3778

                    100                    101                    102
                      A                      A                      A
 Frequencies --   3129.9963              3147.4884              3147.5557
 Red. masses --      1.1021                 1.1031                 1.1028
 Frc consts  --      6.3615                 6.4384                 6.4372
 IR Inten    --     41.0835                21.8196                 9.7178

                    103                    104                    105
                      A                      A                      A
 Frequencies --   3220.1813              3227.4397              3243.8277
 Red. masses --      1.0901                 1.0917                 1.0910
 Frc consts  --      6.6602                 6.6997                 6.7638
 IR Inten    --      1.1236                 5.5305                 0.8503

                    106                    107                    108
                      A                      A                      A
 Frequencies --   3263.6989              3600.3724              3674.6276
 Red. masses --      1.0948                 1.0778                 1.0639
 Frc consts  --      6.8707                 8.2320                 8.4639
 IR Inten    --      3.6739                66.7472                55.5806

 - Thermochemistry -
 -------------------
 Temperature   298.150 Kelvin.  Pressure   1.00000 Atm.
 Atom     1 has atomic number  6 and mass  12.00000

 Molecular mass:   278.12666 amu.
 Principal axes and moments of inertia in atomic units:
                           1         2         3
     Eigenvalues --  2341.64930********************
           X            0.99998  -0.00046  -0.00567
           Y            0.00020   0.99898  -0.04508
           Z            0.00568   0.04508   0.99897
 This molecule is an asymmetric top.
 Rotational symmetry number  1.
 Warning -- assumption of classical behavior for rotation
           may cause significant error
 Rotational temperatures (Kelvin)      0.03699     0.00833     0.00784
 Rotational constants (GHZ):           0.77071     0.17352     0.16326
 Zero-point vibrational energy     828026.7 (Joules/Mol)
                                  197.90314 (Kcal/Mol)
 Warning -- explicit consideration of  28 degrees of freedom as
           vibrations may cause significant error
 Vibrational temperatures:     43.69    48.67    69.24    90.56   104.62
          (Kelvin)            134.16   174.16   204.16   244.48   258.70
                              263.45   309.87   337.62   364.96   391.49
                              420.78   446.54   523.75   544.06   565.61
                              587.63   611.13   635.16   667.20   684.13
                              757.16   789.67   806.40   896.86   923.63
                              973.70   987.05  1014.44  1024.27  1074.97
                             1095.79  1113.87  1134.07  1163.17  1227.11
                             1271.92  1282.58  1294.25  1349.13  1354.26
                             1370.89  1387.01  1413.17  1435.21  1463.72
                             1467.61  1482.17  1586.68  1597.78  1624.22
                             1640.95  1672.39  1717.03  1733.30  1747.09
                             1758.23  1761.34  1787.88  1812.98  1823.58
                             1874.53  1924.47  1927.81  1938.85  1963.64
                             1970.76  2003.01  2035.29  2068.84  2070.36
                             2097.88  2102.63  2184.60  2187.03  2189.61
                             2199.43  2209.38  2218.81  2232.79  2250.23
                             2290.36  2421.08  2492.21  2577.94  2632.80
                             4363.68  4393.25  4394.26  4403.22  4423.67
                             4454.31  4486.29  4489.39  4494.49  4503.37
                             4528.53  4528.63  4633.12  4643.57  4667.14
                             4695.73  5180.13  5286.97

 Zero-point correction=                           0.315379 (Hartree/Particle)
 Thermal correction to Energy=                    0.334163
 Thermal correction to Enthalpy=                  0.335108
 Thermal correction to Gibbs Free Energy=         0.267431
 Sum of electronic and zero-point Energies=           -954.522785
 Sum of electronic and thermal Energies=              -954.504000
 Sum of electronic and thermal Enthalpies=            -954.503056
 Sum of electronic and thermal Free Energies=         -954.570732

                     E (Thermal)             CV                S
                      KCal/Mol        Cal/Mol-Kelvin    Cal/Mol-Kelvin
 Total                  209.691             71.817            142.437
 Electronic               0.000              0.000              0.000
 Translational            0.889              2.981             42.767
 Rotational               0.889              2.981             33.953
 Vibrational            207.913             65.855             65.717
 Vibration     1          0.594              1.984              5.805
 Vibration     2          0.594              1.983              5.591
 Vibration     3          0.595              1.978              4.893
 Vibration     4          0.597              1.972              4.363
 Vibration     5          0.599              1.967              4.078
 Vibration     6          0.602              1.954              3.591
 Vibration     7          0.609              1.932              3.084
 Vibration     8          0.615              1.911              2.778
 Vibration     9          0.625              1.880              2.436
 Vibration    10          0.629              1.867              2.330
 Vibration    11          0.631              1.863              2.297
 Vibration    12          0.645              1.818              1.998
 Vibration    13          0.654              1.788              1.843
 Vibration    14          0.665              1.757              1.705
 Vibration    15          0.675              1.725              1.583
 Vibration    16          0.688              1.688              1.460
 Vibration    17          0.699              1.654              1.360
 Vibration    18          0.738              1.546              1.105
 Vibration    19          0.748              1.517              1.047
 Vibration    20          0.760              1.485              0.988
 Vibration    21          0.773              1.452              0.932
 Vibration    22          0.787              1.416              0.876
 Vibration    23          0.801              1.380              0.822
 Vibration    24          0.821              1.331              0.755
 Vibration    25          0.832              1.304              0.722
 Vibration    26          0.881              1.192              0.596
 Vibration    27          0.904              1.142              0.547
 Vibration    28          0.916              1.117              0.523

 Optimization completed.
    -- Stationary point found.
 Normal termination of Gaussian 16 at Sat Dec 12 17:07:31 2020.

 ----------------------------------------------------------------------
 # B3LYP/6-311++G(d,p) empiricaldispersion=gd3bj scf=xqc pop=npa geom=c
 heck
 ----------------------------------------------------------------------

 ----------------------------------------
 CID_108104782_JID_10668_Energie_neutraal
 ----------------------------------------
 Structure from the checkpoint file:  "JID_10668.chk"
 Charge =  0 Multiplicity = 1

 SCF Done:  E(RB3LYP) =  -955.117793304     A.U. after   17 cycles
 Normal termination of Gaussian 16 at Sat Dec 12 17:18:47 2020.

 ----------------------------------------------------------------------
 # B3LYP/6-311++G(d,p) empiricaldispersion=gd3bj scf=xqc pop=npa geom=c
 heck
 ----------------------------------------------------------------------

 --------------------------------------
 CID_108104782_JID_10668_Energie_kation
 --------------------------------------
 Structure from the checkpoint file:  "JID_10668.chk"
 Charge =  1 Multiplicity = 2

 SCF Done:  E(UB3LYP) =  -954.811674483     A.U. after   30 cycles
 Normal termination of Gaussian 16 at Sat Dec 12 17:46:53 2020.
 Gaussian 16:  ES64L-G16RevA.03 25-Dec-2016

 ----------------------------------------------------------------------
 # B3LYP/6-311++G(d,p) empiricaldispersion=gd3bj scf=xqc pop=npa geom=c
 heck
 ----------------------------------------------------------------------

 -------------------------------------
 CID_108104782_JID_10668_Energie_anion
 -------------------------------------
 Structure from the checkpoint file:  "JID_10668.chk"
 Charge = -1 Multiplicity = 2

                         Standard orientation:
 ---------------------------------------------------------------------
 Center     Atomic      Atomic             Coordinates (Angstroms)
 Number     Number       Type             X           Y           Z
 ---------------------------------------------------------------------
      1          6           0        2.389436    2.225300   -0.218844
      2          6           0        2.152903    0.889786   -0.937812
      3          6           0        3.092522    0.764323   -2.146952
      4          6           0        2.244965   -0.357717    0.011674
      5          6           0        1.538192   -1.579406   -0.621934
      6          6           0        0.041158   -1.381856   -0.287896
      7          7           0        0.032250   -0.395981    0.813433
      8          6           0        1.397873   -0.174739    1.288512
      9          6           0       -0.896649    0.595485    0.979985
     10          8           0       -0.673669    1.624132    1.616956
     11          6           0       -2.257417    0.392981    0.367758
     12          6           0       -2.909768   -0.809574    0.401650
     13          6           0       -4.254232   -0.973706   -0.122960
     14          8           0       -4.911206   -2.009407   -0.142621
     15          7           0       -4.787689    0.218649   -0.653783
     16          6           0       -4.151786    1.427089   -0.673989
     17          6           0       -2.894996    1.555192   -0.169162
     18          6           0        3.690945   -0.598428    0.388235
     19          8           0        4.278518   -0.017196    1.275829
     20          8           0        4.300322   -1.527248   -0.390336
     21          1           0        3.333873    2.211577    0.334938
     22          1           0        1.581554    2.461556    0.478225
     23          1           0        2.439699    3.035917   -0.954323
     24          1           0        1.122098    0.891345   -1.317517
     25          1           0        4.139735    0.882937   -1.846240
     26          1           0        3.001763   -0.200161   -2.655726
     27          1           0        2.868493    1.551757   -2.874033
     28          1           0        1.909442   -2.500834   -0.165251
     29          1           0        1.707424   -1.662484   -1.697211
     30          1           0       -0.527969   -0.997815   -1.137562
     31          1           0       -0.420309   -2.326048    0.016644
     32          1           0        1.666076   -0.937866    2.029809
     33          1           0        1.474473    0.799533    1.760320
     34          1           0       -2.462153   -1.694086    0.837370
     35          1           0       -5.726411    0.125806   -1.023527
     36          1           0       -4.707555    2.252276   -1.105176
     37          1           0       -2.387194    2.509647   -0.148288
     38          1           0        5.224425   -1.572348   -0.078220
 ---------------------------------------------------------------------

 SCF Done:  E(UB3LYP) =  -955.134918437     A.U. after   31 cycles

 The electronic state is 2-A.
 Alpha  occ. eigenvalues --  -19.09054 -19.03354 -18.95216 -18.94147 -14.22089
 Alpha  occ. eigenvalues --  -14.22052 -10.22219 -10.13275 -10.12722 -10.11019
 Alpha  occ. eigenvalues --  -10.10423 -10.09929 -10.09801 -10.08587 -10.08262
 Alpha  occ. eigenvalues --  -10.07927 -10.06323 -10.04062 -10.03975 -10.01949
 Alpha  occ. eigenvalues --   -1.03018  -0.93955  -0.90930  -0.89717  -0.83355
 Alpha  occ. eigenvalues --   -0.81581  -0.74036  -0.68462  -0.67385  -0.64400
 Alpha  occ. eigenvalues --   -0.61667  -0.60041  -0.58274  -0.53944  -0.52132
 Alpha  occ. eigenvalues --   -0.51699  -0.49900  -0.46985  -0.44513  -0.42232
 Alpha  occ. eigenvalues --   -0.40913  -0.40698  -0.40238  -0.38198  -0.36775
 Alpha  occ. eigenvalues --   -0.35948  -0.35103  -0.34776  -0.33990  -0.33294
 Alpha  occ. eigenvalues --   -0.32261  -0.31006  -0.30355  -0.30214  -0.29875
 Alpha  occ. eigenvalues --   -0.29345  -0.29046  -0.28000  -0.27935  -0.27597
 Alpha  occ. eigenvalues --   -0.25682  -0.25431  -0.25150  -0.24598  -0.23945
 Alpha  occ. eigenvalues --   -0.23235  -0.22761  -0.21073  -0.19504  -0.16955
 Alpha  occ. eigenvalues --   -0.13655  -0.13190  -0.11671  -0.08998   0.03314
 Alpha virt. eigenvalues --    0.04887   0.07112   0.07536   0.07980   0.08250
 Alpha virt. eigenvalues --    0.09000   0.10287   0.10664   0.11086   0.11177
 Alpha virt. eigenvalues --    0.11674   0.12160   0.12652   0.13223   0.13646

  Beta  occ. eigenvalues --  -19.09022 -19.03345 -18.95006 -18.94072 -14.22021
  Beta  occ. eigenvalues --  -14.21840 -10.22216 -10.13158 -10.12707 -10.11012
  Beta  occ. eigenvalues --  -10.10419 -10.09932 -10.09801 -10.08583 -10.08026
  Beta  occ. eigenvalues --  -10.07922 -10.06321 -10.04089 -10.03768 -10.01666
  Beta  occ. eigenvalues --   -1.02975  -0.93921  -0.90599  -0.89514  -0.83212
  Beta  occ. eigenvalues --   -0.81180  -0.73993  -0.68168  -0.67139  -0.64374
  Beta  occ. eigenvalues --   -0.61234  -0.60009  -0.58125  -0.53707  -0.52092
  Beta  occ. eigenvalues --   -0.51220  -0.49747  -0.46910  -0.44457  -0.41994
  Beta  occ. eigenvalues --   -0.40867  -0.40665  -0.40138  -0.38007  -0.36529
  Beta  occ. eigenvalues --   -0.35887  -0.35027  -0.34755  -0.33950  -0.33150
  Beta  occ. eigenvalues --   -0.32055  -0.30906  -0.30198  -0.29966  -0.29318
  Beta  occ. eigenvalues --   -0.29148  -0.28963  -0.27907  -0.27846  -0.27531
  Beta  occ. eigenvalues --   -0.25272  -0.25189  -0.25126  -0.24441  -0.23880
  Beta  occ. eigenvalues --   -0.23142  -0.22600  -0.20306  -0.19466  -0.15498
  Beta  occ. eigenvalues --   -0.13328  -0.12624  -0.11361  -0.07760
  Beta virt. eigenvalues --    0.05574   0.07144   0.07545   0.07950   0.08236
  Beta virt. eigenvalues --    0.08847   0.09030   0.10272   0.10557   0.11038
  Beta virt. eigenvalues --    0.11095   0.11629   0.12173   0.13056   0.13236

 Mulliken charges and spin densities:
               1          2
     1  C   -0.643603  -0.047313
     2  C   -0.015079   0.146737
     3  C   -0.530604  -0.080218
     4  C    0.708980  -0.118455
     5  C   -0.421058  -0.278063
     6  C   -0.166058   0.031813
     7  N    0.274114  -0.001971
     8  C   -0.885221  -0.008501
     9  C   -1.450264  -0.043462
    10  O   -0.315922   0.073401
    11  C    0.805204   0.287525
    12  C    0.230203   0.324400
    13  C   -0.244486   0.013685
    14  O   -0.440578   0.026021
    15  N   -0.240695   0.084158
    16  C   -0.369538   0.187782
    17  C    0.218267  -0.112800
    18  C    0.173708  -0.144425
    19  O   -0.215303   0.012609
    20  O   -0.113928   0.018058
    21  H    0.177182  -0.002152
    22  H    0.175619   0.007030
    23  H    0.118937   0.005156
    24  H    0.204322   0.001255
    25  H    0.105368   0.068545
    26  H    0.109206   0.024492
    27  H    0.128464   0.015014
    28  H    0.142828   0.063754
    29  H    0.158899   0.000013
    30  H    0.187175  -0.003250
    31  H    0.114695   0.018193
    32  H    0.135758   0.057631
    33  H    0.219391  -0.011736
    34  H    0.188835  -0.017428
    35  H    0.301975  -0.005751
    36  H    0.112468  -0.015973
    37  H    0.181426   0.007694
    38  H   -0.120687   0.416531
 Sum of Mulliken charges =  -1.00000   1.00000

 Dipole moment (field-independent basis, Debye):
    X=              5.2556    Y=              1.7767    Z=             -4.0663  Tot=              6.8784
 Quadrupole moment (field-independent basis, Debye-Ang):
   XX=           -203.4370   YY=           -144.9007   ZZ=           -136.1291
   XY=            -16.2141   XZ=              1.9951   YZ=             -8.8204

 Summary of Natural Population Analysis:

                                       Natural Population
                Natural  -----------------------------------------------
    Atom  No    Charge         Core      Valence    Rydberg      Total
 -----------------------------------------------------------------------
      C    1   -0.29372      0.99965     2.28896    0.00511     3.29372
      C    2   -0.10890      0.99959     2.09873    0.01059     3.10890
      C    3   -0.28681      0.99965     2.28044    0.00672     3.28681
      C    4   -0.07948      0.99949     2.06717    0.01283     3.07948
      C    5   -0.19405      0.99961     2.18404    0.01040     3.19405
      C    6   -0.08219      0.99964     2.07484    0.00771     3.08219
      N    7   -0.25950      0.99964     2.75066    0.00919     3.75950
      C    8   -0.08283      0.99959     2.06934    0.01389     3.08283
      C    9    0.35989      0.99959     1.61920    0.02131     2.64011
      O   10   -0.31229      0.99988     3.30709    0.00532     4.31229
      C   11    0.00303      0.99947     1.98740    0.01010     2.99697
      C   12   -0.09285      0.99948     2.08531    0.00807     3.09285
      C   13    0.31299      0.99964     1.66531    0.02206     2.68701
      O   14   -0.34504      0.99988     3.33796    0.00721     4.34504
      N   15   -0.25914      0.99967     2.75118    0.00829     3.75914
      C   16    0.06139      0.99959     1.92781    0.01121     2.93861
      C   17   -0.16287      0.99954     2.15386    0.00947     3.16287
      C   18    0.41651      0.99959     1.55627    0.02762     2.58349
      O   19   -0.30764      0.99987     3.30192    0.00586     4.30764
      O   20   -0.34496      0.99987     3.33857    0.00651     4.34496
      H   21    0.10274      0.00000     0.39635    0.00090     0.39726
      H   22    0.11589      0.00000     0.38322    0.00089     0.38411
      H   23    0.09531      0.00000     0.40389    0.00080     0.40469
      H   24    0.10343      0.00000     0.39511    0.00146     0.39657
      H   25    0.09714      0.00000     0.40205    0.00081     0.40286
      H   26    0.10056      0.00000     0.39871    0.00073     0.39944
      H   27    0.09842      0.00000     0.40088    0.00070     0.40158
      H   28    0.10344      0.00000     0.39559    0.00096     0.39656
      H   29    0.10421      0.00000     0.39498    0.00081     0.39579
      H   30    0.10505      0.00000     0.39399    0.00096     0.39495
      H   31    0.09590      0.00000     0.40233    0.00176     0.40410
      H   32    0.09347      0.00000     0.40565    0.00088     0.40653
      H   33    0.12339      0.00000     0.37549    0.00112     0.37661
      H   34    0.09710      0.00000     0.40158    0.00132     0.40290
      H   35    0.18803      0.00000     0.30932    0.00265     0.31197
      H   36    0.08612      0.00000     0.41280    0.00108     0.41388
      H   37    0.10851      0.00000     0.39048    0.00102     0.39149
      H   38    0.23973      0.00000     0.25321    0.00706     0.26027
 =======================================================================
   * Total *    0.00000     19.99290    53.76171    0.24539    74.00000

 Normal termination of Gaussian 16 at Sat Dec 12 18:16:18 2020.
