 Gaussian 16, Revision A.03,

 -----------------------------------------------------------
 # opt freq B3LYP/6-31G(d) empiricaldispersion=gd3bj scf=xqc
 -----------------------------------------------------------

 -------------------------------
 CID_61125631_JID_10538_neutraal
 -------------------------------
 Symbolic Z-matrix:
 Charge =  0 Multiplicity = 1

 SCF Done:  E(RB3LYP) =  -1313.55753000     A.U. after   14 cycles
 SCF Done:  E(RB3LYP) =  -1313.56461530     A.U. after   12 cycles
 SCF Done:  E(RB3LYP) =  -1313.56693142     A.U. after   12 cycles
 SCF Done:  E(RB3LYP) =  -1313.56796456     A.U. after   12 cycles
 SCF Done:  E(RB3LYP) =  -1313.56841863     A.U. after   12 cycles
 SCF Done:  E(RB3LYP) =  -1313.56867624     A.U. after   11 cycles
 SCF Done:  E(RB3LYP) =  -1313.56876681     A.U. after   12 cycles
 SCF Done:  E(RB3LYP) =  -1313.56883203     A.U. after   11 cycles
 SCF Done:  E(RB3LYP) =  -1313.56894906     A.U. after   12 cycles
 SCF Done:  E(RB3LYP) =  -1313.56900309     A.U. after   12 cycles
 SCF Done:  E(RB3LYP) =  -1313.56920548     A.U. after   11 cycles
 SCF Done:  E(RB3LYP) =  -1313.56920278     A.U. after   11 cycles
 SCF Done:  E(RB3LYP) =  -1313.56920760     A.U. after   11 cycles
 SCF Done:  E(RB3LYP) =  -1313.56920790     A.U. after    8 cycles
 SCF Done:  E(RB3LYP) =  -1313.56920798     A.U. after    7 cycles
 Optimization completed.
    -- Stationary point found.
 Normal termination of Gaussian 16 at Mon Dec 14 17:54:02 2020.

 --------------------------------------------------------------------
 #N Geom=AllCheck Guess=TCheck SCRF=Check GenChk RB3LYP/6-31G(d) Freq
 --------------------------------------------------------------------

 Structure from the checkpoint file:  "JID_10538.chk"
 -------------------------------
 CID_61125631_JID_10538_neutraal
 -------------------------------
 Charge =  0 Multiplicity = 1

 SCF Done:  E(RB3LYP) =  -1313.56920798     A.U. after    1 cycles

  Exact polarizability: 219.184  -5.411 180.270  -4.561  -5.561 123.333
 Approx polarizability: 287.535 -15.560 296.316  -3.827 -21.296 214.832

                      1                      2                      3
                      A                      A                      A
 Frequencies --     17.6177                28.1174                38.6620
 Red. masses --      5.6345                 5.4287                 5.1570
 Frc consts  --      0.0010                 0.0025                 0.0045
 IR Inten    --      0.7979                 0.7319                 0.6087

                      4                      5                      6
                      A                      A                      A
 Frequencies --     52.6838                77.0512                93.1725
 Red. masses --      6.5399                 4.5316                 3.9556
 Frc consts  --      0.0107                 0.0159                 0.0202
 IR Inten    --      0.9619                 0.7518                 4.9605

                      7                      8                      9
                      A                      A                      A
 Frequencies --    108.4245               119.6528               142.0446
 Red. masses --      4.7786                 3.0340                 3.4132
 Frc consts  --      0.0331                 0.0256                 0.0406
 IR Inten    --      1.3318                 6.2637                 1.6468

                     10                     11                     12
                      A                      A                      A
 Frequencies --    152.3077               163.8207               199.8292
 Red. masses --      1.9214                 2.3503                 3.9142
 Frc consts  --      0.0263                 0.0372                 0.0921
 IR Inten    --      1.1598                 0.1533                 1.2268

                     13                     14                     15
                      A                      A                      A
 Frequencies --    232.1748               272.1801               276.7001
 Red. masses --      4.2026                 6.6083                 1.0474
 Frc consts  --      0.1335                 0.2884                 0.0472
 IR Inten    --      0.4926                 0.9201                21.4366

                     16                     17                     18
                      A                      A                      A
 Frequencies --    282.0169               295.1162               327.8466
 Red. masses --      4.8074                 5.5752                 4.5258
 Frc consts  --      0.2253                 0.2861                 0.2866
 IR Inten    --      0.6981                 5.2329                33.7355

                     19                     20                     21
                      A                      A                      A
 Frequencies --    359.6747               373.8996               399.6854
 Red. masses --      2.5687                 3.6819                 3.5137
 Frc consts  --      0.1958                 0.3033                 0.3307
 IR Inten    --      1.4061                 2.8742                 6.2112

                     22                     23                     24
                      A                      A                      A
 Frequencies --    410.6960               440.4628               469.3740
 Red. masses --      4.2510                 4.9999                 4.5679
 Frc consts  --      0.4225                 0.5715                 0.5929
 IR Inten    --     11.2893                24.3853                10.0955

                     25                     26                     27
                      A                      A                      A
 Frequencies --    497.0302               511.8009               539.9278
 Red. masses --      4.0131                 4.1017                 4.4658
 Frc consts  --      0.5841                 0.6330                 0.7670
 IR Inten    --     12.5832                 9.7752                 5.0955

                     28                     29                     30
                      A                      A                      A
 Frequencies --    591.3775               595.5938               614.9549
 Red. masses --      5.8885                 2.2611                 3.4951
 Frc consts  --      1.2133                 0.4726                 0.7787
 IR Inten    --     60.1133               215.1408                 5.3858

                     31                     32                     33
                      A                      A                      A
 Frequencies --    634.4999               648.5822               661.3987
 Red. masses --      3.2758                 2.0528                 3.5535
 Frc consts  --      0.7770                 0.5088                 0.9159
 IR Inten    --     17.0990               153.4239               123.8350

                     34                     35                     36
                      A                      A                      A
 Frequencies --    695.5334               717.9890               732.9167
 Red. masses --      2.6797                 4.3581                 4.8213
 Frc consts  --      0.7638                 1.3237                 1.5259
 IR Inten    --      6.8572                29.5897                 2.3665

                     37                     38                     39
                      A                      A                      A
 Frequencies --    738.7778               777.5017               814.9184
 Red. masses --      1.4158                 4.1337                 1.8373
 Frc consts  --      0.4553                 1.4723                 0.7189
 IR Inten    --     54.2142                 2.8154               137.0446

                     40                     41                     42
                      A                      A                      A
 Frequencies --    826.3588               840.3335               873.3646
 Red. masses --      1.2430                 1.5848                 1.3261
 Frc consts  --      0.5001                 0.6594                 0.5960
 IR Inten    --     56.7858                30.8582                21.2020

                     43                     44                     45
                      A                      A                      A
 Frequencies --    889.3407               901.2482               911.1663
 Red. masses --      1.4367                 2.6846                 5.2715
 Frc consts  --      0.6695                 1.2848                 2.5786
 IR Inten    --      7.7950                56.4203                 6.3140

                     46                     47                     48
                      A                      A                      A
 Frequencies --    924.3365               934.4569               942.9472
 Red. masses --      4.3944                 3.2267                 1.3297
 Frc consts  --      2.2121                 1.6601                 0.6966
 IR Inten    --     10.3080                55.4174                 0.3141

                     49                     50                     51
                      A                      A                      A
 Frequencies --    996.7429              1023.8511              1040.1742
 Red. masses --      2.1765                 1.7188                 7.1137
 Frc consts  --      1.2740                 1.0616                 4.5348
 IR Inten    --     20.3462                 6.4541                75.5969

                     52                     53                     54
                      A                      A                      A
 Frequencies --   1056.8523              1080.2810              1101.8067
 Red. masses --      1.4947                 3.5847                 4.1054
 Frc consts  --      0.9836                 2.4648                 2.9364
 IR Inten    --     26.2685                22.8694                46.4810

                     55                     56                     57
                      A                      A                      A
 Frequencies --   1112.5254              1120.2321              1124.8539
 Red. masses --      3.0625                 2.7215                 2.1801
 Frc consts  --      2.2333                 2.0122                 1.6253
 IR Inten    --    100.5352                 4.8273                44.1710

                     58                     59                     60
                      A                      A                      A
 Frequencies --   1172.2822              1179.2212              1187.2720
 Red. masses --      1.2180                 1.7291                 1.2548
 Frc consts  --      0.9862                 1.4166                 1.0422
 IR Inten    --     26.8677                16.5458                 1.1006

                     61                     62                     63
                      A                      A                      A
 Frequencies --   1199.6457              1218.1854              1255.8109
 Red. masses --      1.8487                 1.3881                 1.5168
 Frc consts  --      1.5675                 1.2137                 1.4094
 IR Inten    --     19.5801                 5.2055                20.2906

                     64                     65                     66
                      A                      A                      A
 Frequencies --   1261.4412              1263.4140              1298.8095
 Red. masses --      1.6765                 1.7607                 2.3161
 Frc consts  --      1.5718                 1.6558                 2.3020
 IR Inten    --     64.6173                 5.4265               112.6775

                     67                     68                     69
                      A                      A                      A
 Frequencies --   1301.4667              1315.5535              1334.6308
 Red. masses --      1.4945                 4.2736                 4.2617
 Frc consts  --      1.4915                 4.3577                 4.4725
 IR Inten    --     12.6786               155.9799                23.8876

                     70                     71                     72
                      A                      A                      A
 Frequencies --   1359.3078              1377.4169              1393.6751
 Red. masses --      5.2403                 1.4335                 1.2922
 Frc consts  --      5.7049                 1.6024                 1.4788
 IR Inten    --     14.0523                10.7632                19.6922

                     73                     74                     75
                      A                      A                      A
 Frequencies --   1441.2154              1467.6946              1477.5870
 Red. masses --      2.4100                 1.2675                 2.7188
 Frc consts  --      2.9493                 1.6087                 3.4974
 IR Inten    --      1.5206                43.0870                12.2201

                     76                     77                     78
                      A                      A                      A
 Frequencies --   1492.4490              1503.7802              1508.3988
 Red. masses --      1.3127                 1.0984                 1.0994
 Frc consts  --      1.7227                 1.4635                 1.4737
 IR Inten    --     32.4055                11.2680                 1.3368

                     79                     80                     81
                      A                      A                      A
 Frequencies --   1515.4165              1533.3643              1545.6848
 Red. masses --      1.0537                 1.0499                 2.7347
 Frc consts  --      1.4257                 1.4543                 3.8495
 IR Inten    --      5.1658                 6.4446               187.9785

                     82                     83                     84
                      A                      A                      A
 Frequencies --   1551.6646              1628.8179              1644.5416
 Red. masses --      4.6963                 6.4559                 5.9521
 Frc consts  --      6.6620                10.0914                 9.4843
 IR Inten    --     17.2543                 6.2332                 4.4643

                     85                     86                     87
                      A                      A                      A
 Frequencies --   1668.6596              1696.5926              3038.6124
 Red. masses --      3.9463                 1.2721                 1.0382
 Frc consts  --      6.4740                 2.1573                 5.6479
 IR Inten    --     10.6841                92.5010                61.5486

                     88                     89                     90
                      A                      A                      A
 Frequencies --   3072.7019              3077.4013              3123.1584
 Red. masses --      1.0644                 1.0671                 1.0972
 Frc consts  --      5.9212                 5.9542                 6.3058
 IR Inten    --     13.4495                27.3083                23.6133

                     91                     92                     93
                      A                      A                      A
 Frequencies --   3134.3390              3151.3938              3166.4217
 Red. masses --      1.0991                 1.1003                 1.1054
 Frc consts  --      6.3617                 6.4384                 6.5299
 IR Inten    --      6.6163                 9.2196                24.1904

                     94                     95                     96
                      A                      A                      A
 Frequencies --   3183.8022              3211.8245              3223.4762
 Red. masses --      1.0887                 1.0932                 1.0897
 Frc consts  --      6.5021                 6.6445                 6.6714
 IR Inten    --     17.0367                 9.3024                 6.7898

                     97                     98                     99
                      A                      A                      A
 Frequencies --   3263.4905              3274.2126              3302.3155
 Red. masses --      1.0925                 1.0963                 1.1049
 Frc consts  --      6.8555                 6.9243                 7.0991
 IR Inten    --      3.3151                 0.9022                 2.3731

                    100                    101                    102
                      A                      A                      A
 Frequencies --   3494.8405              3550.6328              3648.6671
 Red. masses --      1.0740                 1.0481                 1.0980
 Frc consts  --      7.7290                 7.7848                 8.6123
 IR Inten    --     75.3284                15.3733                 9.4507

 - Thermochemistry -
 -------------------
 Temperature   298.150 Kelvin.  Pressure   1.00000 Atm.
 Atom     1 has atomic number  6 and mass  12.00000

 Molecular mass:   296.08308 amu.
 Principal axes and moments of inertia in atomic units:
                           1         2         3
     Eigenvalues --  2938.90692********************
           X            1.00000  -0.00096  -0.00278
           Y            0.00101   0.99985   0.01721
           Z            0.00276  -0.01721   0.99985
 This molecule is an asymmetric top.
 Rotational symmetry number  1.
 Warning -- assumption of classical behavior for rotation
           may cause significant error
 Rotational temperatures (Kelvin)      0.02947     0.00809     0.00709
 Rotational constants (GHZ):           0.61409     0.16860     0.14769
 Zero-point vibrational energy     750765.4 (Joules/Mol)
                                  179.43724 (Kcal/Mol)
 Warning -- explicit consideration of  30 degrees of freedom as
           vibrations may cause significant error
 Vibrational temperatures:     25.35    40.45    55.63    75.80   110.86
          (Kelvin)            134.05   156.00   172.15   204.37   219.14
                              235.70   287.51   334.05   391.61   398.11
                              405.76   424.61   471.70   517.49   537.96
                              575.06   590.90   633.73   675.32   715.12
                              736.37   776.84   850.86   856.93   884.78
                              912.90   933.17   951.61  1000.72  1033.03
                             1054.50  1062.94  1118.65  1172.49  1188.95
                             1209.05  1256.58  1279.56  1296.70  1310.97
                             1329.91  1344.48  1356.69  1434.09  1473.09
                             1496.58  1520.57  1554.28  1585.25  1600.68
                             1611.76  1618.41  1686.65  1696.64  1708.22
                             1726.02  1752.70  1806.83  1814.93  1817.77
                             1868.70  1872.52  1892.79  1920.24  1955.74
                             1981.80  2005.19  2073.59  2111.69  2125.92
                             2147.30  2163.60  2170.25  2180.35  2206.17
                             2223.90  2232.50  2343.51  2366.13  2400.83
                             2441.02  4371.89  4420.93  4427.69  4493.53
                             4509.61  4534.15  4555.77  4580.78  4621.10
                             4637.86  4695.43  4710.86  4751.30  5028.30
                             5108.57  5249.62

 Zero-point correction=                           0.285951 (Hartree/Particle)
 Thermal correction to Energy=                    0.305277
 Thermal correction to Enthalpy=                  0.306221
 Thermal correction to Gibbs Free Energy=         0.236151
 Sum of electronic and zero-point Energies=          -1313.283257
 Sum of electronic and thermal Energies=             -1313.263931
 Sum of electronic and thermal Enthalpies=           -1313.262987
 Sum of electronic and thermal Free Energies=        -1313.333057

                     E (Thermal)             CV                S
                      KCal/Mol        Cal/Mol-Kelvin    Cal/Mol-Kelvin
 Total                  191.564             72.904            147.475
 Electronic               0.000              0.000              0.000
 Translational            0.889              2.981             42.954
 Rotational               0.889              2.981             34.307
 Vibrational            189.787             66.943             70.214
 Vibration     1          0.593              1.986              6.886
 Vibration     2          0.593              1.984              5.958
 Vibration     3          0.594              1.981              5.326
 Vibration     4          0.596              1.977              4.714
 Vibration     5          0.599              1.964              3.965
 Vibration     6          0.602              1.954              3.592
 Vibration     7          0.606              1.942              3.297
 Vibration     8          0.609              1.933              3.106
 Vibration     9          0.616              1.911              2.776
 Vibration    10          0.619              1.900              2.643
 Vibration    11          0.623              1.887              2.505
 Vibration    12          0.638              1.840              2.135
 Vibration    13          0.653              1.792              1.862
 Vibration    14          0.675              1.725              1.582
 Vibration    15          0.678              1.717              1.554
 Vibration    16          0.681              1.707              1.521
 Vibration    17          0.689              1.683              1.444
 Vibration    18          0.711              1.620              1.271
 Vibration    19          0.734              1.555              1.124
 Vibration    20          0.745              1.526              1.064
 Vibration    21          0.766              1.471              0.964
 Vibration    22          0.775              1.447              0.924
 Vibration    23          0.800              1.382              0.825
 Vibration    24          0.826              1.318              0.739
 Vibration    25          0.853              1.257              0.666
 Vibration    26          0.867              1.224              0.629
 Vibration    27          0.895              1.162              0.565
 Vibration    28          0.949              1.050              0.465
 Vibration    29          0.953              1.041              0.457
 Vibration    30          0.974              1.000              0.425

                           ! Non-Optimized Parameters !
 Normal termination of Gaussian 16 at Mon Dec 14 18:11:32 2020.

 ----------------------------------------------------------------------
 # B3LYP/6-311++G(d,p) empiricaldispersion=gd3bj scf=xqc pop=npa geom=c
 heck
 ----------------------------------------------------------------------

 ---------------------------------------
 CID_61125631_JID_10538_Energie_neutraal
 ---------------------------------------
 Structure from the checkpoint file:  "JID_10538.chk"
 Charge =  0 Multiplicity = 1

 SCF Done:  E(RB3LYP) =  -1313.85890383     A.U. after   15 cycles
 Normal termination of Gaussian 16 at Mon Dec 14 18:19:23 2020.

 ----------------------------------------------------------------------
 # B3LYP/6-311++G(d,p) empiricaldispersion=gd3bj scf=xqc pop=npa geom=c
 heck
 ----------------------------------------------------------------------

 -------------------------------------
 CID_61125631_JID_10538_Energie_kation
 -------------------------------------
 Structure from the checkpoint file:  "JID_10538.chk"
 Charge =  1 Multiplicity = 2

 SCF Done:  E(UB3LYP) =  -1313.58077951     A.U. after   29 cycles
 Normal termination of Gaussian 16 at Mon Dec 14 18:41:26 2020.
 Gaussian 16:  ES64L-G16RevA.03 25-Dec-2016

 ----------------------------------------------------------------------
 # B3LYP/6-311++G(d,p) empiricaldispersion=gd3bj scf=xqc pop=npa geom=c
 heck
 ----------------------------------------------------------------------

 ------------------------------------
 CID_61125631_JID_10538_Energie_anion
 ------------------------------------
 Structure from the checkpoint file:  "JID_10538.chk"
 Charge = -1 Multiplicity = 2

                         Standard orientation:
 ---------------------------------------------------------------------
 Center     Atomic      Atomic             Coordinates (Angstroms)
 Number     Number       Type             X           Y           Z
 ---------------------------------------------------------------------
      1          6           0        2.984652   -2.898504   -0.598789
      2          8           0        2.694389   -2.081282    0.541450
      3          6           0        2.875747   -0.736435    0.346140
      4          6           0        1.773237    0.108835    0.162085
      5          6           0        1.928476    1.486166    0.032947
      6          6           0        3.209989    2.055905    0.067859
      7          6           0        4.316654    1.209589    0.242984
      8          6           0        4.147471   -0.164089    0.382147
      9          7           0        3.380133    3.430040   -0.126457
     10         16           0        0.148927   -0.650490    0.118438
     11          8           0        0.122263   -1.572731   -1.026659
     12          8           0       -0.213450   -1.105374    1.465550
     13          7           0       -0.865156    0.660824   -0.225359
     14          6           0       -1.600345    0.641997   -1.497606
     15          6           0       -2.787484   -0.346910   -1.509917
     16          6           0       -3.729792   -0.108914   -0.381353
     17          6           0       -3.751836   -0.526712    0.919999
     18          6           0       -4.861767    0.136315    1.546062
     19          6           0       -5.430373    0.912142    0.584473
     20          8           0       -4.751808    0.782424   -0.594976
     21          1           0        4.022447   -2.758926   -0.928112
     22          1           0        2.294851   -2.669286   -1.416152
     23          1           0        2.840488   -3.929977   -0.272529
     24          1           0        1.048505    2.103939   -0.104642
     25          1           0        5.316356    1.635550    0.274322
     26          1           0        5.004733   -0.811242    0.539880
     27          1           0        4.226972    3.810868    0.277520
     28          1           0        2.574508    3.992403    0.118431
     29          1           0       -1.489717    0.767868    0.574316
     30          1           0       -1.956979    1.663491   -1.667320
     31          1           0       -0.896266    0.391780   -2.293173
     32          1           0       -3.319354   -0.255627   -2.463846
     33          1           0       -2.387319   -1.362027   -1.443420
     34          1           0       -3.055287   -1.219648    1.372567
     35          1           0       -5.188726    0.037315    2.571510
     36          1           0       -6.281803    1.574708    0.563235
 ---------------------------------------------------------------------

 SCF Done:  E(UB3LYP) =  -1313.85217217     A.U. after   33 cycles
 SCF Done:  E(UB3LYP) =  -1313.85217217     a.u. after    1 cycles

 The electronic state is 2-A.
 Alpha  occ. eigenvalues --  -88.97186 -19.11248 -19.04821 -19.02549 -19.02232
 Alpha  occ. eigenvalues --  -14.25374 -14.21659 -10.15038 -10.14392 -10.13430
 Alpha  occ. eigenvalues --  -10.13359 -10.12799 -10.11878 -10.10611 -10.10437
 Alpha  occ. eigenvalues --  -10.09685 -10.09237 -10.08122 -10.07910 -10.07337
 Alpha  occ. eigenvalues --   -8.03318  -5.99634  -5.99556  -5.99386  -1.03491
 Alpha  occ. eigenvalues --   -1.02626  -0.96512  -0.91625  -0.84211  -0.82211
 Alpha  occ. eigenvalues --   -0.75325  -0.72761  -0.71585  -0.67633  -0.64883
 Alpha  occ. eigenvalues --   -0.64580  -0.59995  -0.58201  -0.55607  -0.52728
 Alpha  occ. eigenvalues --   -0.52175  -0.49410  -0.47817  -0.45883  -0.44459
 Alpha  occ. eigenvalues --   -0.43541  -0.42178  -0.41338  -0.40414  -0.38846
 Alpha  occ. eigenvalues --   -0.38149  -0.37344  -0.36900  -0.36539  -0.35872
 Alpha  occ. eigenvalues --   -0.35147  -0.34518  -0.33713  -0.33136  -0.32868
 Alpha  occ. eigenvalues --   -0.31632  -0.31071  -0.29484  -0.29450  -0.28837
 Alpha  occ. eigenvalues --   -0.27923  -0.26390  -0.25677  -0.24199  -0.22370
 Alpha  occ. eigenvalues --   -0.22300  -0.20872  -0.20711  -0.19127  -0.18433
 Alpha  occ. eigenvalues --   -0.16810  -0.15176  -0.11232   0.03829
 Alpha virt. eigenvalues --    0.05025   0.05955   0.06564   0.06836   0.07467
 Alpha virt. eigenvalues --    0.07634   0.07978   0.08441   0.09012   0.09670
 Alpha virt. eigenvalues --    0.10154   0.10448   0.10692   0.11445   0.11876

  Beta  occ. eigenvalues --  -88.97186 -19.11245 -19.04822 -19.02535 -19.02212
  Beta  occ. eigenvalues --  -14.25373 -14.21593 -10.15037 -10.14375 -10.13422
  Beta  occ. eigenvalues --  -10.13352 -10.12791 -10.11882 -10.10610 -10.10325
  Beta  occ. eigenvalues --  -10.09680 -10.09234 -10.08099 -10.07848 -10.07209
  Beta  occ. eigenvalues --   -8.03318  -5.99634  -5.99552  -5.99389  -1.03484
  Beta  occ. eigenvalues --   -1.02592  -0.96502  -0.91584  -0.84202  -0.82115
  Beta  occ. eigenvalues --   -0.75186  -0.72751  -0.71568  -0.67455  -0.64786
  Beta  occ. eigenvalues --   -0.64538  -0.59917  -0.58138  -0.55504  -0.52708
  Beta  occ. eigenvalues --   -0.52108  -0.49312  -0.47797  -0.45832  -0.44423
  Beta  occ. eigenvalues --   -0.43498  -0.42117  -0.41265  -0.40384  -0.38819
  Beta  occ. eigenvalues --   -0.38094  -0.37288  -0.36866  -0.36475  -0.35846
  Beta  occ. eigenvalues --   -0.35105  -0.34480  -0.33684  -0.33069  -0.32851
  Beta  occ. eigenvalues --   -0.31544  -0.31061  -0.29445  -0.29229  -0.28828
  Beta  occ. eigenvalues --   -0.27852  -0.26340  -0.25639  -0.24093  -0.22316
  Beta  occ. eigenvalues --   -0.22218  -0.20809  -0.20633  -0.19097  -0.18402
  Beta  occ. eigenvalues --   -0.16264  -0.15162  -0.10915
  Beta virt. eigenvalues --    0.05771   0.06451   0.06709   0.07006   0.07262
  Beta virt. eigenvalues --    0.07588   0.07970   0.08318   0.08642   0.09194
  Beta virt. eigenvalues --    0.09639   0.10438   0.10482   0.10760   0.11382

 Mulliken charges and spin densities:
               1          2
     1  C   -0.205557  -0.059512
     2  O   -0.117279  -0.000651
     3  C   -1.049544   0.223070
     4  C    1.350596  -0.701638
     5  C    0.521511  -0.898261
     6  C   -1.474233   0.687785
     7  C    0.358494   0.000437
     8  C    0.049515   0.015063
     9  N   -0.190209  -0.113854
    10  S    0.620668  -0.462115
    11  O   -0.139517   0.004824
    12  O   -0.044467  -0.008845
    13  N   -0.230079  -0.015004
    14  C   -0.062206  -0.239173
    15  C   -0.197995  -0.404154
    16  C    0.048889  -0.551184
    17  C   -0.415629   0.938132
    18  C    0.539143  -1.091089
    19  C    0.079398   0.050309
    20  O   -0.016480   0.032188
    21  H    0.072533   0.037759
    22  H    0.153711   0.020980
    23  H    0.129277   0.014313
    24  H   -0.067267   0.313479
    25  H   -0.314711   0.470535
    26  H    0.086303   0.071289
    27  H   -0.439820   0.706544
    28  H   -0.176366   0.413412
    29  H    0.299357   0.001431
    30  H   -0.055450   0.243921
    31  H    0.184434   0.013106
    32  H    0.133189   0.066912
    33  H    0.200248   0.001791
    34  H    0.201497   0.028056
    35  H   -0.070108   0.233281
    36  H   -0.761844   0.956863
 Sum of Mulliken charges =  -1.00000   1.00000

 Dipole moment (field-independent basis, Debye):
    X=             -2.3943    Y=             -7.1748    Z=             -2.9245  Tot=              8.1094
 Quadrupole moment (field-independent basis, Debye-Ang):
   XX=           -230.3702   YY=           -184.6241   ZZ=           -149.9797
   XY=            -19.7359   XZ=             -1.7748   YZ=              0.6065

 Summary of Natural Population Analysis:

                                       Natural Population
                Natural  -----------------------------------------------
    Atom  No    Charge         Core      Valence    Rydberg      Total
 -----------------------------------------------------------------------
      C    1   -0.09689      0.99960     2.08944    0.00785     3.09689
      O    2   -0.29018      0.99986     3.28073    0.00959     4.29018
      C    3    0.13744      0.99931     1.84852    0.01473     2.86256
      C    4   -0.12274      0.99932     2.10891    0.01451     3.12274
      C    5   -0.10933      0.99947     2.10024    0.00961     3.10933
      C    6    0.08309      0.99949     1.90580    0.01162     2.91691
      C    7   -0.09175      0.99953     2.08230    0.00991     3.09175
      C    8   -0.10855      0.99952     2.09926    0.00978     3.10855
      N    9   -0.39470      0.99972     2.88447    0.01052     3.89470
      S   10    1.10331      4.99919     1.79700    0.10050     6.89669
      O   11   -0.47034      0.99990     3.46469    0.00574     4.47034
      O   12   -0.45928      0.99991     3.45407    0.00531     4.45928
      N   13   -0.44123      0.99976     2.92939    0.01208     3.94123
      C   14   -0.08852      0.99962     2.07625    0.01265     3.08852
      C   15   -0.22535      0.99958     2.21786    0.00791     3.22535
      C   16    0.14604      0.99946     1.83839    0.01611     2.85396
      C   17   -0.15897      0.99949     2.15033    0.00915     3.15897
      C   18   -0.15077      0.99957     2.14199    0.00921     3.15077
      C   19    0.05807      0.99951     1.92816    0.01426     2.94193
      O   20   -0.23841      0.99986     3.23010    0.00845     4.23841
      H   21    0.07731      0.00000     0.42127    0.00143     0.42269
      H   22    0.09389      0.00000     0.40464    0.00146     0.40611
      H   23    0.08705      0.00000     0.41189    0.00106     0.41295
      H   24    0.11382      0.00000     0.38482    0.00136     0.38618
      H   25    0.10093      0.00000     0.39803    0.00103     0.39907
      H   26    0.10223      0.00000     0.39675    0.00102     0.39777
      H   27    0.19035      0.00000     0.30067    0.00898     0.30965
      H   28    0.18669      0.00000     0.30978    0.00353     0.31331
      H   29    0.20157      0.00000     0.29629    0.00214     0.29843
      H   30    0.10018      0.00000     0.39866    0.00115     0.39982
      H   31    0.10803      0.00000     0.39090    0.00108     0.39197
      H   32    0.10949      0.00000     0.38947    0.00104     0.39051
      H   33    0.11924      0.00000     0.37964    0.00112     0.38076
      H   34    0.12031      0.00000     0.37863    0.00106     0.37969
      H   35    0.10989      0.00000     0.38940    0.00071     0.39011
      H   36    0.09806      0.00000     0.40006    0.00188     0.40194
 =======================================================================
   * Total *    0.00000     23.99166    53.67880    0.32954    78.00000

 Normal termination of Gaussian 16 at Mon Dec 14 19:07:17 2020.
