 Gaussian 16, Revision A.03,

 -----------------------------------------------------------
 # opt freq B3LYP/6-31G(d) empiricaldispersion=gd3bj scf=xqc
 -----------------------------------------------------------

 -------------------------------
 CID_129131262_JID_9808_neutraal
 -------------------------------
 Symbolic Z-matrix:
 Charge =  0 Multiplicity = 1

 SCF Done:  E(RB3LYP) =  -1159.14751283     A.U. after   16 cycles
 SCF Done:  E(RB3LYP) =  -1159.15745542     A.U. after   13 cycles
 SCF Done:  E(RB3LYP) =  -1159.15909877     A.U. after   13 cycles
 SCF Done:  E(RB3LYP) =  -1159.15927407     A.U. after   12 cycles
 SCF Done:  E(RB3LYP) =  -1159.15938599     A.U. after   12 cycles
 SCF Done:  E(RB3LYP) =  -1159.15952878     A.U. after   14 cycles
 SCF Done:  E(RB3LYP) =  -1159.15910444     A.U. after   16 cycles
 SCF Done:  E(RB3LYP) =  -1159.16015015     A.U. after   13 cycles
 SCF Done:  E(RB3LYP) =  -1159.16009001     A.U. after   15 cycles
 SCF Done:  E(RB3LYP) =  -1159.15871242     A.U. after   15 cycles
 SCF Done:  E(RB3LYP) =  -1159.16119497     A.U. after    9 cycles
 SCF Done:  E(RB3LYP) =  -1159.16119507     A.U. after    9 cycles
 SCF Done:  E(RB3LYP) =  -1159.16119511     A.U. after    7 cycles
 SCF Done:  E(RB3LYP) =  -1159.16119512     A.U. after    6 cycles
 Optimization completed.
    -- Stationary point found.
 Normal termination of Gaussian 16 at Mon Dec 14 13:45:09 2020.

 --------------------------------------------------------------------
 #N Geom=AllCheck Guess=TCheck SCRF=Check GenChk RB3LYP/6-31G(d) Freq
 --------------------------------------------------------------------

 Structure from the checkpoint file:  "JID_9808.chk"
 -------------------------------
 CID_129131262_JID_9808_neutraal
 -------------------------------
 Charge =  0 Multiplicity = 1

 SCF Done:  E(RB3LYP) =  -1159.16119512     A.U. after    1 cycles

  Exact polarizability: 251.818 -17.912 191.366  -9.251  13.680 128.651
 Approx polarizability: 337.977 -47.413 329.969  -8.950  34.921 227.447

                      1                      2                      3
                      A                      A                      A
 Frequencies --     15.9219                20.1529                30.5326
 Red. masses --      1.0706                 4.1012                 4.2421
 Frc consts  --      0.0002                 0.0010                 0.0023
 IR Inten    --      0.2119                 0.1564                 0.4346

                      4                      5                      6
                      A                      A                      A
 Frequencies --     39.3408                49.2185                76.9301
 Red. masses --      3.9671                 4.0428                 5.0968
 Frc consts  --      0.0036                 0.0058                 0.0178
 IR Inten    --      0.1380                 1.8865                 2.4895

                      7                      8                      9
                      A                      A                      A
 Frequencies --    111.4706               151.8825               179.2996
 Red. masses --      4.7187                 4.6413                 4.9311
 Frc consts  --      0.0345                 0.0631                 0.0934
 IR Inten    --      0.5818                 2.0613                 0.1516

                     10                     11                     12
                      A                      A                      A
 Frequencies --    222.4155               238.9661               257.4405
 Red. masses --      1.3071                 4.4706                 4.6391
 Frc consts  --      0.0381                 0.1504                 0.1811
 IR Inten    --     51.2166                 2.4964                 3.5790

                     13                     14                     15
                      A                      A                      A
 Frequencies --    267.4446               309.1862               336.8480
 Red. masses --      4.0412                 4.2832                 2.7504
 Frc consts  --      0.1703                 0.2412                 0.1839
 IR Inten    --      7.3659                 1.3350                 5.8086

                     16                     17                     18
                      A                      A                      A
 Frequencies --    373.1736               400.4272               413.3809
 Red. masses --      3.1988                 6.6400                 4.6236
 Frc consts  --      0.2625                 0.6273                 0.4655
 IR Inten    --      1.0226                11.5496                 2.5885

                     19                     20                     21
                      A                      A                      A
 Frequencies --    423.1171               445.8088               471.8846
 Red. masses --      3.6501                 7.8534                 7.8335
 Frc consts  --      0.3850                 0.9196                 1.0277
 IR Inten    --      0.5723                 6.5292                 2.3016

                     22                     23                     24
                      A                      A                      A
 Frequencies --    518.7884               523.8179               571.5026
 Red. masses --      4.3583                 3.2161                 5.5073
 Frc consts  --      0.6911                 0.5199                 1.0598
 IR Inten    --      5.2125                 9.7467                64.9843

                     25                     26                     27
                      A                      A                      A
 Frequencies --    596.1202               639.1005               642.6003
 Red. masses --      4.5133                 5.5451                 6.6189
 Frc consts  --      0.9450                 1.3344                 1.6103
 IR Inten    --     15.8630                 3.8046                 1.1447

                     28                     29                     30
                      A                      A                      A
 Frequencies --    652.9747               694.5582               723.1494
 Red. masses --      6.9401                 3.1553                 3.7694
 Frc consts  --      1.7435                 0.8968                 1.1614
 IR Inten    --      0.3078                22.2486                 4.1444

                     31                     32                     33
                      A                      A                      A
 Frequencies --    749.3707               767.2386               811.1232
 Red. masses --      1.5075                 5.8543                 6.0441
 Frc consts  --      0.4988                 2.0304                 2.3429
 IR Inten    --     24.4253                 3.6371                 3.7796

                     34                     35                     36
                      A                      A                      A
 Frequencies --    818.9412               827.2422               830.6840
 Red. masses --      4.5154                 4.7654                 1.4726
 Frc consts  --      1.7842                 1.9214                 0.5987
 IR Inten    --      1.2712                14.7921                18.9735

                     37                     38                     39
                      A                      A                      A
 Frequencies --    861.4579               863.6408               878.6502
 Red. masses --      1.2486                 1.2905                 1.3145
 Frc consts  --      0.5459                 0.5671                 0.5979
 IR Inten    --      3.4341               120.6666                 1.0397

                     40                     41                     42
                      A                      A                      A
 Frequencies --    916.3370               964.2831               976.4089
 Red. masses --      1.4370                 1.3054                 2.5920
 Frc consts  --      0.7109                 0.7151                 1.4559
 IR Inten    --      1.9910                 0.3796                 9.7696

                     43                     44                     45
                      A                      A                      A
 Frequencies --    991.5224              1003.7728              1016.7019
 Red. masses --      1.2989                 3.9598                 3.0274
 Frc consts  --      0.7524                 2.3507                 1.8437
 IR Inten    --      2.3888                 7.8676                24.0441

                     46                     47                     48
                      A                      A                      A
 Frequencies --   1020.1430              1040.2133              1075.9789
 Red. masses --      1.4414                 3.6831                 1.7939
 Frc consts  --      0.8838                 2.3480                 1.2236
 IR Inten    --      1.2826                 4.8697                 7.0605

                     49                     50                     51
                      A                      A                      A
 Frequencies --   1076.1036              1110.6572              1116.6681
 Red. masses --      1.6989                 1.9923                 2.6801
 Frc consts  --      1.1591                 1.4480                 1.9690
 IR Inten    --     12.8291                 3.4638                 3.9815

                     52                     53                     54
                      A                      A                      A
 Frequencies --   1148.1110              1162.8489              1193.7536
 Red. masses --      1.3269                 1.3622                 2.1093
 Frc consts  --      1.0305                 1.0853                 1.7710
 IR Inten    --      2.8894                18.4046               112.3785

                     55                     56                     57
                      A                      A                      A
 Frequencies --   1214.6708              1221.8257              1242.8993
 Red. masses --      3.0611                 1.1408                 3.1082
 Frc consts  --      2.6610                 1.0034                 2.8290
 IR Inten    --     15.3168                 6.4406                 2.5622

                     58                     59                     60
                      A                      A                      A
 Frequencies --   1288.5145              1293.8843              1328.1218
 Red. masses --      6.5343                 1.9047                 1.4955
 Frc consts  --      6.3919                 1.8787                 1.5542
 IR Inten    --     13.2868                21.8540                 9.8299

                     61                     62                     63
                      A                      A                      A
 Frequencies --   1337.0961              1351.3963              1378.2959
 Red. masses --      2.3240                 2.1556                 2.6539
 Frc consts  --      2.4480                 2.3194                 2.9705
 IR Inten    --      0.0693                 2.6736                95.3959

                     64                     65                     66
                      A                      A                      A
 Frequencies --   1387.0956              1404.8380              1442.7564
 Red. masses --      2.2437                 8.4181                 1.2616
 Frc consts  --      2.5435                 9.7885                 1.5473
 IR Inten    --      7.7696                84.2943                 0.1025

                     67                     68                     69
                      A                      A                      A
 Frequencies --   1444.2474              1448.1066              1515.4276
 Red. masses --      1.5470                 2.4809                 1.0486
 Frc consts  --      1.9011                 3.0652                 1.4189
 IR Inten    --     26.6382                 3.4397                 6.5512

                     70                     71                     72
                      A                      A                      A
 Frequencies --   1518.1493              1521.6725              1531.9440
 Red. masses --      4.3877                 1.1044                 1.1009
 Frc consts  --      5.9582                 1.5067                 1.5222
 IR Inten    --      5.8576                 8.7964                 1.6699

                     73                     74                     75
                      A                      A                      A
 Frequencies --   1543.7131              1557.3380              1603.8200
 Red. masses --      2.2701                 4.7900                 7.2490
 Frc consts  --      3.1874                 6.8446                10.9859
 IR Inten    --     16.4286                15.1816                 6.3352

                     76                     77                     78
                      A                      A                      A
 Frequencies --   1622.9135              1625.5117              1658.7681
 Red. masses --      5.6229                 8.2250                 5.5795
 Frc consts  --      8.7258                12.8046                 9.0452
 IR Inten    --      0.2659                17.6743                11.4905

                     79                     80                     81
                      A                      A                      A
 Frequencies --   1692.3350              2956.2187              3046.6540
 Red. masses --      1.0903                 1.0733                 1.0385
 Frc consts  --      1.8397                 5.5263                 5.6792
 IR Inten    --     30.6459                78.3202                28.4866

                     82                     83                     84
                      A                      A                      A
 Frequencies --   3101.3755              3107.2669              3131.0197
 Red. masses --      1.0991                 1.0889                 1.1017
 Frc consts  --      6.2286                 6.1941                 6.3634
 IR Inten    --     16.6737                17.0575                15.8118

                     85                     86                     87
                      A                      A                      A
 Frequencies --   3176.2683              3182.7255              3185.5472
 Red. masses --      1.0907                 1.0894                 1.0884
 Frc consts  --      6.4833                 6.5018                 6.5073
 IR Inten    --     24.6057                14.5650                15.3997

                     88                     89                     90
                      A                      A                      A
 Frequencies --   3209.8287              3221.0768              3271.5701
 Red. masses --      1.0936                 1.0938                 1.0907
 Frc consts  --      6.6388                 6.6865                 6.8781
 IR Inten    --      9.7470                 3.8267                 2.4211

                     91                     92                     93
                      A                      A                      A
 Frequencies --   3289.9979              3455.2121              3544.6448
 Red. masses --      1.1036                 1.0495                 1.0927
 Frc consts  --      7.0379                 7.3819                 8.0887
 IR Inten    --      1.5289                 4.3098                 3.0116

 - Thermochemistry -
 -------------------
 Temperature   298.150 Kelvin.  Pressure   1.00000 Atm.
 Atom     1 has atomic number  6 and mass  12.00000

 Molecular mass:   270.09392 amu.
 Principal axes and moments of inertia in atomic units:
                           1         2         3
     Eigenvalues --  2706.520439944.29004**********
           X            0.99996   0.00072  -0.00881
           Y           -0.00057   0.99985   0.01756
           Z            0.00882  -0.01755   0.99981
 This molecule is an asymmetric top.
 Rotational symmetry number  1.
 Warning -- assumption of classical behavior for rotation
           may cause significant error
 Rotational temperatures (Kelvin)      0.03200     0.00871     0.00771
 Rotational constants (GHZ):           0.66681     0.18149     0.16056
 Zero-point vibrational energy     685903.2 (Joules/Mol)
                                  163.93479 (Kcal/Mol)
 Warning -- explicit consideration of  25 degrees of freedom as
           vibrations may cause significant error
 Vibrational temperatures:     22.91    29.00    43.93    56.60    70.81
          (Kelvin)            110.69   160.38   218.53   257.97   320.01
                              343.82   370.40   384.79   444.85   484.65
                              536.91   576.13   594.76   608.77   641.42
                              678.94   746.42   753.66   822.26   857.68
                              919.52   924.56   939.48   999.31  1040.45
                             1078.18  1103.89  1167.03  1178.27  1190.22
                             1195.17  1239.45  1242.59  1264.18  1318.40
                             1387.39  1404.83  1426.58  1444.21  1462.81
                             1467.76  1496.63  1548.09  1548.27  1597.99
                             1606.64  1651.88  1673.08  1717.55  1747.64
                             1757.93  1788.25  1853.88  1861.61  1910.87
                             1923.78  1944.36  1983.06  1995.72  2021.25
                             2075.80  2077.95  2083.50  2180.36  2184.28
                             2189.35  2204.13  2221.06  2240.66  2307.54
                             2335.01  2338.75  2386.60  2434.89  4253.34
                             4383.46  4462.19  4470.66  4504.84  4569.94
                             4579.23  4583.29  4618.23  4634.41  4707.06
                             4733.57  4971.28  5099.95

 Zero-point correction=                           0.261247 (Hartree/Particle)
 Thermal correction to Energy=                    0.278364
 Thermal correction to Enthalpy=                  0.279308
 Thermal correction to Gibbs Free Energy=         0.212398
 Sum of electronic and zero-point Energies=          -1158.899948
 Sum of electronic and thermal Energies=             -1158.882831
 Sum of electronic and thermal Enthalpies=           -1158.881887
 Sum of electronic and thermal Free Energies=        -1158.948797

                     E (Thermal)             CV                S
                      KCal/Mol        Cal/Mol-Kelvin    Cal/Mol-Kelvin
 Total                  174.676             64.362            140.825
 Electronic               0.000              0.000              0.000
 Translational            0.889              2.981             42.680
 Rotational               0.889              2.981             34.069
 Vibrational            172.899             58.400             64.076
 Vibration     1          0.593              1.986              7.087
 Vibration     2          0.593              1.986              6.619
 Vibration     3          0.594              1.984              5.795
 Vibration     4          0.594              1.981              5.292
 Vibration     5          0.595              1.978              4.849
 Vibration     6          0.599              1.965              3.968
 Vibration     7          0.607              1.940              3.243
 Vibration     8          0.619              1.901              2.649
 Vibration     9          0.629              1.868              2.336
 Vibration    10          0.648              1.807              1.939
 Vibration    11          0.657              1.781              1.811
 Vibration    12          0.667              1.750              1.679
 Vibration    13          0.673              1.733              1.613
 Vibration    14          0.699              1.656              1.367
 Vibration    15          0.718              1.602              1.227
 Vibration    16          0.745              1.527              1.067
 Vibration    17          0.766              1.469              0.961
 Vibration    18          0.777              1.441              0.915
 Vibration    19          0.785              1.420              0.881
 Vibration    20          0.805              1.370              0.809
 Vibration    21          0.829              1.312              0.732
 Vibration    22          0.874              1.208              0.613
 Vibration    23          0.879              1.197              0.601
 Vibration    24          0.928              1.093              0.501
 Vibration    25          0.954              1.040              0.456

                           ! Non-Optimized Parameters !
 Normal termination of Gaussian 16 at Mon Dec 14 14:00:46 2020.

 ----------------------------------------------------------------------
 # B3LYP/6-311++G(d,p) empiricaldispersion=gd3bj scf=xqc pop=npa geom=c
 heck
 ----------------------------------------------------------------------

 ---------------------------------------
 CID_129131262_JID_9808_Energie_neutraal
 ---------------------------------------
 Structure from the checkpoint file:  "JID_9808.chk"
 Charge =  0 Multiplicity = 1

 SCF Done:  E(RB3LYP) =  -1159.38945801     A.U. after   17 cycles
 Normal termination of Gaussian 16 at Mon Dec 14 14:08:37 2020.

 ----------------------------------------------------------------------
 # B3LYP/6-311++G(d,p) empiricaldispersion=gd3bj scf=xqc pop=npa geom=c
 heck
 ----------------------------------------------------------------------

 -------------------------------------
 CID_129131262_JID_9808_Energie_kation
 -------------------------------------
 Structure from the checkpoint file:  "JID_9808.chk"
 Charge =  1 Multiplicity = 2

 SCF Done:  E(UB3LYP) =  -1159.09315606     A.U. after   33 cycles
 SCF Done:  E(UB3LYP) =  -1159.09315606     a.u. after    1 cycles
 Normal termination of Gaussian 16 at Mon Dec 14 14:29:48 2020.
 Gaussian 16:  ES64L-G16RevA.03 25-Dec-2016

 ----------------------------------------------------------------------
 # B3LYP/6-311++G(d,p) empiricaldispersion=gd3bj scf=xqc pop=npa geom=c
 heck
 ----------------------------------------------------------------------

 ------------------------------------
 CID_129131262_JID_9808_Energie_anion
 ------------------------------------
 Structure from the checkpoint file:  "JID_9808.chk"
 Charge = -1 Multiplicity = 2

                         Standard orientation:
 ---------------------------------------------------------------------
 Center     Atomic      Atomic             Coordinates (Angstroms)
 Number     Number       Type             X           Y           Z
 ---------------------------------------------------------------------
      1          6           0       -5.124785   -2.313735    0.948797
      2          6           0       -4.127081   -1.317148    0.413186
      3          6           0       -2.957542   -1.755068   -0.227103
      4          6           0       -2.039929   -0.850540   -0.749854
      5          6           0       -2.270657    0.525467   -0.614140
      6          6           0       -3.426212    0.978858    0.026932
      7          6           0       -4.347554    0.059303    0.528192
      8         16           0       -1.110427    1.703516   -1.299748
      9          7           0        0.207663    1.571933   -0.195214
     10          6           0        0.436781    2.405750    0.901512
     11          6           0        1.570880    2.027431    1.568221
     12          6           0        2.093677    0.888162    0.870155
     13          7           0        3.167875    0.121528    1.093210
     14          6           0        3.339045   -0.890267    0.230214
     15          6           0        2.438013   -1.136203   -0.827134
     16          7           0        1.356445   -0.383393   -1.073086
     17          6           0        1.216693    0.623169   -0.225214
     18          6           0        4.562158   -1.759194    0.398283
     19          7           0        5.699074   -1.179166   -0.333889
     20          1           0       -5.645700   -2.828217    0.131333
     21          1           0       -4.632488   -3.084709    1.552311
     22          1           0       -5.882062   -1.827838    1.571174
     23          1           0       -2.770445   -2.821958   -0.323417
     24          1           0       -1.137145   -1.191441   -1.246068
     25          1           0       -3.600413    2.045036    0.134378
     26          1           0       -5.245723    0.417172    1.024990
     27          1           0       -0.252543    3.215029    1.092711
     28          1           0        1.991549    2.498640    2.444692
     29          1           0        2.597312   -1.983576   -1.490771
     30          1           0        4.822681   -1.778816    1.460503
     31          1           0        4.311321   -2.791989    0.095566
     32          1           0        6.518196   -1.772553   -0.208228
     33          1           0        5.493971   -1.183260   -1.332631
 ---------------------------------------------------------------------

 SCF Done:  E(UB3LYP) =  -1159.39719112     A.U. after   33 cycles
 SCF Done:  E(UB3LYP) =  -1159.39719112     a.u. after    1 cycles

 The electronic state is 2-A.
 Alpha  occ. eigenvalues --  -88.75552 -14.23919 -14.18636 -14.16568 -14.15472
 Alpha  occ. eigenvalues --  -10.09268 -10.08246 -10.08203 -10.07845 -10.07708
 Alpha  occ. eigenvalues --  -10.07171 -10.07164 -10.07108 -10.06797 -10.06505
 Alpha  occ. eigenvalues --  -10.06464 -10.06030 -10.05755 -10.03234  -7.83867
 Alpha  occ. eigenvalues --   -5.80436  -5.79877  -5.79128  -0.86983  -0.81392
 Alpha  occ. eigenvalues --   -0.77437  -0.75901  -0.75708  -0.69654  -0.66174
 Alpha  occ. eigenvalues --   -0.64368  -0.62001  -0.60592  -0.57005  -0.54514
 Alpha  occ. eigenvalues --   -0.51431  -0.50642  -0.47957  -0.46351  -0.44056
 Alpha  occ. eigenvalues --   -0.41243  -0.39006  -0.38057  -0.36716  -0.36085
 Alpha  occ. eigenvalues --   -0.34846  -0.34029  -0.33428  -0.32371  -0.32086
 Alpha  occ. eigenvalues --   -0.31927  -0.31745  -0.30054  -0.29650  -0.27738
 Alpha  occ. eigenvalues --   -0.27541  -0.26839  -0.25643  -0.24669  -0.24152
 Alpha  occ. eigenvalues --   -0.24061  -0.21058  -0.19726  -0.16720  -0.15459
 Alpha  occ. eigenvalues --   -0.15407  -0.13719  -0.12470  -0.10755  -0.10261
 Alpha  occ. eigenvalues --   -0.09895   0.04125
 Alpha virt. eigenvalues --    0.06409   0.06502   0.07299   0.08230   0.08534
 Alpha virt. eigenvalues --    0.09214   0.09766   0.10037   0.10284   0.10646
 Alpha virt. eigenvalues --    0.11187   0.11737   0.12283   0.12628   0.13011

  Beta  occ. eigenvalues --  -88.75535 -14.23843 -14.18613 -14.16203 -14.14984
  Beta  occ. eigenvalues --  -10.09283 -10.08217 -10.08139 -10.07844 -10.07537
  Beta  occ. eigenvalues --  -10.07158 -10.07089 -10.06951 -10.06811 -10.06541
  Beta  occ. eigenvalues --  -10.06427 -10.05938 -10.05687 -10.03245  -7.83849
  Beta  occ. eigenvalues --   -5.80386  -5.79868  -5.79116  -0.86726  -0.80939
  Beta  occ. eigenvalues --   -0.77275  -0.75707  -0.75098  -0.69401  -0.65975
  Beta  occ. eigenvalues --   -0.64265  -0.61766  -0.60431  -0.56858  -0.54327
  Beta  occ. eigenvalues --   -0.50975  -0.50597  -0.47731  -0.46257  -0.43857
  Beta  occ. eigenvalues --   -0.41038  -0.38867  -0.37961  -0.36642  -0.35885
  Beta  occ. eigenvalues --   -0.34723  -0.33911  -0.33238  -0.32211  -0.31927
  Beta  occ. eigenvalues --   -0.31672  -0.31579  -0.29992  -0.29548  -0.27529
  Beta  occ. eigenvalues --   -0.27272  -0.26731  -0.25324  -0.24241  -0.24039
  Beta  occ. eigenvalues --   -0.23863  -0.20469  -0.18076  -0.16191  -0.15132
  Beta  occ. eigenvalues --   -0.14883  -0.13669  -0.12198  -0.10107  -0.09778
  Beta  occ. eigenvalues --   -0.08908
  Beta virt. eigenvalues --    0.06417   0.07075   0.07615   0.08185   0.08622
  Beta virt. eigenvalues --    0.09116   0.09621   0.09751   0.10147   0.10275
  Beta virt. eigenvalues --    0.10652   0.11162   0.11766   0.12318   0.12730

 Mulliken charges and spin densities:
               1          2
     1  C   -0.582783  -0.024778
     2  C    0.722238   0.073272
     3  C   -0.113766   0.016923
     4  C   -0.565054   0.059802
     5  C    0.233143   0.034899
     6  C   -0.229383   0.031977
     7  C   -0.801756   0.011468
     8  S    0.034220   0.067573
     9  N    0.234184  -0.007801
    10  C   -0.060514   0.194608
    11  C   -0.112162  -0.014168
    12  C   -0.314756   0.077820
    13  N   -0.056926   0.231535
    14  C    0.495780  -0.218196
    15  C   -0.369481   0.140519
    16  N   -0.125635   0.167587
    17  C   -0.363428  -0.105351
    18  C   -0.636503   0.072170
    19  N   -0.277992  -0.045737
    20  H    0.130813   0.017874
    21  H    0.126569   0.012556
    22  H    0.132010   0.002323
    23  H    0.154054   0.001518
    24  H    0.224653  -0.004391
    25  H    0.161221   0.007247
    26  H    0.096650   0.004028
    27  H    0.142510  -0.011253
    28  H    0.130617   0.001020
    29  H    0.125673   0.014625
    30  H    0.107248   0.044663
    31  H    0.101178  -0.003387
    32  H    0.093278   0.109547
    33  H    0.164101   0.039507
 Sum of Mulliken charges =  -1.00000   1.00000

 Dipole moment (field-independent basis, Debye):
    X=             -5.7127    Y=             -2.0286    Z=              0.0512  Tot=              6.0625
 Quadrupole moment (field-independent basis, Debye-Ang):
   XX=           -176.9672   YY=           -129.6113   ZZ=           -135.4116
   XY=             -5.8218   XZ=             -8.7804   YZ=              1.8326

 Summary of Natural Population Analysis:

                                       Natural Population
                Natural  -----------------------------------------------
    Atom  No    Charge         Core      Valence    Rydberg      Total
 -----------------------------------------------------------------------
      C    1   -0.29267      0.99965     2.28857    0.00445     3.29267
      C    2    0.01019      0.99952     1.98258    0.00771     2.98981
      C    3   -0.10746      0.99952     2.09975    0.00820     3.10746
      C    4   -0.08317      0.99950     2.07370    0.00998     3.08317
      C    5   -0.08487      0.99939     2.07406    0.01142     3.08487
      C    6   -0.08658      0.99950     2.07660    0.01048     3.08658
      C    7   -0.11362      0.99952     2.10574    0.00836     3.11362
      S    8    0.21292      4.99949     2.76535    0.02224     7.78708
      N    9   -0.28094      0.99958     2.76869    0.01267     3.78094
      C   10    0.05054      0.99957     1.93834    0.01155     2.94946
      C   11   -0.15761      0.99954     2.14892    0.00915     3.15761
      C   12    0.06794      0.99948     1.91910    0.01348     2.93206
      N   13   -0.15523      0.99965     2.64191    0.01367     3.65523
      C   14    0.05710      0.99955     1.92946    0.01390     2.94290
      C   15    0.00822      0.99955     1.97780    0.01444     2.99178
      N   16   -0.18867      0.99966     2.67674    0.01226     3.68867
      C   17    0.17410      0.99945     1.80980    0.01664     2.82590
      C   18   -0.09976      0.99960     2.08787    0.01229     3.09976
      N   19   -0.41473      0.99977     2.90447    0.01049     3.91473
      H   20    0.10114      0.00000     0.39790    0.00095     0.39886
      H   21    0.10153      0.00000     0.39757    0.00090     0.39847
      H   22    0.09734      0.00000     0.40181    0.00084     0.40266
      H   23    0.09471      0.00000     0.40395    0.00134     0.40529
      H   24    0.11757      0.00000     0.38054    0.00189     0.38243
      H   25    0.09951      0.00000     0.39875    0.00175     0.40049
      H   26    0.09278      0.00000     0.40571    0.00152     0.40722
      H   27    0.09348      0.00000     0.40556    0.00096     0.40652
      H   28    0.10073      0.00000     0.39762    0.00166     0.39927
      H   29    0.08125      0.00000     0.41721    0.00154     0.41875
      H   30    0.09432      0.00000     0.40268    0.00300     0.40568
      H   31    0.07444      0.00000     0.42354    0.00202     0.42556
      H   32    0.16530      0.00000     0.33260    0.00211     0.33470
      H   33    0.17020      0.00000     0.32778    0.00201     0.32980
 =======================================================================
   * Total *    0.00000     22.99149    47.76265    0.24586    71.00000

 Normal termination of Gaussian 16 at Mon Dec 14 14:51:04 2020.
