 Gaussian 16, Revision A.03,

 -----------------------------------------------------------
 # opt freq B3LYP/6-31G(d) empiricaldispersion=gd3bj scf=xqc
 -----------------------------------------------------------

 -------------------------------
 CID_101299585_JID_8860_neutraal
 -------------------------------
 Symbolic Z-matrix:
 Charge =  0 Multiplicity = 1

 SCF Done:  E(RB3LYP) =  -806.971667143     A.U. after   14 cycles
 SCF Done:  E(RB3LYP) =  -806.974839558     A.U. after   12 cycles
 SCF Done:  E(RB3LYP) =  -806.975207253     A.U. after   12 cycles
 SCF Done:  E(RB3LYP) =  -806.975521715     A.U. after   12 cycles
 SCF Done:  E(RB3LYP) =  -806.975575538     A.U. after   11 cycles
 SCF Done:  E(RB3LYP) =  -806.975664537     A.U. after   10 cycles
 SCF Done:  E(RB3LYP) =  -806.975706974     A.U. after   11 cycles
 SCF Done:  E(RB3LYP) =  -806.975732375     A.U. after   12 cycles
 SCF Done:  E(RB3LYP) =  -806.975782039     A.U. after   11 cycles
 SCF Done:  E(RB3LYP) =  -806.975784968     A.U. after    9 cycles
 SCF Done:  E(RB3LYP) =  -806.975780781     A.U. after   10 cycles
 SCF Done:  E(RB3LYP) =  -806.975797946     A.U. after   10 cycles
 SCF Done:  E(RB3LYP) =  -806.975798441     A.U. after    9 cycles
 SCF Done:  E(RB3LYP) =  -806.975798594     A.U. after    8 cycles
 SCF Done:  E(RB3LYP) =  -806.975798631     A.U. after    7 cycles
 Optimization completed.
    -- Stationary point found.
 Normal termination of Gaussian 16 at Fri Dec 11 22:19:24 2020.

 --------------------------------------------------------------------
 #N Geom=AllCheck Guess=TCheck SCRF=Check GenChk RB3LYP/6-31G(d) Freq
 --------------------------------------------------------------------

 Structure from the checkpoint file:  "JID_8860.chk"
 -------------------------------
 CID_101299585_JID_8860_neutraal
 -------------------------------
 Charge =  0 Multiplicity = 1

 SCF Done:  E(RB3LYP) =  -806.975798631     A.U. after    1 cycles

  Exact polarizability: 238.959   1.853 161.422   4.484  10.327 108.246
 Approx polarizability: 341.318  -4.010 256.797   4.907  26.647 182.452

                      1                      2                      3
                      A                      A                      A
 Frequencies --     36.7797                54.0671                73.6296
 Red. masses --      4.9391                 5.1092                 3.6733
 Frc consts  --      0.0039                 0.0088                 0.0117
 IR Inten    --      0.1479                 0.3844                 0.8969

                      4                      5                      6
                      A                      A                      A
 Frequencies --     97.6493               104.2659               126.6144
 Red. masses --      1.2898                 1.3013                 2.2165
 Frc consts  --      0.0072                 0.0083                 0.0209
 IR Inten    --      0.3468                 0.1022                 0.3296

                      7                      8                      9
                      A                      A                      A
 Frequencies --    134.4681               155.3791               184.4652
 Red. masses --      1.7344                 1.3524                 3.3708
 Frc consts  --      0.0185                 0.0192                 0.0676
 IR Inten    --      1.3255                 0.5166                 0.2259

                     10                     11                     12
                      A                      A                      A
 Frequencies --    229.2386               235.1881               248.6507
 Red. masses --      4.4910                 4.4497                 4.6368
 Frc consts  --      0.1391                 0.1450                 0.1689
 IR Inten    --      0.2522                 0.5920                 0.4486

                     13                     14                     15
                      A                      A                      A
 Frequencies --    278.5499               302.8772               315.6567
 Red. masses --      4.0355                 1.4112                 2.9718
 Frc consts  --      0.1845                 0.0763                 0.1745
 IR Inten    --      3.9435                60.5104                 1.6765

                     16                     17                     18
                      A                      A                      A
 Frequencies --    351.9976               361.3327               364.7168
 Red. masses --      2.5834                 3.4086                 2.2987
 Frc consts  --      0.1886                 0.2622                 0.1802
 IR Inten    --      4.6912                12.4636                40.4312

                     19                     20                     21
                      A                      A                      A
 Frequencies --    368.9842               383.6384               395.1772
 Red. masses --      1.1270                 4.5462                 5.1290
 Frc consts  --      0.0904                 0.3942                 0.4719
 IR Inten    --    105.2283                 4.4477                 4.4500

                     22                     23                     24
                      A                      A                      A
 Frequencies --    448.9972               460.8374               474.8619
 Red. masses --      1.3794                 5.5132                 2.9076
 Frc consts  --      0.1638                 0.6898                 0.3863
 IR Inten    --     49.4822                 1.9849                 3.0762

                     25                     26                     27
                      A                      A                      A
 Frequencies --    489.3213               509.0717               541.0547
 Red. masses --      3.0259                 5.2350                 7.1211
 Frc consts  --      0.4269                 0.7993                 1.2282
 IR Inten    --     19.1982                 7.9605                 1.7179

                     28                     29                     30
                      A                      A                      A
 Frequencies --    592.2728               598.5182               612.4791
 Red. masses --      4.2424                 6.4038                 4.6834
 Frc consts  --      0.8768                 1.3516                 1.0351
 IR Inten    --      1.7322                 6.5159                 0.9381

                     31                     32                     33
                      A                      A                      A
 Frequencies --    658.7989               676.1536               681.6878
 Red. masses --      5.3535                 3.5789                 7.2306
 Frc consts  --      1.3690                 0.9640                 1.9797
 IR Inten    --      5.6908                 5.4762                 1.1462

                     34                     35                     36
                      A                      A                      A
 Frequencies --    722.5392               738.3741               783.4535
 Red. masses --      2.5578                 5.2402                 4.8168
 Frc consts  --      0.7868                 1.6833                 1.7419
 IR Inten    --      9.0641                 2.0138                16.7720

                     37                     38                     39
                      A                      A                      A
 Frequencies --    789.6192               876.3504               888.5160
 Red. masses --      1.6515                 1.5292                 1.4777
 Frc consts  --      0.6067                 0.6919                 0.6873
 IR Inten    --     39.7006                 2.1226                 8.5178

                     40                     41                     42
                      A                      A                      A
 Frequencies --    904.8271               913.0918               967.2764
 Red. masses --      2.4646                 2.9804                 1.2645
 Frc consts  --      1.1888                 1.4641                 0.6971
 IR Inten    --     13.4315                12.3163                 0.2955

                     43                     44                     45
                      A                      A                      A
 Frequencies --   1001.1991              1017.6093              1044.3265
 Red. masses --      1.9440                 6.0857                 1.5922
 Frc consts  --      1.1481                 3.7130                 1.0231
 IR Inten    --     11.0856                 5.5393                17.5529

                     46                     47                     48
                      A                      A                      A
 Frequencies --   1054.6202              1068.8184              1069.4155
 Red. masses --      1.4063                 1.4291                 1.8887
 Frc consts  --      0.9215                 0.9619                 1.2726
 IR Inten    --      1.0441                 0.1314                 1.9536

                     49                     50                     51
                      A                      A                      A
 Frequencies --   1082.7181              1108.6884              1120.9387
 Red. masses --      1.5222                 2.9968                 1.8598
 Frc consts  --      1.0514                 2.1704                 1.3768
 IR Inten    --      0.5363                23.1706                 2.7823

                     52                     53                     54
                      A                      A                      A
 Frequencies --   1136.2130              1184.6556              1199.3956
 Red. masses --      2.1994                 2.7356                 1.1268
 Frc consts  --      1.6729                 2.2620                 0.9551
 IR Inten    --    102.2820               130.5421                 3.0884

                     55                     56                     57
                      A                      A                      A
 Frequencies --   1217.2609              1272.4623              1286.8743
 Red. masses --      1.4604                 1.8258                 2.4124
 Frc consts  --      1.2750                 1.7417                 2.3538
 IR Inten    --    106.3607               178.1414                30.1064

                     58                     59                     60
                      A                      A                      A
 Frequencies --   1303.4044              1340.7577              1346.2989
 Red. masses --      1.6646                 1.6825                 4.5905
 Frc consts  --      1.6661                 1.7820                 4.9022
 IR Inten    --     42.5588                73.8369                60.0962

                     61                     62                     63
                      A                      A                      A
 Frequencies --   1362.0202              1373.6182              1401.4491
 Red. masses --      3.7454                 4.4240                 3.2107
 Frc consts  --      4.0937                 4.9181                 3.7154
 IR Inten    --      6.5132                88.2556                 6.4965

                     64                     65                     66
                      A                      A                      A
 Frequencies --   1436.2215              1442.8056              1449.7554
 Red. masses --      1.2509                 1.3890                 1.2459
 Frc consts  --      1.5202                 1.7036                 1.5428
 IR Inten    --      1.8878                 1.2395                 4.7069

                     67                     68                     69
                      A                      A                      A
 Frequencies --   1480.5348              1489.9012              1514.1863
 Red. masses --      3.2232                 2.5991                 1.1404
 Frc consts  --      4.1628                 3.3994                 1.5405
 IR Inten    --     82.3458                16.6169                 7.5588

                     70                     71                     72
                      A                      A                      A
 Frequencies --   1516.4340              1525.1005              1530.8831
 Red. masses --      1.6545                 1.2264                 1.3925
 Frc consts  --      2.2416                 1.6806                 1.9228
 IR Inten    --     16.7802                24.5220                58.2090

                     73                     74                     75
                      A                      A                      A
 Frequencies --   1534.0280              1534.2693              1535.7320
 Red. masses --      1.1609                 1.0931                 1.2119
 Frc consts  --      1.6096                 1.5161                 1.6840
 IR Inten    --     14.0623                10.8955                31.3350

                     76                     77                     78
                      A                      A                      A
 Frequencies --   1543.4363              1640.7049              1651.8222
 Red. masses --      2.1973                 5.8050                 6.6577
 Frc consts  --      3.0841                 9.2068                10.7029
 IR Inten    --     14.8298                82.3895               129.1850

                     79                     80                     81
                      A                      A                      A
 Frequencies --   1670.7072              1678.2234              3014.4924
 Red. masses --      5.8136                 6.0908                 1.0442
 Frc consts  --      9.5608                10.1070                 5.5907
 IR Inten    --     80.9394                38.2674                51.0948

                     82                     83                     84
                      A                      A                      A
 Frequencies --   3036.1402              3041.4868              3054.8231
 Red. masses --      1.0451                 1.0456                 1.1012
 Frc consts  --      5.6761                 5.6988                 6.0546
 IR Inten    --     36.6048                32.7786                27.0452

                     85                     86                     87
                      A                      A                      A
 Frequencies --   3081.7716              3092.1786              3161.1953
 Red. masses --      1.0975                 1.0954                 1.0963
 Frc consts  --      6.1411                 6.1708                 6.4546
 IR Inten    --     30.6729                14.2134                15.3308

                     88                     89                     90
                      A                      A                      A
 Frequencies --   3166.1329              3170.6316              3171.8105
 Red. masses --      1.0950                 1.0917                 1.0885
 Frc consts  --      6.4674                 6.4662                 6.4518
 IR Inten    --      6.6746                 1.9197                15.7487

                     91                     92                     93
                      A                      A                      A
 Frequencies --   3196.4130              3210.1947              3215.8380
 Red. masses --      1.0902                 1.0907                 1.0948
 Frc consts  --      6.5626                 6.6224                 6.6707
 IR Inten    --     18.0927                 2.3504                 9.2567

                     94                     95                     96
                      A                      A                      A
 Frequencies --   3686.8289              3750.5023              3769.0363
 Red. masses --      1.0650                 1.0659                 1.0652
 Frc consts  --      8.5289                 8.8340                 8.9153
 IR Inten    --    151.4307                48.6118                54.9081

 - Thermochemistry -
 -------------------
 Temperature   298.150 Kelvin.  Pressure   1.00000 Atm.
 Atom     1 has atomic number  6 and mass  12.00000

 Molecular mass:   244.10994 amu.
 Principal axes and moments of inertia in atomic units:
                           1         2         3
     Eigenvalues --  2292.219446953.027358365.08774
           X            0.99999   0.00284   0.00420
           Y           -0.00282   0.99998  -0.00568
           Z           -0.00421   0.00567   0.99998
 This molecule is an asymmetric top.
 Rotational symmetry number  1.
 Warning -- assumption of classical behavior for rotation
           may cause significant error
 Rotational temperatures (Kelvin)      0.03779     0.01246     0.01035
 Rotational constants (GHZ):           0.78733     0.25956     0.21575
 Zero-point vibrational energy     730430.2 (Joules/Mol)
                                  174.57701 (Kcal/Mol)
 Warning -- explicit consideration of  30 degrees of freedom as
           vibrations may cause significant error
 Vibrational temperatures:     52.92    77.79   105.94   140.50   150.02
          (Kelvin)            182.17   193.47   223.56   265.40   329.82
                              338.38   357.75   400.77   435.77   454.16
                              506.45   519.88   524.75   530.89   551.97
                              568.57   646.01   663.04   683.22   704.02
                              732.44   778.46   852.15   861.13   881.22
                              947.86   972.83   980.80  1039.57  1062.36
                             1127.21  1136.09  1260.87  1278.38  1301.84
                             1313.74  1391.69  1440.50  1464.11  1502.55
                             1517.36  1537.79  1538.65  1557.79  1595.16
                             1612.78  1634.76  1704.46  1725.66  1751.37
                             1830.79  1851.53  1875.31  1929.05  1937.02
                             1959.64  1976.33  2016.37  2066.40  2075.88
                             2085.87  2130.16  2143.64  2178.58  2181.81
                             2194.28  2202.60  2207.12  2207.47  2209.58
                             2220.66  2360.61  2376.60  2403.78  2414.59
                             4337.18  4368.33  4376.02  4395.21  4433.98
                             4448.96  4548.25  4555.36  4561.83  4563.53
                             4598.93  4618.75  4626.87  5304.52  5396.14
                             5422.80

 Zero-point correction=                           0.278206 (Hartree/Particle)
 Thermal correction to Energy=                    0.295740
 Thermal correction to Enthalpy=                  0.296685
 Thermal correction to Gibbs Free Energy=         0.233483
 Sum of electronic and zero-point Energies=           -806.697592
 Sum of electronic and thermal Energies=              -806.680058
 Sum of electronic and thermal Enthalpies=            -806.679114
 Sum of electronic and thermal Free Energies=         -806.742316

                     E (Thermal)             CV                S
                      KCal/Mol        Cal/Mol-Kelvin    Cal/Mol-Kelvin
 Total                  185.580             67.588            133.020
 Electronic               0.000              0.000              0.000
 Translational            0.889              2.981             42.378
 Rotational               0.889              2.981             33.255
 Vibrational            183.803             61.626             57.387
 Vibration     1          0.594              1.982              5.425
 Vibration     2          0.596              1.976              4.663
 Vibration     3          0.599              1.966              4.054
 Vibration     4          0.603              1.951              3.501
 Vibration     5          0.605              1.946              3.373
 Vibration     6          0.611              1.927              2.997
 Vibration     7          0.613              1.919              2.881
 Vibration     8          0.620              1.897              2.605
 Vibration     9          0.631              1.861              2.283
 Vibration    10          0.652              1.796              1.885
 Vibration    11          0.655              1.787              1.839
 Vibration    12          0.662              1.765              1.740
 Vibration    13          0.679              1.713              1.543
 Vibration    14          0.694              1.668              1.401
 Vibration    15          0.703              1.644              1.333
 Vibration    16          0.729              1.571              1.157
 Vibration    17          0.736              1.552              1.116
 Vibration    18          0.738              1.545              1.102
 Vibration    19          0.741              1.536              1.084
 Vibration    20          0.753              1.505              1.025
 Vibration    21          0.762              1.480              0.981
 Vibration    22          0.808              1.363              0.799
 Vibration    23          0.819              1.337              0.764
 Vibration    24          0.832              1.306              0.724
 Vibration    25          0.845              1.274              0.685
 Vibration    26          0.864              1.230              0.636
 Vibration    27          0.896              1.159              0.563
 Vibration    28          0.950              1.048              0.463
 Vibration    29          0.957              1.035              0.452
 Vibration    30          0.972              1.005              0.429

                           ! Non-Optimized Parameters !
 Normal termination of Gaussian 16 at Fri Dec 11 22:35:29 2020.

 ----------------------------------------------------------------------
 # B3LYP/6-311++G(d,p) empiricaldispersion=gd3bj scf=xqc pop=npa geom=c
 heck
 ----------------------------------------------------------------------

 ---------------------------------------
 CID_101299585_JID_8860_Energie_neutraal
 ---------------------------------------
 Structure from the checkpoint file:  "JID_8860.chk"
 Charge =  0 Multiplicity = 1

 SCF Done:  E(RB3LYP) =  -807.213760421     A.U. after   15 cycles
 Normal termination of Gaussian 16 at Fri Dec 11 22:42:44 2020.

 ----------------------------------------------------------------------
 # B3LYP/6-311++G(d,p) empiricaldispersion=gd3bj scf=xqc pop=npa geom=c
 heck
 ----------------------------------------------------------------------

 -------------------------------------
 CID_101299585_JID_8860_Energie_kation
 -------------------------------------
 Structure from the checkpoint file:  "JID_8860.chk"
 Charge =  1 Multiplicity = 2

 SCF Done:  E(UB3LYP) =  -806.945533990     A.U. after   25 cycles
 Normal termination of Gaussian 16 at Fri Dec 11 22:59:45 2020.
 Gaussian 16:  ES64L-G16RevA.03 25-Dec-2016

 ----------------------------------------------------------------------
 # B3LYP/6-311++G(d,p) empiricaldispersion=gd3bj scf=xqc pop=npa geom=c
 heck
 ----------------------------------------------------------------------

 ------------------------------------
 CID_101299585_JID_8860_Energie_anion
 ------------------------------------
 Structure from the checkpoint file:  "JID_8860.chk"
 Charge = -1 Multiplicity = 2

                         Standard orientation:
 ---------------------------------------------------------------------
 Center     Atomic      Atomic             Coordinates (Angstroms)
 Number     Number       Type             X           Y           Z
 ---------------------------------------------------------------------
      1          6           0       -0.349452    2.616348   -0.355855
      2          6           0       -0.952578    1.245913   -0.150532
      3          6           0       -2.348793    1.109591   -0.219408
      4          6           0       -2.903251   -0.168723   -0.067659
      5          6           0       -2.121385   -1.310820    0.151563
      6          6           0       -0.735610   -1.144447    0.219952
      7          6           0       -0.135562    0.121841    0.076399
      8          6           0        1.346087    0.220328    0.203117
      9          6           0        2.177308   -0.435841   -0.716110
     10          6           0        3.569269   -0.376958   -0.584979
     11          6           0        4.145578    0.339871    0.466496
     12          6           0        3.319845    0.993195    1.382461
     13          6           0        1.934346    0.931368    1.263142
     14          8           0        4.311454   -1.037286   -1.523106
     15          8           0        0.010465   -2.269260    0.452579
     16          6           0       -2.759801   -2.667943    0.314581
     17          8           0       -4.269463   -0.272586   -0.146213
     18          6           0       -3.243078    2.300917   -0.461410
     19          1           0       -0.571304    3.283708    0.487633
     20          1           0       -0.765095    3.094643   -1.249986
     21          1           0        0.734483    2.573512   -0.468191
     22          1           0        1.752995   -0.972875   -1.558821
     23          1           0        5.228013    0.386992    0.567109
     24          1           0        3.768771    1.546908    2.202276
     25          1           0        1.295980    1.427179    1.986969
     26          1           0        5.252473   -0.907124   -1.328279
     27          1           0        0.947284   -2.009065    0.484555
     28          1           0       -3.445723   -2.698943    1.173919
     29          1           0       -3.330128   -2.963050   -0.578324
     30          1           0       -1.998331   -3.430341    0.480174
     31          1           0       -4.518769   -1.199006   -0.013433
     32          1           0       -3.108001    2.710416   -1.471739
     33          1           0       -4.293162    2.027781   -0.351964
     34          1           0       -3.026675    3.114462    0.241482
 ---------------------------------------------------------------------

 SCF Done:  E(UB3LYP) =  -807.205875018     A.U. after   33 cycles
 SCF Done:  E(UB3LYP) =  -807.205875018     a.u. after    1 cycles

 The electronic state is 2-A.
 Alpha  occ. eigenvalues --  -19.06316 -19.06021 -19.05884 -10.14975 -10.14251
 Alpha  occ. eigenvalues --  -10.14050 -10.10225 -10.09410 -10.09176 -10.08510
 Alpha  occ. eigenvalues --  -10.08489 -10.08453 -10.08382 -10.08271 -10.08224
 Alpha  occ. eigenvalues --  -10.08064 -10.07770 -10.07653  -0.97454  -0.97153
 Alpha  occ. eigenvalues --   -0.97063  -0.77970  -0.76076  -0.70519  -0.69099
 Alpha  occ. eigenvalues --   -0.66028  -0.64547  -0.63555  -0.59833  -0.57224
 Alpha  occ. eigenvalues --   -0.54614  -0.52144  -0.50941  -0.50450  -0.45721
 Alpha  occ. eigenvalues --   -0.44735  -0.41637  -0.41329  -0.40134  -0.38501
 Alpha  occ. eigenvalues --   -0.36542  -0.35726  -0.34755  -0.33866  -0.33637
 Alpha  occ. eigenvalues --   -0.32528  -0.31702  -0.31415  -0.31350  -0.30714
 Alpha  occ. eigenvalues --   -0.30161  -0.30102  -0.29495  -0.29356  -0.28670
 Alpha  occ. eigenvalues --   -0.27916  -0.26657  -0.25510  -0.24938  -0.24459
 Alpha  occ. eigenvalues --   -0.21450  -0.17412  -0.14274  -0.13453  -0.11969
 Alpha  occ. eigenvalues --    0.03740
 Alpha virt. eigenvalues --    0.04912   0.06066   0.06353   0.07224   0.07968
 Alpha virt. eigenvalues --    0.08192   0.08481   0.09131   0.09404   0.09521
 Alpha virt. eigenvalues --    0.09905   0.10602   0.10849   0.11004   0.11333

  Beta  occ. eigenvalues --  -19.06288 -19.05965 -19.05877 -10.14978 -10.14250
  Beta  occ. eigenvalues --  -10.14046 -10.10221 -10.09409 -10.09166 -10.08511
  Beta  occ. eigenvalues --  -10.08472 -10.08454 -10.08338 -10.08229 -10.08219
  Beta  occ. eigenvalues --  -10.08064 -10.07759 -10.07642  -0.97402  -0.97073
  Beta  occ. eigenvalues --   -0.97019  -0.77951  -0.76052  -0.70498  -0.69074
  Beta  occ. eigenvalues --   -0.65987  -0.64516  -0.63515  -0.59806  -0.57187
  Beta  occ. eigenvalues --   -0.54561  -0.52104  -0.50884  -0.50428  -0.45697
  Beta  occ. eigenvalues --   -0.44662  -0.41619  -0.41270  -0.40106  -0.38460
  Beta  occ. eigenvalues --   -0.36506  -0.35701  -0.34725  -0.33841  -0.33613
  Beta  occ. eigenvalues --   -0.32495  -0.31677  -0.31394  -0.31333  -0.30676
  Beta  occ. eigenvalues --   -0.30129  -0.30077  -0.29463  -0.29329  -0.28643
  Beta  occ. eigenvalues --   -0.27896  -0.26624  -0.25490  -0.24907  -0.24438
  Beta  occ. eigenvalues --   -0.21435  -0.17373  -0.14241  -0.13437  -0.11958
  Beta virt. eigenvalues --    0.05623   0.06154   0.06508   0.06978   0.07852
  Beta virt. eigenvalues --    0.07970   0.08457   0.08680   0.09239   0.09446
  Beta virt. eigenvalues --    0.09796   0.10166   0.10691   0.10935   0.11302

 Mulliken charges and spin densities:
               1          2
     1  C   -0.284309  -0.165176
     2  C    0.004020   0.007870
     3  C    0.853899  -0.486458
     4  C   -0.915557  -0.579281
     5  C   -0.217968   1.639888
     6  C   -0.526611   0.080696
     7  C    0.311554  -0.168937
     8  C    1.493859  -0.337619
     9  C    0.010427  -0.554897
    10  C    0.259728  -0.715470
    11  C    0.769938  -0.748809
    12  C   -0.079059  -0.177155
    13  C   -1.665099   0.881294
    14  O   -0.251208   0.027203
    15  O   -0.278793  -0.008840
    16  C    1.087772  -1.544563
    17  O   -0.243016   0.011494
    18  C   -0.310398  -0.309569
    19  H    0.048289   0.116231
    20  H    0.085162   0.061368
    21  H    0.149709   0.000950
    22  H    0.177020   0.058320
    23  H   -1.030385   1.200453
    24  H   -0.187341   0.372775
    25  H    0.063464   0.108257
    26  H   -0.414177   0.708344
    27  H    0.298399   0.049787
    28  H   -0.220600   0.368709
    29  H   -0.187041   0.341092
    30  H    0.085321   0.108061
    31  H   -0.144943   0.445376
    32  H    0.078312   0.071175
    33  H    0.119981   0.056823
    34  H    0.059653   0.080605
 Sum of Mulliken charges =  -1.00000   1.00000

 Dipole moment (field-independent basis, Debye):
    X=             -6.0892    Y=              2.6131    Z=              0.5544  Tot=              6.6494
 Quadrupole moment (field-independent basis, Debye-Ang):
   XX=           -239.0040   YY=           -141.8497   ZZ=           -133.6816
   XY=             -3.9955   XZ=              5.3977   YZ=             -1.5680

 Summary of Natural Population Analysis:

                                       Natural Population
                Natural  -----------------------------------------------
    Atom  No    Charge         Core      Valence    Rydberg      Total
 -----------------------------------------------------------------------
      C    1   -0.29684      0.99964     2.29261    0.00460     3.29684
      C    2    0.00794      0.99947     1.98525    0.00735     2.99206
      C    3   -0.05206      0.99944     2.04430    0.00832     3.05206
      C    4    0.17136      0.99930     1.81602    0.01332     2.82864
      C    5   -0.07459      0.99944     2.06547    0.00967     3.07459
      C    6    0.17672      0.99931     1.81223    0.01174     2.82328
      C    7   -0.07184      0.99941     2.06289    0.00953     3.07184
      C    8   -0.02385      0.99951     2.01227    0.01208     3.02385
      C    9   -0.13680      0.99947     2.12650    0.01083     3.13680
      C   10    0.16384      0.99938     1.82280    0.01398     2.83616
      C   11   -0.13528      0.99952     2.12481    0.01095     3.13528
      C   12   -0.08719      0.99957     2.07719    0.01044     3.08719
      C   13   -0.11459      0.99951     2.10506    0.01002     3.11459
      O   14   -0.33838      0.99988     3.33132    0.00718     4.33838
      O   15   -0.34712      0.99987     3.34156    0.00569     4.34712
      C   16   -0.30776      0.99964     2.30141    0.00671     3.30776
      O   17   -0.34557      0.99988     3.33929    0.00640     4.34557
      C   18   -0.29461      0.99964     2.29026    0.00470     3.29461
      H   19    0.10256      0.00000     0.39613    0.00131     0.39744
      H   20    0.10231      0.00000     0.39656    0.00113     0.39769
      H   21    0.11064      0.00000     0.38853    0.00083     0.38936
      H   22    0.11084      0.00000     0.38781    0.00135     0.38916
      H   23    0.10849      0.00000     0.38631    0.00520     0.39151
      H   24    0.10231      0.00000     0.39678    0.00091     0.39769
      H   25    0.10361      0.00000     0.39504    0.00135     0.39639
      H   26    0.24266      0.00000     0.24304    0.01429     0.25734
      H   27    0.24487      0.00000     0.25247    0.00266     0.25513
      H   28    0.10255      0.00000     0.39605    0.00139     0.39745
      H   29    0.10251      0.00000     0.39618    0.00130     0.39749
      H   30    0.12021      0.00000     0.37866    0.00113     0.37979
      H   31    0.24052      0.00000     0.25525    0.00422     0.25948
      H   32    0.09977      0.00000     0.39893    0.00130     0.40023
      H   33    0.11298      0.00000     0.38597    0.00104     0.38702
      H   34    0.09980      0.00000     0.39899    0.00121     0.40020
 =======================================================================
   * Total *    0.00000     17.99187    46.80398    0.20416    65.00000

 Normal termination of Gaussian 16 at Fri Dec 11 23:22:42 2020.
