 Gaussian 16, Revision A.03,

 -----------------------------------------------------------
 # opt freq B3LYP/6-31G(d) empiricaldispersion=gd3bj scf=xqc
 -----------------------------------------------------------

 ------------------------------
 CID_17923004_JID_2298_neutraal
 ------------------------------
 Symbolic Z-matrix:
 Charge =  0 Multiplicity = 1

 SCF Done:  E(RB3LYP) =  -578.290937269     A.U. after   15 cycles
 SCF Done:  E(RB3LYP) =  -578.294503830     A.U. after   13 cycles
 SCF Done:  E(RB3LYP) =  -578.292318333     A.U. after   14 cycles
 SCF Done:  E(RB3LYP) =  -578.295653951     A.U. after   13 cycles
 SCF Done:  E(RB3LYP) =  -578.298562785     A.U. after   13 cycles
 SCF Done:  E(RB3LYP) =  -578.299131712     A.U. after   13 cycles
 SCF Done:  E(RB3LYP) =  -578.301896642     A.U. after   13 cycles
 SCF Done:  E(RB3LYP) =  -578.302786324     A.U. after   13 cycles
 SCF Done:  E(RB3LYP) =  -578.303780356     A.U. after   13 cycles
 SCF Done:  E(RB3LYP) =  -578.304266026     A.U. after   13 cycles
 SCF Done:  E(RB3LYP) =  -578.304909086     A.U. after    9 cycles
 SCF Done:  E(RB3LYP) =  -578.304910981     A.U. after    9 cycles
 SCF Done:  E(RB3LYP) =  -578.304911343     A.U. after    8 cycles
 SCF Done:  E(RB3LYP) =  -578.304911439     A.U. after    7 cycles
 SCF Done:  E(RB3LYP) =  -578.304911468     A.U. after    7 cycles
 Optimization completed.
    -- Stationary point found.

 1\1\GINC-NODE106\FOpt\RB3LYP\6-31G(d)\C9H16O3\VSC10255\09-Dec-2020\0\\
 # opt freq B3LYP/6-31G(d) empiricaldispersion=gd3bj scf=xqc\\CID_17923
 004_JID_2298_neutraal\\0,1\C,0.8363705176,0.0595554746,0.063152596\C,0
 .7571745247,1.235944239,1.0405603015\C,1.8630421952,2.277393864,0.8831
 799828\O,1.6389760363,3.1741877265,-0.2228654384\C,1.8091609151,2.8105
 194214,-1.52607523\C,2.9164149663,2.1654801433,-1.9910210474\C,4.17194
 80089,1.9728299544,-1.1711933327\C,2.9172345761,1.6635127827,-3.374375
 7065\O,1.9747845533,1.6046036055,-4.1504969838\O,4.1421887997,1.192777

 Normal termination of Gaussian 16 at Wed Dec  9 17:02:47 2020.

 --------------------------------------------------------------------
 #N Geom=AllCheck Guess=TCheck SCRF=Check GenChk RB3LYP/6-31G(d) Freq
 --------------------------------------------------------------------

 Structure from the checkpoint file:  "JID_2298.chk"
 ------------------------------
 CID_17923004_JID_2298_neutraal
 ------------------------------
 Charge =  0 Multiplicity = 1

 SCF Done:  E(RB3LYP) =  -578.304911468     A.U. after    1 cycles

  Exact polarizability: 124.271   4.473 109.608  -9.032  -0.438  83.235
 Approx polarizability: 173.865  10.395 159.093 -24.027  -2.722 122.962

                      1                      2                      3
                      A                      A                      A
 Frequencies --     44.3002                50.4690                74.9806
 Red. masses --      3.4387                 5.8481                 3.3710
 Frc consts  --      0.0040                 0.0088                 0.0112
 IR Inten    --      0.0606                 1.2612                 0.1395

                      4                      5                      6
                      A                      A                      A
 Frequencies --     96.3040               108.3241               139.3443
 Red. masses --      2.9008                 2.8239                 2.4171
 Frc consts  --      0.0159                 0.0195                 0.0277
 IR Inten    --      1.9958                 0.7255                 0.1166

                      7                      8                      9
                      A                      A                      A
 Frequencies --    213.9011               222.3589               236.8813
 Red. masses --      2.8830                 1.2788                 2.6239
 Frc consts  --      0.0777                 0.0373                 0.0867
 IR Inten    --      0.5874                 0.8754                 0.7445

                     10                     11                     12
                      A                      A                      A
 Frequencies --    251.1405               254.3584               288.8421
 Red. masses --      1.6073                 1.1611                 2.9817
 Frc consts  --      0.0597                 0.0443                 0.1466
 IR Inten    --      0.2158                 0.4809                 3.5627

                     13                     14                     15
                      A                      A                      A
 Frequencies --    320.9416               336.6159               368.0937
 Red. masses --      2.7915                 2.1680                 2.2641
 Frc consts  --      0.1694                 0.1447                 0.1807
 IR Inten    --      3.1949                 3.2090                 0.7647

                     16                     17                     18
                      A                      A                      A
 Frequencies --    398.6120               465.4390               466.3072
 Red. masses --      2.6075                 2.9847                 3.5671
 Frc consts  --      0.2441                 0.3810                 0.4570
 IR Inten    --      5.3307                 5.5997                 2.3416

                     19                     20                     21
                      A                      A                      A
 Frequencies --    534.4006               602.2331               627.0357
 Red. masses --      3.4391                 3.0479                 1.3290
 Frc consts  --      0.5787                 0.6513                 0.3079
 IR Inten    --      5.1902                21.0507                70.6833

                     22                     23                     24
                      A                      A                      A
 Frequencies --    673.6795               734.7152               771.9146
 Red. masses --      3.8114                 3.7826                 1.4730
 Frc consts  --      1.0192                 1.2030                 0.5171
 IR Inten    --     39.2146                29.4778                 2.6318

                     25                     26                     27
                      A                      A                      A
 Frequencies --    782.0971               800.2105               862.4161
 Red. masses --      5.4335                 1.2105                 2.3289
 Frc consts  --      1.9582                 0.4567                 1.0206
 IR Inten    --     42.3501                 5.7740                12.2360

                     28                     29                     30
                      A                      A                      A
 Frequencies --    909.8264               933.0048               959.3176
 Red. masses --      2.1899                 1.5357                 2.1159
 Frc consts  --      1.0681                 0.7876                 1.1473
 IR Inten    --      7.7062                 6.8000                 9.3790

                     31                     32                     33
                      A                      A                      A
 Frequencies --   1011.4772              1065.5295              1075.9379
 Red. masses --      1.8370                 1.7829                 1.4956
 Frc consts  --      1.1073                 1.1926                 1.0201
 IR Inten    --      7.5233                42.8807                 5.9078

                     34                     35                     36
                      A                      A                      A
 Frequencies --   1085.6949              1105.0276              1122.4607
 Red. masses --      2.3556                 2.2334                 2.4278
 Frc consts  --      1.6359                 1.6068                 1.8022
 IR Inten    --     75.5428               172.8284               199.5926

                     37                     38                     39
                      A                      A                      A
 Frequencies --   1129.6026              1155.3518              1180.4214
 Red. masses --      1.8580                 3.0347                 1.9696
 Frc consts  --      1.3968                 2.3867                 1.6169
 IR Inten    --     24.0875               103.3264                22.6691

                     40                     41                     42
                      A                      A                      A
 Frequencies --   1234.1496              1267.5052              1301.2306
 Red. masses --      1.9210                 2.3125                 1.1952
 Frc consts  --      1.7239                 2.1889                 1.1923
 IR Inten    --     84.4918               127.8453                 0.4613

                     43                     44                     45
                      A                      A                      A
 Frequencies --   1335.1949              1340.6930              1378.3194
 Red. masses --      1.3929                 1.1610                 1.6152
 Frc consts  --      1.4630                 1.2296                 1.8079
 IR Inten    --     28.5953                25.4185                 5.3170

                     46                     47                     48
                      A                      A                      A
 Frequencies --   1394.8247              1400.3566              1422.7494
 Red. masses --      2.4436                 1.4423                 1.2289
 Frc consts  --      2.8010                 1.6664                 1.4656
 IR Inten    --     62.2412                 1.9789                 6.0459

                     49                     50                     51
                      A                      A                      A
 Frequencies --   1430.1237              1448.2480              1450.8259
 Red. masses --      1.2952                 1.2927                 1.2480
 Frc consts  --      1.5607                 1.5975                 1.5477
 IR Inten    --      1.2859                 5.2917                 5.5107

                     52                     53                     54
                      A                      A                      A
 Frequencies --   1496.9106              1504.2442              1520.2942
 Red. masses --      1.1006                 1.0794                 1.0880
 Frc consts  --      1.4530                 1.4391                 1.4817
 IR Inten    --     11.2519                 4.9556                 0.7327

                     55                     56                     57
                      A                      A                      A
 Frequencies --   1525.7774              1529.5731              1533.2444
 Red. masses --      1.0632                 1.0465                 1.0442
 Frc consts  --      1.4583                 1.4426                 1.4463
 IR Inten    --      1.3576                 2.2423                 6.4550

                     58                     59                     60
                      A                      A                      A
 Frequencies --   1535.5199              1541.5372              1543.4152
 Red. masses --      1.0479                 1.0704                 1.0599
 Frc consts  --      1.4557                 1.4987                 1.4876
 IR Inten    --     13.5678                11.6463                12.2672

                     61                     62                     63
                      A                      A                      A
 Frequencies --   1656.9115              1790.1799              3037.4014
 Red. masses --      6.4303                 8.7442                 1.0643
 Frc consts  --     10.4012                16.5106                 5.7852
 IR Inten    --    287.0221               221.9194                27.7513

                     64                     65                     66
                      A                      A                      A
 Frequencies --   3039.2922              3054.6703              3057.6475
 Red. masses --      1.0506                 1.0419                 1.0693
 Frc consts  --      5.7177                 5.7281                 5.8900
 IR Inten    --     26.6287                17.6708                20.2819

                     67                     68                     69
                      A                      A                      A
 Frequencies --   3060.5021              3079.7338              3098.1006
 Red. masses --      1.0358                 1.0941                 1.0641
 Frc consts  --      5.7162                 6.1140                 6.0174
 IR Inten    --     30.6667                14.2533                51.7273

                     70                     71                     72
                      A                      A                      A
 Frequencies --   3114.0375              3117.2660              3122.6575
 Red. masses --      1.1008                 1.0871                 1.1022
 Frc consts  --      6.2892                 6.2242                 6.3322
 IR Inten    --     43.1801                15.3528                33.0953

                     73                     74                     75
                      A                      A                      A
 Frequencies --   3146.8251              3149.5503              3156.6055
 Red. masses --      1.1008                 1.1033                 1.0977
 Frc consts  --      6.4223                 6.4482                 6.4441
 IR Inten    --     14.4840                26.5604                14.1361

                     76                     77                     78
                      A                      A                      A
 Frequencies --   3158.1930              3170.9755              3701.6567
 Red. masses --      1.1007                 1.0946                 1.0641
 Frc consts  --      6.4684                 6.4845                 8.5902
 IR Inten    --     13.9154                 9.3980                67.4588

 - Thermochemistry -
 -------------------
 Temperature   298.150 Kelvin.  Pressure   1.00000 Atm.
 Atom     1 has atomic number  6 and mass  12.00000

 Molecular mass:   172.10994 amu.
 Principal axes and moments of inertia in atomic units:
                           1         2         3
     Eigenvalues --  1542.625692618.244103146.90993
           X            0.99971   0.00339   0.02368
           Y           -0.00344   0.99999   0.00218
           Z           -0.02367  -0.00226   0.99972
 This molecule is an asymmetric top.
 Rotational symmetry number  1.
 Warning -- assumption of classical behavior for rotation
           may cause significant error
 Rotational temperatures (Kelvin)      0.05615     0.03308     0.02752
 Rotational constants (GHZ):           1.16992     0.68929     0.57350
 Zero-point vibrational energy     641835.5 (Joules/Mol)
                                  153.40236 (Kcal/Mol)
 Warning -- explicit consideration of  20 degrees of freedom as
           vibrations may cause significant error
 Vibrational temperatures:     63.74    72.61   107.88   138.56   155.85
          (Kelvin)            200.49   307.76   319.92   340.82   361.34
                              365.97   415.58   461.76   484.32   529.60
                              573.51   669.66   670.91   768.88   866.48
                              902.16   969.27  1057.09  1110.61  1125.26
                             1151.32  1240.82  1309.04  1342.39  1380.24
                             1455.29  1533.06  1548.03  1562.07  1589.89
                             1614.97  1625.25  1662.29  1698.36  1775.67
                             1823.66  1872.18  1921.05  1928.96  1983.09
                             2006.84  2014.80  2047.02  2057.63  2083.71
                             2087.41  2153.72  2164.27  2187.36  2195.25
                             2200.71  2206.00  2209.27  2217.93  2220.63
                             2383.93  2575.67  4370.14  4372.86  4394.99
                             4399.27  4403.38  4431.05  4457.48  4480.41
                             4485.05  4492.81  4527.58  4531.50  4541.65
                             4543.94  4562.33  5325.86

 Zero-point correction=                           0.244462 (Hartree/Particle)
 Thermal correction to Energy=                    0.258334
 Thermal correction to Enthalpy=                  0.259278
 Thermal correction to Gibbs Free Energy=         0.203836
 Sum of electronic and zero-point Energies=           -578.060449
 Sum of electronic and thermal Energies=              -578.046578
 Sum of electronic and thermal Enthalpies=            -578.045634
 Sum of electronic and thermal Free Energies=         -578.101076

                     E (Thermal)             CV                S
                      KCal/Mol        Cal/Mol-Kelvin    Cal/Mol-Kelvin
 Total                  162.107             50.643            116.688
 Electronic               0.000              0.000              0.000
 Translational            0.889              2.981             41.336
 Rotational               0.889              2.981             30.920
 Vibrational            160.329             44.682             44.432
 Vibration     1          0.595              1.980              5.057
 Vibration     2          0.595              1.977              4.799
 Vibration     3          0.599              1.966              4.018
 Vibration     4          0.603              1.952              3.528
 Vibration     5          0.606              1.943              3.299
 Vibration     6          0.615              1.914              2.813
 Vibration     7          0.644              1.820              2.010
 Vibration     8          0.648              1.807              1.940
 Vibration     9          0.656              1.784              1.826
 Vibration    10          0.663              1.761              1.723
 Vibration    11          0.665              1.755              1.700
 Vibration    12          0.685              1.694              1.481
 Vibration    13          0.706              1.633              1.305
 Vibration    14          0.717              1.602              1.228
 Vibration    15          0.741              1.538              1.088
 Vibration    16          0.765              1.473              0.968
 Vibration    17          0.823              1.327              0.750
 Vibration    18          0.824              1.325              0.748
 Vibration    19          0.889              1.174              0.577
 Vibration    20          0.961              1.027              0.446

 Optimization completed.
    -- Stationary point found.

 1\1\GINC-NODE106\Freq\RB3LYP\6-31G(d)\C9H16O3\VSC10255\09-Dec-2020\0\\
 #N Geom=AllCheck Guess=TCheck SCRF=Check GenChk RB3LYP/6-31G(d) Freq\\
 CID_17923004_JID_2298_neutraal\\0,1\C,0.8363705176,0.0595554746,0.0631
 52596\C,0.7571745247,1.235944239,1.0405603015\C,1.8630421952,2.2773938
 64,0.8831799828\O,1.6389760363,3.1741877265,-0.2228654384\C,1.80916091
 51,2.8105194214,-1.52607523\C,2.9164149663,2.1654801433,-1.9910210474\
 C,4.1719480089,1.9728299544,-1.1711933327\C,2.9172345761,1.6635127827,
 -3.3743757065\O,1.9747845533,1.6046036055,-4.1504969838\O,4.1421887997

 Normal termination of Gaussian 16 at Wed Dec  9 17:10:30 2020.

 ----------------------------------------------------------------------
 # B3LYP/6-311++G(d,p) empiricaldispersion=gd3bj scf=xqc pop=npa geom=c
 heck
 ----------------------------------------------------------------------

 --------------------------------------
 CID_17923004_JID_2298_Energie_neutraal
 --------------------------------------
 Structure from the checkpoint file:  "JID_2298.chk"
 Charge =  0 Multiplicity = 1

 SCF Done:  E(RB3LYP) =  -578.480861022     A.U. after   14 cycles
 Normal termination of Gaussian 16 at Wed Dec  9 17:13:49 2020.

 ----------------------------------------------------------------------
 # B3LYP/6-311++G(d,p) empiricaldispersion=gd3bj scf=xqc pop=npa geom=c
 heck
 ----------------------------------------------------------------------

 ------------------------------------
 CID_17923004_JID_2298_Energie_kation
 ------------------------------------
 Structure from the checkpoint file:  "JID_2298.chk"
 Charge =  1 Multiplicity = 2

 SCF Done:  E(UB3LYP) =  -578.172217187     A.U. after   21 cycles
 Normal termination of Gaussian 16 at Wed Dec  9 17:20:47 2020.
 Gaussian 16:  ES64L-G16RevA.03 25-Dec-2016

 -----------------------------------
 CID_17923004_JID_2298_Energie_anion
 -----------------------------------
 Structure from the checkpoint file:  "JID_2298.chk"
 Charge = -1 Multiplicity = 2

                         Standard orientation:
 ---------------------------------------------------------------------
 Center     Atomic      Atomic             Coordinates (Angstroms)
 Number     Number       Type             X           Y           Z
 ---------------------------------------------------------------------
      1          6           0        1.904131   -0.365164    1.873889
      2          6           0        2.798801   -0.469458    0.635270
      3          6           0        2.118919   -1.054488   -0.600784
      4          8           0        1.276141   -0.104554   -1.282791
      5          6           0        0.058551    0.288073   -0.810675
      6          6           0       -0.899259   -0.580581   -0.379049
      7          6           0       -0.813242   -2.077232   -0.574583
      8          6           0       -2.103046   -0.042695    0.274570
      9          8           0       -2.308324    1.106240    0.637688
     10          8           0       -3.045694   -1.005811    0.501054
     11          6           0       -0.086074    1.778933   -0.979345
     12          6           0        0.539065    2.592230    0.163681
     13          1           0        1.063910    0.314770    1.717862
     14          1           0        2.475807    0.001369    2.733427
     15          1           0        1.492020   -1.346109    2.139673
     16          1           0        3.216500    0.510427    0.373317
     17          1           0        3.653946   -1.121012    0.863286
     18          1           0        2.866072   -1.312049   -1.356025
     19          1           0        1.574174   -1.963248   -0.339409
     20          1           0       -0.441356   -2.609523    0.311280
     21          1           0       -1.808065   -2.474749   -0.784810
     22          1           0       -0.168337   -2.322879   -1.421873
     23          1           0       -3.770656   -0.536676    0.952859
     24          1           0        0.428658    2.019676   -1.917928
     25          1           0       -1.136992    2.046499   -1.077018
     26          1           0        1.595375    2.339778    0.302684
     27          1           0        0.474952    3.662633   -0.058890
     28          1           0       -0.000070    2.406382    1.096117
 ---------------------------------------------------------------------

 SCF Done:  E(UB3LYP) =  -578.470595454     A.U. after   33 cycles
 SCF Done:  E(UB3LYP) =  -578.470595454     a.u. after    1 cycles

 The electronic state is 2-A.
 Alpha  occ. eigenvalues --  -19.03632 -19.01952 -18.96323 -10.15309 -10.10382
 Alpha  occ. eigenvalues --  -10.09617 -10.05564 -10.04775 -10.04417 -10.04136
 Alpha  occ. eigenvalues --  -10.04028 -10.03540  -0.97208  -0.93466  -0.87454
 Alpha  occ. eigenvalues --   -0.69051  -0.66511  -0.64209  -0.58765  -0.55197
 Alpha  occ. eigenvalues --   -0.52538  -0.48937  -0.48287  -0.42224  -0.36673
 Alpha  occ. eigenvalues --   -0.36371  -0.35768  -0.35201  -0.33177  -0.32267
 Alpha  occ. eigenvalues --   -0.31111  -0.30243  -0.29401  -0.28739  -0.28274
 Alpha  occ. eigenvalues --   -0.27134  -0.26420  -0.25019  -0.24536  -0.23341
 Alpha  occ. eigenvalues --   -0.22521  -0.21933  -0.21178  -0.19178  -0.17648
 Alpha  occ. eigenvalues --   -0.14239  -0.10524   0.05060
 Alpha virt. eigenvalues --    0.07218   0.08377   0.08617   0.08918   0.09704
 Alpha virt. eigenvalues --    0.10807   0.11059   0.11521   0.11989   0.13279
 Alpha virt. eigenvalues --    0.13548   0.14367   0.14880   0.15047   0.16703

  Beta  occ. eigenvalues --  -19.03588 -19.01869 -18.96190 -10.15115 -10.10335
  Beta  occ. eigenvalues --  -10.09230 -10.05534 -10.04769 -10.04396 -10.04164
  Beta  occ. eigenvalues --  -10.04054 -10.03481  -0.97027  -0.93210  -0.87244
  Beta  occ. eigenvalues --   -0.68778  -0.66414  -0.64100  -0.58607  -0.55046
  Beta  occ. eigenvalues --   -0.52251  -0.48818  -0.48200  -0.42080  -0.36548
  Beta  occ. eigenvalues --   -0.36047  -0.35616  -0.34975  -0.33069  -0.31761
  Beta  occ. eigenvalues --   -0.31037  -0.30163  -0.29232  -0.28544  -0.28070
  Beta  occ. eigenvalues --   -0.27029  -0.26288  -0.24870  -0.24445  -0.23299
  Beta  occ. eigenvalues --   -0.22423  -0.21794  -0.20980  -0.18625  -0.17318
  Beta  occ. eigenvalues --   -0.14117  -0.09690
  Beta virt. eigenvalues --    0.07690   0.08423   0.08763   0.09299   0.09924
  Beta virt. eigenvalues --    0.10551   0.11203   0.11238   0.11817   0.12207
  Beta virt. eigenvalues --    0.13429   0.13644   0.14573   0.14900   0.15157

 Mulliken charges and spin densities:
               1          2
     1  C    0.143686  -0.596609
     2  C    0.329002  -0.619182
     3  C    0.208034  -0.358254
     4  O   -0.092764   0.040283
     5  C   -0.272537  -0.055249
     6  C    1.367062  -0.576890
     7  C   -0.146354  -0.388065
     8  C   -0.060975  -0.240001
     9  O   -0.370673   0.047100
    10  O   -0.200369   0.007454
    11  C   -1.653546   1.510991
    12  C    0.275999  -0.836830
    13  H    0.064852   0.100167
    14  H   -0.181225   0.321071
    15  H    0.061496   0.064105
    16  H    0.099377   0.053533
    17  H   -0.648504   0.801494
    18  H   -0.530291   0.705851
    19  H    0.014607   0.088592
    20  H    0.000500   0.165273
    21  H    0.202995  -0.046327
    22  H    0.120173   0.038595
    23  H    0.238538   0.014769
    24  H   -0.118836   0.292294
    25  H    0.175945   0.003067
    26  H    0.148791  -0.026464
    27  H   -0.272834   0.408559
    28  H    0.097852   0.080673
 Sum of Mulliken charges =  -1.00000   1.00000

 Dipole moment (field-independent basis, Debye):
    X=             -4.4562    Y=             -1.1578    Z=             -0.4076  Tot=              4.6222
 Quadrupole moment (field-independent basis, Debye-Ang):
   XX=           -121.3868   YY=           -110.9227   ZZ=           -100.6903
   XY=              8.2711   XZ=             -1.0539   YZ=              0.2964

 Summary of Natural Population Analysis:

                                       Natural Population
                Natural  -----------------------------------------------
    Atom  No    Charge         Core      Valence    Rydberg      Total
 -----------------------------------------------------------------------
      C    1   -0.28899      0.99966     2.28349    0.00584     3.28899
      C    2   -0.20149      0.99963     2.19371    0.00814     3.20149
      C    3   -0.00482      0.99953     1.99220    0.01309     3.00482
      O    4   -0.28582      0.99985     3.27443    0.01154     4.28582
      C    5    0.28613      0.99937     1.69963    0.01486     2.71387
      C    6   -0.14628      0.99939     2.13687    0.01003     3.14628
      C    7   -0.29288      0.99964     2.28797    0.00527     3.29288
      C    8    0.41207      0.99964     1.56423    0.02406     2.58793
      O    9   -0.32788      0.99987     3.32178    0.00622     4.32788
      O   10   -0.35745      0.99988     3.35135    0.00622     4.35745
      C   11   -0.21905      0.99959     2.21029    0.00917     3.21905
      C   12   -0.27860      0.99965     2.27398    0.00497     3.27860
      H   13    0.10578      0.00000     0.39266    0.00156     0.39422
      H   14    0.09664      0.00000     0.40240    0.00096     0.40336
      H   15    0.09463      0.00000     0.40431    0.00106     0.40537
      H   16    0.09730      0.00000     0.40129    0.00140     0.40270
      H   17    0.09712      0.00000     0.40101    0.00187     0.40288
      H   18    0.09030      0.00000     0.40806    0.00164     0.40970
      H   19    0.08382      0.00000     0.41459    0.00159     0.41618
      H   20    0.09655      0.00000     0.40202    0.00143     0.40345
      H   21    0.10776      0.00000     0.39101    0.00123     0.39224
      H   22    0.09784      0.00000     0.40100    0.00115     0.40216
      H   23    0.23242      0.00000     0.26365    0.00393     0.26758
      H   24    0.10190      0.00000     0.39665    0.00145     0.39810
      H   25    0.11100      0.00000     0.38778    0.00122     0.38900
      H   26    0.09385      0.00000     0.40484    0.00131     0.40615
      H   27    0.09441      0.00000     0.40451    0.00108     0.40559
      H   28    0.10373      0.00000     0.39516    0.00111     0.39627
 =======================================================================
   * Total *   -0.00000     11.99571    34.86088    0.14341    47.00000

 Normal termination of Gaussian 16 at Wed Dec  9 17:31:38 2020.
