 Gaussian 16, Revision A.03,

 -----------------------------------------------------------
 # opt freq B3LYP/6-31G(d) empiricaldispersion=gd3bj scf=xqc
 -----------------------------------------------------------

 -------------------------------
 CID_130655528_JID_1081_neutraal
 -------------------------------
 Symbolic Z-matrix:
 Charge =  0 Multiplicity = 1

 SCF Done:  E(RB3LYP) =  -861.948904950     A.U. after   14 cycles
 SCF Done:  E(RB3LYP) =  -861.951967467     A.U. after   12 cycles
 SCF Done:  E(RB3LYP) =  -861.952405684     A.U. after   13 cycles
 SCF Done:  E(RB3LYP) =  -861.952473255     A.U. after   13 cycles
 SCF Done:  E(RB3LYP) =  -861.953238142     A.U. after   13 cycles
 SCF Done:  E(RB3LYP) =  -861.952946268     A.U. after   12 cycles
 SCF Done:  E(RB3LYP) =  -861.953296317     A.U. after   12 cycles
 SCF Done:  E(RB3LYP) =  -861.953298457     A.U. after    9 cycles
 SCF Done:  E(RB3LYP) =  -861.953299272     A.U. after    9 cycles
 SCF Done:  E(RB3LYP) =  -861.953300037     A.U. after    8 cycles
 SCF Done:  E(RB3LYP) =  -861.953300228     A.U. after    8 cycles
 SCF Done:  E(RB3LYP) =  -861.953300384     A.U. after    8 cycles
 SCF Done:  E(RB3LYP) =  -861.953300445     A.U. after    7 cycles
 SCF Done:  E(RB3LYP) =  -861.953300485     A.U. after    7 cycles
 Optimization completed.
    -- Stationary point found.
 Normal termination of Gaussian 16 at Tue Dec  8 19:14:34 2020.

 --------------------------------------------------------------------
 #N Geom=AllCheck Guess=TCheck SCRF=Check GenChk RB3LYP/6-31G(d) Freq
 --------------------------------------------------------------------

 Structure from the checkpoint file:  "JID_1081.chk"
 -------------------------------
 CID_130655528_JID_1081_neutraal
 -------------------------------
 Charge =  0 Multiplicity = 1

 SCF Done:  E(RB3LYP) =  -861.953300485     A.U. after    1 cycles

  Exact polarizability: 119.218   1.968  98.709  -5.256   4.327  87.154
 Approx polarizability: 158.672  -5.823 159.101 -11.245   9.917 134.906

                      1                      2                      3
                      A                      A                      A
 Frequencies --     54.7959                78.0022               102.8789
 Red. masses --      4.4067                 3.2768                 2.4604
 Frc consts  --      0.0078                 0.0117                 0.0153
 IR Inten    --      2.6936                 2.3566                 3.4092

                      4                      5                      6
                      A                      A                      A
 Frequencies --    120.0882               187.2848               225.6310
 Red. masses --      5.0502                 3.1846                 3.6121
 Frc consts  --      0.0429                 0.0658                 0.1083
 IR Inten    --      0.6402                 4.6093                 2.1735

                      7                      8                      9
                      A                      A                      A
 Frequencies --    261.0844               274.5760               285.2516
 Red. masses --      2.8113                 2.5493                 2.3584
 Frc consts  --      0.1129                 0.1132                 0.1131
 IR Inten    --      4.6113                 4.0115                 1.7298

                     10                     11                     12
                      A                      A                      A
 Frequencies --    313.6922               336.9969               396.5866
 Red. masses --      1.4368                 2.8349                 3.8992
 Frc consts  --      0.0833                 0.1897                 0.3613
 IR Inten    --      4.1376                 1.3163                 0.6615

                     13                     14                     15
                      A                      A                      A
 Frequencies --    421.9099               445.4696               521.1639
 Red. masses --      2.5779                 5.7137                 4.2812
 Frc consts  --      0.2704                 0.6680                 0.6851
 IR Inten    --      3.3125                11.2138                 3.5047

                     16                     17                     18
                      A                      A                      A
 Frequencies --    547.6515               624.1331               634.3588
 Red. masses --      2.5616                 1.0725                 2.5903
 Frc consts  --      0.4527                 0.2462                 0.6141
 IR Inten    --      5.1882               136.4268                 1.1950

                     19                     20                     21
                      A                      A                      A
 Frequencies --    683.4752               711.2255               793.4367
 Red. masses --      3.4713                 2.0885                 2.1613
 Frc consts  --      0.9554                 0.6224                 0.8017
 IR Inten    --      3.8690                10.3676                 9.0026

                     22                     23                     24
                      A                      A                      A
 Frequencies --    837.7842               856.5025               880.2665
 Red. masses --      3.5107                 2.8061                 1.5460
 Frc consts  --      1.4518                 1.2129                 0.7058
 IR Inten    --      0.4008                10.7913                 6.6989

                     25                     26                     27
                      A                      A                      A
 Frequencies --    911.9709               927.1715               965.0493
 Red. masses --      2.4276                 1.9372                 1.7748
 Frc consts  --      1.1896                 0.9812                 0.9739
 IR Inten    --      3.0416                 5.7604                 5.6595

                     28                     29                     30
                      A                      A                      A
 Frequencies --    989.0421              1031.4840              1042.7051
 Red. masses --      1.9908                 1.6992                 1.7862
 Frc consts  --      1.1474                 1.0652                 1.1442
 IR Inten    --     26.0291                 2.2470                 3.5851

                     31                     32                     33
                      A                      A                      A
 Frequencies --   1061.9820              1096.3345              1112.2178
 Red. masses --      1.6201                 1.6336                 1.6412
 Frc consts  --      1.0765                 1.1568                 1.1962
 IR Inten    --      9.1760                25.8621                40.7851

                     34                     35                     36
                      A                      A                      A
 Frequencies --   1127.8181              1179.8156              1198.2868
 Red. masses --      2.4915                 2.4122                 1.5275
 Frc consts  --      1.8672                 1.9783                 1.2923
 IR Inten    --     20.4675                 2.8847                 6.7951

                     37                     38                     39
                      A                      A                      A
 Frequencies --   1231.0466              1265.1831              1288.8063
 Red. masses --      1.6676                 1.3675                 1.4644
 Frc consts  --      1.4890                 1.2897                 1.4332
 IR Inten    --      3.4476                38.2424                 3.7831

                     40                     41                     42
                      A                      A                      A
 Frequencies --   1298.3853              1314.7658              1359.3237
 Red. masses --      1.4144                 1.2846                 1.4367
 Frc consts  --      1.4049                 1.3083                 1.5641
 IR Inten    --     26.0564                 9.4017                 2.2476

                     43                     44                     45
                      A                      A                      A
 Frequencies --   1381.2648              1388.7169              1407.8510
 Red. masses --      1.3741                 1.5723                 1.3181
 Frc consts  --      1.5446                 1.7865                 1.5392
 IR Inten    --      5.1859                19.2907                 1.7002

                     46                     47                     48
                      A                      A                      A
 Frequencies --   1441.3473              1444.0780              1468.1951
 Red. masses --      1.1938                 1.2403                 1.0935
 Frc consts  --      1.4612                 1.5238                 1.3888
 IR Inten    --     13.5012                 6.1587                10.8913

                     49                     50                     51
                      A                      A                      A
 Frequencies --   1484.3567              1513.1405              1517.7987
 Red. masses --      1.1845                 1.0826                 1.0767
 Frc consts  --      1.5377                 1.4604                 1.4615
 IR Inten    --     87.8895                 0.8303                 4.8450

                     52                     53                     54
                      A                      A                      A
 Frequencies --   1522.8269              1531.1443              1535.9987
 Red. masses --      1.0615                 1.0499                 1.1025
 Frc consts  --      1.4503                 1.4501                 1.5325
 IR Inten    --     21.0632                 4.5824                 2.8245

                     55                     56                     57
                      A                      A                      A
 Frequencies --   1805.0042              2931.9932              3020.4054
 Red. masses --      8.9553                 1.0850                 1.0718
 Frc consts  --     17.1903                 5.4957                 5.7609
 IR Inten    --    111.2618               129.3162                18.6430

                     58                     59                     60
                      A                      A                      A
 Frequencies --   3056.7887              3062.1027              3063.0257
 Red. masses --      1.0634                 1.0543                 1.0456
 Frc consts  --      5.8543                 5.8242                 5.7798
 IR Inten    --     12.6754                 9.5671                38.7994

                     61                     62                     63
                      A                      A                      A
 Frequencies --   3076.1591              3083.5961              3090.9074
 Red. masses --      1.0641                 1.0846                 1.0886
 Frc consts  --      5.9325                 6.0765                 6.1275
 IR Inten    --     20.9751                42.3467                 2.9272

                     64                     65                     66
                      A                      A                      A
 Frequencies --   3103.4680              3125.8902              3130.4289
 Red. masses --      1.0990                 1.0986                 1.1015
 Frc consts  --      6.2363                 6.3247                 6.3599
 IR Inten    --     33.3146                 5.3937                17.7050

                     67                     68                     69
                      A                      A                      A
 Frequencies --   3134.2633              3139.6508              3645.5392
 Red. masses --      1.1074                 1.1027                 1.0657
 Frc consts  --      6.4095                 6.4040                 8.3447
 IR Inten    --     19.3245                30.3893               147.8455

 - Thermochemistry -
 -------------------
 Temperature   298.150 Kelvin.  Pressure   1.00000 Atm.
 Atom     1 has atomic number  6 and mass  12.00000

 Molecular mass:   174.07145 amu.
 Principal axes and moments of inertia in atomic units:
                           1         2         3
     Eigenvalues --  1014.208492762.086143020.35802
           X            0.99962   0.02767   0.00142
           Y           -0.02770   0.99864   0.04407
           Z           -0.00020  -0.04409   0.99903
 This molecule is an asymmetric top.
 Rotational symmetry number  1.
 Warning -- assumption of classical behavior for rotation
           may cause significant error
 Rotational temperatures (Kelvin)      0.08540     0.03136     0.02868
 Rotational constants (GHZ):           1.77946     0.65340     0.59753
 Zero-point vibrational energy     562852.4 (Joules/Mol)
                                  134.52496 (Kcal/Mol)
 Warning -- explicit consideration of  16 degrees of freedom as
           vibrations may cause significant error
 Vibrational temperatures:     78.84   112.23   148.02   172.78   269.46
          (Kelvin)            324.63   375.64   395.05   410.41   451.33
                              484.86   570.60   607.03   640.93   749.84
                              787.95   897.99   912.70   983.37  1023.29
                             1141.58  1205.38  1232.32  1266.51  1312.12
                             1333.99  1388.49  1423.01  1484.08  1500.22
                             1527.96  1577.38  1600.23  1622.68  1697.49
                             1724.07  1771.20  1820.32  1854.30  1868.09
                             1891.65  1955.76  1987.33  1998.05  2025.58
                             2073.78  2077.71  2112.41  2135.66  2177.07
                             2183.77  2191.01  2202.98  2209.96  2597.00
                             4218.48  4345.69  4398.04  4405.68  4407.01
                             4425.91  4436.61  4447.13  4465.20  4497.46
                             4503.99  4509.51  4517.26  5245.12

 Zero-point correction=                           0.214379 (Hartree/Particle)
 Thermal correction to Energy=                    0.226061
 Thermal correction to Enthalpy=                  0.227005
 Thermal correction to Gibbs Free Energy=         0.176793
 Sum of electronic and zero-point Energies=           -861.738921
 Sum of electronic and thermal Energies=              -861.727239
 Sum of electronic and thermal Enthalpies=            -861.726295
 Sum of electronic and thermal Free Energies=         -861.776508

                     E (Thermal)             CV                S
                      KCal/Mol        Cal/Mol-Kelvin    Cal/Mol-Kelvin
 Total                  141.856             44.363            105.682
 Electronic               0.000              0.000              0.000
 Translational            0.889              2.981             41.370
 Rotational               0.889              2.981             30.515
 Vibrational            140.078             38.402             33.796
 Vibration     1          0.596              1.976              4.636
 Vibration     2          0.599              1.964              3.941
 Vibration     3          0.605              1.947              3.399
 Vibration     4          0.609              1.933              3.099
 Vibration     5          0.632              1.857              2.255
 Vibration     6          0.650              1.802              1.913
 Vibration     7          0.669              1.744              1.655
 Vibration     8          0.677              1.720              1.567
 Vibration     9          0.683              1.701              1.502
 Vibration    10          0.702              1.648              1.343
 Vibration    11          0.718              1.602              1.226
 Vibration    12          0.763              1.477              0.975
 Vibration    13          0.784              1.423              0.886
 Vibration    14          0.805              1.371              0.810
 Vibration    15          0.876              1.203              0.607
 Vibration    16          0.903              1.145              0.549

 Optimization completed.
    -- Stationary point found.
 Normal termination of Gaussian 16 at Tue Dec  8 19:20:16 2020.

 ----------------------------------------------------------------------
 # B3LYP/6-311++G(d,p) empiricaldispersion=gd3bj scf=xqc pop=npa geom=c
 heck
 ----------------------------------------------------------------------

 ---------------------------------------
 CID_130655528_JID_1081_Energie_neutraal
 ---------------------------------------
 Structure from the checkpoint file:  "JID_1081.chk"
 Charge =  0 Multiplicity = 1

 SCF Done:  E(RB3LYP) =  -862.121966130     A.U. after   14 cycles
 Normal termination of Gaussian 16 at Tue Dec  8 19:22:51 2020.

 ----------------------------------------------------------------------
 # B3LYP/6-311++G(d,p) empiricaldispersion=gd3bj scf=xqc pop=npa geom=c
 heck
 ----------------------------------------------------------------------

 -------------------------------------
 CID_130655528_JID_1081_Energie_kation
 -------------------------------------
 Structure from the checkpoint file:  "JID_1081.chk"
 Charge =  1 Multiplicity = 2

 SCF Done:  E(UB3LYP) =  -861.817520676     A.U. after   24 cycles
 Normal termination of Gaussian 16 at Tue Dec  8 19:29:00 2020.
 Gaussian 16:  ES64L-G16RevA.03 25-Dec-2016

 ----------------------------------------------------------------------
 # B3LYP/6-311++G(d,p) empiricaldispersion=gd3bj scf=xqc pop=npa geom=c
 heck
 ----------------------------------------------------------------------

 ------------------------------------
 CID_130655528_JID_1081_Energie_anion
 ------------------------------------
 Structure from the checkpoint file:  "JID_1081.chk"
 Charge = -1 Multiplicity = 2

                         Standard orientation:
 ---------------------------------------------------------------------
 Center     Atomic      Atomic             Coordinates (Angstroms)
 Number     Number       Type             X           Y           Z
 ---------------------------------------------------------------------
      1          6           0       -0.386049   -0.076583    1.764650
      2          6           0        0.346355    0.133955    0.437917
      3          6           0        1.378216    1.276978    0.538140
      4          6           0        2.495270    1.022811   -0.476084
      5          6           0        2.922266   -0.437431   -0.301910
      6         16           0        1.372587   -1.384188    0.037185
      7          6           0       -0.620974    0.418356   -0.752474
      8          6           0       -1.621625   -0.715874   -1.053438
      9          6           0       -2.873319   -0.767911   -0.216285
     10          8           0       -3.298507    0.131556    0.486378
     11          8           0       -1.282278    1.666465   -0.604420
     12          1           0       -1.030340   -0.960534    1.749215
     13          1           0       -1.013597    0.791059    1.994496
     14          1           0        0.336482   -0.210074    2.574211
     15          1           0        0.873068    2.233352    0.375792
     16          1           0        1.801981    1.284624    1.549613
     17          1           0        3.343314    1.700299   -0.323518
     18          1           0        2.129831    1.184879   -1.496188
     19          1           0        3.600680   -0.553305    0.548773
     20          1           0        3.406716   -0.848695   -1.190991
     21          1           0        0.009516    0.525097   -1.640356
     22          1           0       -1.982383   -0.609688   -2.089314
     23          1           0       -1.130980   -1.695744   -1.021041
     24          1           0       -3.452334   -1.712217   -0.303214
     25          1           0       -2.047896    1.507988   -0.021205
 ---------------------------------------------------------------------

 SCF Done:  E(UB3LYP) =  -862.114188268     A.U. after   33 cycles
 SCF Done:  E(UB3LYP) =  -862.114188268     a.u. after    1 cycles

 The electronic state is 2-A.
 Alpha  occ. eigenvalues --  -88.71930 -18.99374 -18.97336 -10.10733 -10.10238
 Alpha  occ. eigenvalues --  -10.09711 -10.08521 -10.06346 -10.05750 -10.05477
 Alpha  occ. eigenvalues --  -10.04874  -7.80584  -5.76961  -5.76620  -5.75960
 Alpha  occ. eigenvalues --   -0.91507  -0.89505  -0.73894  -0.66492  -0.63348
 Alpha  occ. eigenvalues --   -0.60771  -0.56276  -0.52985  -0.47226  -0.44664
 Alpha  occ. eigenvalues --   -0.42866  -0.37215  -0.37076  -0.35638  -0.34595
 Alpha  occ. eigenvalues --   -0.33124  -0.31383  -0.30929  -0.29611  -0.28846
 Alpha  occ. eigenvalues --   -0.27992  -0.26417  -0.24617  -0.24047  -0.23389
 Alpha  occ. eigenvalues --   -0.22924  -0.21543  -0.20800  -0.18839  -0.15972
 Alpha  occ. eigenvalues --   -0.12312  -0.11013   0.05074
 Alpha virt. eigenvalues --    0.06783   0.08457   0.08838   0.09267   0.10189
 Alpha virt. eigenvalues --    0.10584   0.11485   0.12013   0.12418   0.12633
 Alpha virt. eigenvalues --    0.13369   0.14332   0.14638   0.15052   0.15814

  Beta  occ. eigenvalues --  -88.71929 -18.99371 -18.96964 -10.10714 -10.09822
  Beta  occ. eigenvalues --  -10.09712 -10.08493 -10.06317 -10.05735 -10.05512
  Beta  occ. eigenvalues --  -10.04862  -7.80583  -5.76961  -5.76617  -5.75960
  Beta  occ. eigenvalues --   -0.91087  -0.89185  -0.73870  -0.66407  -0.63175
  Beta  occ. eigenvalues --   -0.60729  -0.56173  -0.52776  -0.47139  -0.44041
  Beta  occ. eigenvalues --   -0.42799  -0.37155  -0.36945  -0.35469  -0.34478
  Beta  occ. eigenvalues --   -0.32936  -0.31052  -0.30794  -0.29317  -0.28597
  Beta  occ. eigenvalues --   -0.27888  -0.26068  -0.24465  -0.23523  -0.23248
  Beta  occ. eigenvalues --   -0.22598  -0.20969  -0.20737  -0.18820  -0.15919
  Beta  occ. eigenvalues --   -0.12038  -0.11002
  Beta virt. eigenvalues --    0.07726   0.08681   0.09032   0.09679   0.10450
  Beta virt. eigenvalues --    0.10975   0.11170   0.11664   0.11918   0.12595
  Beta virt. eigenvalues --    0.12950   0.13528   0.14413   0.14791   0.15107

 Mulliken charges and spin densities:
               1          2
     1  C   -0.427501  -0.271599
     2  C    0.112747   0.938366
     3  C    0.000753  -0.316554
     4  C   -0.266727  -0.006035
     5  C    0.730269  -1.427882
     6  S   -0.170086   0.020665
     7  C    0.257636  -0.836529
     8  C    0.141943  -0.456553
     9  C   -0.362126   0.442100
    10  O   -0.328921   0.107803
    11  O   -0.212649   0.017768
    12  H    0.086641   0.083608
    13  H    0.177825   0.003345
    14  H    0.060563   0.063190
    15  H    0.151585   0.041818
    16  H   -0.178822   0.343094
    17  H   -0.706067   0.878044
    18  H   -0.023846   0.172066
    19  H   -0.089350   0.276473
    20  H   -0.305173   0.497175
    21  H    0.015467   0.146326
    22  H   -0.056458   0.249471
    23  H    0.172211  -0.035321
    24  H   -0.005399   0.045879
    25  H    0.225486   0.023283
 Sum of Mulliken charges =  -1.00000   1.00000

 Dipole moment (field-independent basis, Debye):
    X=             -1.9451    Y=             -1.6787    Z=              0.6062  Tot=              2.6399
 Quadrupole moment (field-independent basis, Debye-Ang):
   XX=           -140.1256   YY=           -101.0461   ZZ=            -99.4351
   XY=             -2.1514   XZ=              2.6402   YZ=              2.1768

 Summary of Natural Population Analysis:

                                       Natural Population
                Natural  -----------------------------------------------
    Atom  No    Charge         Core      Valence    Rydberg      Total
 -----------------------------------------------------------------------
      C    1   -0.29215      0.99960     2.28505    0.00750     3.29215
      C    2   -0.08736      0.99953     2.07055    0.01727     3.08736
      C    3   -0.19799      0.99956     2.18693    0.01150     3.19799
      C    4   -0.19658      0.99962     2.18705    0.00991     3.19658
      C    5   -0.24019      0.99961     2.23077    0.00981     3.24019
      S    6    0.07019      4.99959     2.91510    0.01513     7.92981
      C    7    0.06100      0.99946     1.92055    0.01899     2.93900
      C    8   -0.26099      0.99959     2.25125    0.01015     3.26099
      C    9    0.27972      0.99974     1.70101    0.01952     2.72028
      O   10   -0.27647      0.99987     3.26968    0.00693     4.27647
      O   11   -0.38648      0.99989     3.37976    0.00683     4.38648
      H   12    0.10579      0.00000     0.39328    0.00093     0.39421
      H   13    0.10480      0.00000     0.39400    0.00120     0.39520
      H   14    0.09975      0.00000     0.39905    0.00119     0.40025
      H   15    0.11536      0.00000     0.38334    0.00129     0.38464
      H   16    0.09803      0.00000     0.40079    0.00118     0.40197
      H   17    0.10553      0.00000     0.39221    0.00227     0.39447
      H   18    0.09825      0.00000     0.40026    0.00149     0.40175
      H   19    0.09750      0.00000     0.40045    0.00206     0.40250
      H   20    0.10379      0.00000     0.39461    0.00160     0.39621
      H   21    0.09046      0.00000     0.40735    0.00219     0.40954
      H   22    0.11692      0.00000     0.38161    0.00147     0.38308
      H   23    0.11313      0.00000     0.38531    0.00156     0.38687
      H   24    0.03496      0.00000     0.46194    0.00310     0.46504
      H   25    0.24302      0.00000     0.25361    0.00337     0.25698
 =======================================================================
   * Total *   -0.00000     14.99606    31.84550    0.15843    47.00000

 Normal termination of Gaussian 16 at Tue Dec  8 19:37:22 2020.
