 Gaussian 16, Revision A.03,

 -----------------------------------------------------------
 # opt freq B3LYP/6-31G(d) empiricaldispersion=gd3bj scf=xqc
 -----------------------------------------------------------

 ------------------------------
 CID_16791117_JID_5468_neutraal
 ------------------------------
 Symbolic Z-matrix:
 Charge =  0 Multiplicity = 1

 SCF Done:  E(RB3LYP) =  -682.789461422     A.U. after   15 cycles
 SCF Done:  E(RB3LYP) =  -682.795299247     A.U. after   13 cycles
 SCF Done:  E(RB3LYP) =  -682.795777081     A.U. after   12 cycles
 SCF Done:  E(RB3LYP) =  -682.795815751     A.U. after   10 cycles
 SCF Done:  E(RB3LYP) =  -682.795817635     A.U. after    9 cycles
 SCF Done:  E(RB3LYP) =  -682.795819860     A.U. after    8 cycles
 Optimization completed.
    -- Stationary point found.
 Normal termination of Gaussian 16 at Thu Dec 10 16:06:03 2020.

 --------------------------------------------------------------------
 #N Geom=AllCheck Guess=TCheck SCRF=Check GenChk RB3LYP/6-31G(d) Freq
 --------------------------------------------------------------------

 Structure from the checkpoint file:  "JID_5468.chk"
 ------------------------------
 CID_16791117_JID_5468_neutraal
 ------------------------------
 Charge =  0 Multiplicity = 1

 SCF Done:  E(RB3LYP) =  -682.795819860     A.U. after    1 cycles

  Exact polarizability: 213.851  -9.376 143.733  -0.000  -0.001  43.781
 Approx polarizability: 362.202 -26.837 272.524  -0.000  -0.003  70.972

                      1                      2                      3
                      A                      A                      A
 Frequencies --     80.4055                93.8908               164.2972
 Red. masses --      7.8949                 9.0464                 5.5731
 Frc consts  --      0.0301                 0.0470                 0.0886
 IR Inten    --      0.0845                 1.3132                 0.2251

                      4                      5                      6
                      A                      A                      A
 Frequencies --    179.5577               218.6501               277.6598
 Red. masses --      7.1576                 5.8292                 5.3156
 Frc consts  --      0.1360                 0.1642                 0.2415
 IR Inten    --      2.4102                 3.7735                 0.0050

                      7                      8                      9
                      A                      A                      A
 Frequencies --    295.9063               367.2135               429.1380
 Red. masses --     13.8445                 9.5012                 4.5508
 Frc consts  --      0.7142                 0.7549                 0.4938
 IR Inten    --      2.6908                 4.2306                 0.2199

                     10                     11                     12
                      A                      A                      A
 Frequencies --    434.1430               443.0981               506.5356
 Red. masses --      6.9629                 3.6831                 5.8676
 Frc consts  --      0.7732                 0.4261                 0.8870
 IR Inten    --      2.5223                 0.0709                 8.3291

                     13                     14                     15
                      A                      A                      A
 Frequencies --    513.9985               539.6529               570.3005
 Red. masses --      2.3978                 1.6617                 8.6008
 Frc consts  --      0.3732                 0.2851                 1.6481
 IR Inten    --     13.9516               123.1546                 3.8137

                     16                     17                     18
                      A                      A                      A
 Frequencies --    590.5902               642.2930               655.4199
 Red. masses --      3.4009                 6.3306                 7.0283
 Frc consts  --      0.6989                 1.5387                 1.7789
 IR Inten    --      2.8818                 6.6674                10.6949

                     19                     20                     21
                      A                      A                      A
 Frequencies --    685.7961               695.0213               779.7500
 Red. masses --      5.1542                 6.9538                 1.5128
 Frc consts  --      1.4282                 1.9791                 0.5419
 IR Inten    --      9.6511                 6.0505                 1.8305

                     22                     23                     24
                      A                      A                      A
 Frequencies --    785.6375               804.8380               833.0858
 Red. masses --      6.7587                 2.6287                 7.9832
 Frc consts  --      2.4579                 1.0033                 3.2644
 IR Inten    --     14.3595                13.8340                 0.5879

                     25                     26                     27
                      A                      A                      A
 Frequencies --    853.6472               896.9281               920.0501
 Red. masses --      1.7616                 7.6591                 4.7879
 Frc consts  --      0.7563                 3.6303                 2.3879
 IR Inten    --     36.7300                 9.8371                 6.4082

                     28                     29                     30
                      A                      A                      A
 Frequencies --    967.0176               968.5420               991.9961
 Red. masses --      1.3602                 1.3241                 4.5980
 Frc consts  --      0.7494                 0.7318                 2.6659
 IR Inten    --      0.4773                 0.0079                 7.8076

                     31                     32                     33
                      A                      A                      A
 Frequencies --   1001.1367              1066.4893              1112.0047
 Red. masses --      1.3370                 2.3796                 2.3046
 Frc consts  --      0.7895                 1.5946                 1.6790
 IR Inten    --      0.6443                 0.3338                43.5090

                     34                     35                     36
                      A                      A                      A
 Frequencies --   1161.0540              1171.4939              1215.5445
 Red. masses --      3.1837                 1.3928                 1.7671
 Frc consts  --      2.5286                 1.1262                 1.5383
 IR Inten    --     88.3489                12.5748                 4.3984

                     37                     38                     39
                      A                      A                      A
 Frequencies --   1247.1673              1281.4653              1320.2211
 Red. masses --      2.2980                 2.2749                 2.7313
 Frc consts  --      2.1060                 2.2010                 2.8049
 IR Inten    --      1.5058                 7.2555                88.2851

                     40                     41                     42
                      A                      A                      A
 Frequencies --   1353.9476              1383.1159              1404.4668
 Red. masses --      2.4000                 3.1003                 5.9408
 Frc consts  --      2.5922                 3.4944                 6.9042
 IR Inten    --      6.7091                 7.3008                93.7798

                     43                     44                     45
                      A                      A                      A
 Frequencies --   1466.6342              1481.6228              1505.5721
 Red. masses --      2.4179                 2.3555                 3.5074
 Frc consts  --      3.0643                 3.0465                 4.6842
 IR Inten    --     41.5972                19.4179                81.0649

                     46                     47                     48
                      A                      A                      A
 Frequencies --   1578.1332              1624.8845              1657.7318
 Red. masses --      4.7955                 7.7875                 5.8629
 Frc consts  --      7.0367                12.1142                 9.4927
 IR Inten    --    161.7872                53.6312                55.7973

                     49                     50                     51
                      A                      A                      A
 Frequencies --   1671.8611              1832.0792              1864.9207
 Red. masses --      7.2372                13.0875                11.9380
 Frc consts  --     11.9185                25.8819                24.4625
 IR Inten    --    107.6650               429.9290               279.8395

                     52                     53                     54
                      A                      A                      A
 Frequencies --   3177.6870              3193.8160              3197.7199
 Red. masses --      1.0896                 1.0895                 1.0885
 Frc consts  --      6.4826                 6.5475                 6.5581
 IR Inten    --     22.0055                 3.5847                 8.5346

                     55                     56                     57
                      A                      A                      A
 Frequencies --   3218.9082              3220.6561              3637.5272
 Red. masses --      1.0961                 1.0944                 1.0792
 Frc consts  --      6.6915                 6.6886                 8.4131
 IR Inten    --     18.5625                 8.6661                62.7541

 - Thermochemistry -
 -------------------
 Temperature   298.150 Kelvin.  Pressure   1.00000 Atm.
 Atom     1 has atomic number  6 and mass  12.00000

 Molecular mass:   198.04293 amu.
 Principal axes and moments of inertia in atomic units:
                           1         2         3
     Eigenvalues --  1272.612954043.361575315.97452
           X            1.00000  -0.00078   0.00000
           Y            0.00078   1.00000  -0.00000
           Z           -0.00000   0.00000   1.00000
 This molecule is an asymmetric top.
 Rotational symmetry number  1.
 Warning -- assumption of classical behavior for rotation
           may cause significant error
 Rotational temperatures (Kelvin)      0.06806     0.02142     0.01629
 Rotational constants (GHZ):           1.41814     0.44635     0.33949
 Zero-point vibrational energy     396160.8 (Joules/Mol)
                                   94.68471 (Kcal/Mol)
 Warning -- explicit consideration of  16 degrees of freedom as
           vibrations may cause significant error
 Vibrational temperatures:    115.69   135.09   236.39   258.34   314.59
          (Kelvin)            399.49   425.74   528.34   617.43   624.63
                              637.52   728.79   739.53   776.44   820.54
                              849.73   924.12   943.00   986.71   999.98
                             1121.89  1130.36  1157.98  1198.62  1228.21
                             1290.48  1323.75  1391.32  1393.52  1427.26
                             1440.41  1534.44  1599.93  1670.50  1685.52
                             1748.90  1794.40  1843.74  1899.50  1948.03
                             1990.00  2020.71  2110.16  2131.72  2166.18
                             2270.58  2337.85  2385.11  2405.44  2635.95
                             2683.20  4571.98  4595.19  4600.81  4631.29
                             4633.81  5233.59

 Zero-point correction=                           0.150890 (Hartree/Particle)
 Thermal correction to Energy=                    0.161344
 Thermal correction to Enthalpy=                  0.162288
 Thermal correction to Gibbs Free Energy=         0.114473
 Sum of electronic and zero-point Energies=           -682.644930
 Sum of electronic and thermal Energies=              -682.634476
 Sum of electronic and thermal Enthalpies=            -682.633532
 Sum of electronic and thermal Free Energies=         -682.681347

                     E (Thermal)             CV                S
                      KCal/Mol        Cal/Mol-Kelvin    Cal/Mol-Kelvin
 Total                  101.245             42.123            100.636
 Electronic               0.000              0.000              0.000
 Translational            0.889              2.981             41.755
 Rotational               0.889              2.981             31.681
 Vibrational             99.467             36.162             27.199
 Vibration     1          0.600              1.962              3.881
 Vibration     2          0.603              1.954              3.577
 Vibration     3          0.623              1.886              2.500
 Vibration     4          0.629              1.867              2.333
 Vibration     5          0.646              1.813              1.970
 Vibration     6          0.679              1.715              1.548
 Vibration     7          0.690              1.681              1.440
 Vibration     8          0.740              1.540              1.091
 Vibration     9          0.790              1.407              0.861
 Vibration    10          0.795              1.396              0.845
 Vibration    11          0.803              1.376              0.817
 Vibration    12          0.862              1.236              0.642
 Vibration    13          0.869              1.219              0.624
 Vibration    14          0.895              1.162              0.566
 Vibration    15          0.926              1.095              0.504
 Vibration    16          0.948              1.052              0.466

 Optimization completed.
    -- Stationary point found.
 Normal termination of Gaussian 16 at Thu Dec 10 16:12:18 2020.

 ----------------------------------------------------------------------
 # B3LYP/6-311++G(d,p) empiricaldispersion=gd3bj scf=xqc pop=npa geom=c
 heck
 ----------------------------------------------------------------------

 --------------------------------------
 CID_16791117_JID_5468_Energie_neutraal
 --------------------------------------
 Structure from the checkpoint file:  "JID_5468.chk"
 Charge =  0 Multiplicity = 1

 SCF Done:  E(RB3LYP) =  -682.977436665     A.U. after   15 cycles
 Normal termination of Gaussian 16 at Thu Dec 10 16:14:33 2020.

 ----------------------------------------------------------------------
 # B3LYP/6-311++G(d,p) empiricaldispersion=gd3bj scf=xqc pop=npa geom=c
 heck
 ----------------------------------------------------------------------

 ------------------------------------
 CID_16791117_JID_5468_Energie_kation
 ------------------------------------
 Structure from the checkpoint file:  "JID_5468.chk"
 Charge =  1 Multiplicity = 2

 SCF Done:  E(UB3LYP) =  -682.670357081     A.U. after   24 cycles
 Normal termination of Gaussian 16 at Thu Dec 10 16:20:24 2020.
 Gaussian 16:  ES64L-G16RevA.03 25-Dec-2016

 ----------------------------------------------------------------------
 # B3LYP/6-311++G(d,p) empiricaldispersion=gd3bj scf=xqc pop=npa geom=c
 heck
 ----------------------------------------------------------------------

 -----------------------------------
 CID_16791117_JID_5468_Energie_anion
 -----------------------------------
 Structure from the checkpoint file:  "JID_5468.chk"
 Charge = -1 Multiplicity = 2

                         Standard orientation:
 ---------------------------------------------------------------------
 Center     Atomic      Atomic             Coordinates (Angstroms)
 Number     Number       Type             X           Y           Z
 ---------------------------------------------------------------------
      1          6           0        3.770986   -0.418361    0.000020
      2          6           0        3.152506    0.810182   -0.000002
      3          6           0        1.736267    0.881090   -0.000011
      4          6           0        1.044413   -0.373175   -0.000004
      5          6           0       -0.367648   -0.323205   -0.000026
      6          6           0       -1.054440    0.886884   -0.000011
      7          6           0       -0.362888    2.115949   -0.000016
      8          6           0        1.014559    2.110096   -0.000025
      9          6           0       -2.490051    0.569184    0.000097
     10          8           0       -3.459234    1.295184    0.000039
     11          6           0       -2.556253   -1.007976   -0.000128
     12          8           0       -3.540591   -1.707926    0.000040
     13          7           0       -1.228374   -1.414045   -0.000066
     14          7           0        1.659901   -1.586699    0.000015
     15          6           0        2.978005   -1.594439    0.000032
     16          1           0        4.853149   -0.501464    0.000024
     17          1           0        3.732125    1.729530   -0.000010
     18          1           0       -0.927253    3.043040    0.000008
     19          1           0        1.573237    3.041390   -0.000025
     20          1           0       -0.904784   -2.371805    0.000121
     21          1           0        3.458704   -2.570917    0.000056
 ---------------------------------------------------------------------

 SCF Done:  E(UB3LYP) =  -683.036998523     A.U. after   23 cycles

 The electronic state is 2-A.
 Alpha  occ. eigenvalues --  -18.95650 -18.94583 -14.21556 -14.18877 -10.12331
 Alpha  occ. eigenvalues --  -10.09397 -10.08704 -10.08568 -10.07739 -10.07223
 Alpha  occ. eigenvalues --  -10.07087 -10.06274 -10.06068 -10.05294 -10.03345
 Alpha  occ. eigenvalues --   -0.91086  -0.87939  -0.83764  -0.81451  -0.72381
 Alpha  occ. eigenvalues --   -0.68499  -0.64188  -0.61512  -0.56502  -0.52680
 Alpha  occ. eigenvalues --   -0.49238  -0.48322  -0.42542  -0.41588  -0.39900
 Alpha  occ. eigenvalues --   -0.37671  -0.35497  -0.34328  -0.32162  -0.31508
 Alpha  occ. eigenvalues --   -0.30801  -0.29413  -0.28904  -0.28273  -0.27729
 Alpha  occ. eigenvalues --   -0.26352  -0.23786  -0.23604  -0.22541  -0.20672
 Alpha  occ. eigenvalues --   -0.16617  -0.15377  -0.14907  -0.13822  -0.08926
 Alpha  occ. eigenvalues --   -0.08694   0.00061
 Alpha virt. eigenvalues --    0.06367   0.07313   0.08772   0.09890   0.10514
 Alpha virt. eigenvalues --    0.11258   0.12186   0.12754   0.13895   0.14547
 Alpha virt. eigenvalues --    0.14754   0.15806   0.16914   0.17936   0.18084

  Beta  occ. eigenvalues --  -18.95362 -18.93959 -14.21614 -14.18614 -10.12228
  Beta  occ. eigenvalues --  -10.09463 -10.08598 -10.08534 -10.07447 -10.07172
  Beta  occ. eigenvalues --  -10.07034 -10.06103 -10.06070 -10.05288 -10.03284
  Beta  occ. eigenvalues --   -0.90582  -0.86908  -0.83438  -0.81185  -0.72230
  Beta  occ. eigenvalues --   -0.68196  -0.63943  -0.61243  -0.55876  -0.52595
  Beta  occ. eigenvalues --   -0.48964  -0.48156  -0.42153  -0.41452  -0.39708
  Beta  occ. eigenvalues --   -0.37438  -0.35369  -0.34183  -0.31362  -0.31168
  Beta  occ. eigenvalues --   -0.30554  -0.29331  -0.28040  -0.27992  -0.27196
  Beta  occ. eigenvalues --   -0.26265  -0.23408  -0.22534  -0.20598  -0.19660
  Beta  occ. eigenvalues --   -0.15711  -0.14980  -0.14620  -0.13075  -0.08203
  Beta  occ. eigenvalues --   -0.07980
  Beta virt. eigenvalues --    0.05747   0.07300   0.07405   0.08758   0.09876
  Beta virt. eigenvalues --    0.11261   0.11944   0.12193   0.13104   0.13885
  Beta virt. eigenvalues --    0.14766   0.14771   0.15837   0.17025   0.17984

 Mulliken charges and spin densities:
               1          2
     1  C   -0.679840   0.144602
     2  C    0.563632   0.022992
     3  C    0.945006   0.030245
     4  C   -0.985089  -0.024643
     5  C   -0.531703   0.185577
     6  C    0.554838   0.047037
     7  C   -0.612764   0.004017
     8  C   -0.475522   0.005166
     9  C    0.199878   0.132502
    10  O   -0.417877   0.223806
    11  C    0.071756   0.087631
    12  O   -0.420552   0.104677
    13  N   -0.240530  -0.029032
    14  N   -0.029846   0.123951
    15  C    0.123372  -0.047536
    16  H    0.120134  -0.009905
    17  H    0.133719  -0.004176
    18  H    0.148370  -0.000263
    19  H    0.082651   0.000407
    20  H    0.300762   0.000542
    21  H    0.149606   0.002405
 Sum of Mulliken charges =  -1.00000   1.00000

 Dipole moment (field-independent basis, Debye):
    X=              9.0256    Y=              0.7206    Z=              0.0000  Tot=              9.0543
 Quadrupole moment (field-independent basis, Debye-Ang):
   XX=           -141.5598   YY=            -97.9425   ZZ=            -91.7206
   XY=              0.7464   XZ=              0.0006   YZ=             -0.0006

 Summary of Natural Population Analysis:

                                       Natural Population
                Natural  -----------------------------------------------
    Atom  No    Charge         Core      Valence    Rydberg      Total
 -----------------------------------------------------------------------
      C    1   -0.06380      0.99946     2.05581    0.00853     3.06380
      C    2   -0.08593      0.99946     2.06918    0.01728     3.08593
      C    3   -0.04558      0.99955     2.03177    0.01426     3.04558
      C    4    0.11335      0.99946     1.87459    0.01260     2.88665
      C    5    0.14361      0.99949     1.83872    0.01819     2.85639
      C    6   -0.08227      0.99944     2.07214    0.01070     3.08227
      C    7   -0.07475      0.99954     2.06629    0.00892     3.07475
      C    8   -0.12360      0.99956     2.11493    0.00911     3.12360
      C    9    0.24515      0.99959     1.73178    0.02348     2.75485
      O   10   -0.20435      0.99987     3.19729    0.00718     4.20435
      C   11    0.32372      0.99969     1.65056    0.02602     2.67628
      O   12   -0.27103      0.99987     3.26406    0.00710     4.27103
      N   13   -0.32174      0.99964     2.81044    0.01166     3.82174
      N   14   -0.20848      0.99970     2.69282    0.01595     3.70848
      C   15   -0.00049      0.99955     1.98031    0.02062     3.00049
      H   16    0.09058      0.00000     0.40850    0.00093     0.40942
      H   17    0.09175      0.00000     0.40584    0.00241     0.40825
      H   18    0.10102      0.00000     0.39713    0.00184     0.39898
      H   19    0.09121      0.00000     0.40684    0.00195     0.40879
      H   20    0.20210      0.00000     0.29598    0.00192     0.29790
      H   21    0.08083      0.00000     0.41739    0.00178     0.41917
 =======================================================================
   * Total *    0.00131     14.99387    35.78238    0.22245    50.99869

 Normal termination of Gaussian 16 at Thu Dec 10 16:29:43 2020.
