 Gaussian 16, Revision A.03,

 -----------------------------------------------------------
 # opt freq B3LYP/6-31G(d) empiricaldispersion=gd3bj scf=xqc
 -----------------------------------------------------------

 -------------------------------
 CID_114427463_JID_7721_neutraal
 -------------------------------
 Symbolic Z-matrix:
 Charge =  0 Multiplicity = 1

 SCF Done:  E(RB3LYP) =  -1201.69531305     A.U. after   15 cycles
 SCF Done:  E(RB3LYP) =  -1201.70294045     A.U. after   12 cycles
 SCF Done:  E(RB3LYP) =  -1201.70059957     A.U. after   13 cycles
 SCF Done:  E(RB3LYP) =  -1201.70331016     A.U. after   13 cycles
 SCF Done:  E(RB3LYP) =  -1201.70463791     A.U. after   13 cycles
 SCF Done:  E(RB3LYP) =  -1201.70485677     A.U. after   12 cycles
 SCF Done:  E(RB3LYP) =  -1201.70506825     A.U. after   12 cycles
 SCF Done:  E(RB3LYP) =  -1201.70528086     A.U. after   11 cycles
 SCF Done:  E(RB3LYP) =  -1201.70530706     A.U. after   11 cycles
 SCF Done:  E(RB3LYP) =  -1201.70537566     A.U. after   10 cycles
 SCF Done:  E(RB3LYP) =  -1201.70539915     A.U. after    9 cycles
 SCF Done:  E(RB3LYP) =  -1201.70539984     A.U. after    8 cycles
 SCF Done:  E(RB3LYP) =  -1201.70540047     A.U. after    8 cycles
 SCF Done:  E(RB3LYP) =  -1201.70540060     A.U. after    6 cycles
 SCF Done:  E(RB3LYP) =  -1201.70540078     A.U. after    7 cycles
 SCF Done:  E(RB3LYP) =  -1201.70540074     A.U. after    5 cycles
 Optimization completed.
    -- Stationary point found.
 Normal termination of Gaussian 16 at Fri Dec 11 13:22:32 2020.

 --------------------------------------------------------------------
 #N Geom=AllCheck Guess=TCheck SCRF=Check GenChk RB3LYP/6-31G(d) Freq
 --------------------------------------------------------------------

 Structure from the checkpoint file:  "JID_7721.chk"
 -------------------------------
 CID_114427463_JID_7721_neutraal
 -------------------------------
 Charge =  0 Multiplicity = 1

 SCF Done:  E(RB3LYP) =  -1201.70540074     A.U. after    1 cycles

  Exact polarizability: 163.811   5.091 132.905   0.226   2.611 127.903
 Approx polarizability: 200.698   5.254 202.266   0.946   9.113 212.164

                      1                      2                      3
                      A                      A                      A
 Frequencies --     19.8531                29.1050                51.6284
 Red. masses --      2.1846                 4.0627                 3.7288
 Frc consts  --      0.0005                 0.0020                 0.0059
 IR Inten    --      0.2182                 0.8666                 1.7675

                      4                      5                      6
                      A                      A                      A
 Frequencies --     96.9589                99.7934               117.1454
 Red. masses --      3.7277                 3.0498                 2.3445
 Frc consts  --      0.0206                 0.0179                 0.0190
 IR Inten    --      0.3877                 1.5444                 1.0000

                      7                      8                      9
                      A                      A                      A
 Frequencies --    130.8517               163.3471               174.2467
 Red. masses --      7.0961                 1.4189                 5.6160
 Frc consts  --      0.0716                 0.0223                 0.1005
 IR Inten    --      0.2656                 1.1052                 0.7910

                     10                     11                     12
                      A                      A                      A
 Frequencies --    193.6538               204.3632               209.5831
 Red. masses --      2.3195                 1.7032                 3.5234
 Frc consts  --      0.0512                 0.0419                 0.0912
 IR Inten    --      0.1465                 0.2110                 1.2328

                     13                     14                     15
                      A                      A                      A
 Frequencies --    245.7085               249.7505               262.7509
 Red. masses --      2.8027                 1.9913                 2.3856
 Frc consts  --      0.0997                 0.0732                 0.0970
 IR Inten    --      4.6106                 1.0409                 1.5603

                     16                     17                     18
                      A                      A                      A
 Frequencies --    286.7588               288.2516               305.8810
 Red. masses --      3.2945                 2.0574                 3.6117
 Frc consts  --      0.1596                 0.1007                 0.1991
 IR Inten    --      1.1848                 0.8138                 8.9782

                     19                     20                     21
                      A                      A                      A
 Frequencies --    348.1262               359.8968               386.6581
 Red. masses --      4.1706                 2.8480                 5.2152
 Frc consts  --      0.2978                 0.2173                 0.4594
 IR Inten    --      4.0801                 3.5635                 2.6980

                     22                     23                     24
                      A                      A                      A
 Frequencies --    390.8355               426.1531               437.6026
 Red. masses --      2.4934                 2.8186                 2.2709
 Frc consts  --      0.2244                 0.3016                 0.2562
 IR Inten    --      1.4175                 5.2164                 4.1340

                     25                     26                     27
                      A                      A                      A
 Frequencies --    488.3438               506.4182               536.0220
 Red. masses --      4.3954                 5.0191                 5.1498
 Frc consts  --      0.6176                 0.7584                 0.8718
 IR Inten    --      4.6074                 7.1845                13.5894

                     28                     29                     30
                      A                      A                      A
 Frequencies --    573.3932               586.0431               623.0777
 Red. masses --      6.6012                 1.3310                 3.8240
 Frc consts  --      1.2787                 0.2693                 0.8747
 IR Inten    --     65.5886                48.2595                30.3504

                     31                     32                     33
                      A                      A                      A
 Frequencies --    690.5201               708.4458               727.5009
 Red. masses --      4.9672                 3.8001                 3.2852
 Frc consts  --      1.3955                 1.1237                 1.0244
 IR Inten    --     30.0270                54.7585                28.6747

                     34                     35                     36
                      A                      A                      A
 Frequencies --    762.4868               772.7413               789.3876
 Red. masses --      2.9142                 2.8667                 1.4754
 Frc consts  --      0.9982                 1.0086                 0.5417
 IR Inten    --      2.6016               148.7538                37.5031

                     37                     38                     39
                      A                      A                      A
 Frequencies --    835.9653               892.1234               933.4934
 Red. masses --      2.0380                 3.3479                 2.3525
 Frc consts  --      0.8391                 1.5699                 1.2078
 IR Inten    --      3.4321                50.5554                 9.3065

                     40                     41                     42
                      A                      A                      A
 Frequencies --    952.6473               962.0272               970.1294
 Red. masses --      2.8749                 3.0427                 2.8172
 Frc consts  --      1.5372                 1.6591                 1.5622
 IR Inten    --    115.0240                39.8654                82.2833

                     43                     44                     45
                      A                      A                      A
 Frequencies --   1031.8187              1038.8697              1055.8551
 Red. masses --      2.5446                 1.7242                 1.8004
 Frc consts  --      1.5962                 1.0964                 1.1825
 IR Inten    --      0.7489                 4.4853                19.2855

                     46                     47                     48
                      A                      A                      A
 Frequencies --   1075.9224              1086.8587              1106.2835
 Red. masses --      1.9199                 1.4975                 2.4128
 Frc consts  --      1.3094                 1.0422                 1.7398
 IR Inten    --     11.2239                 9.8227                55.2798

                     49                     50                     51
                      A                      A                      A
 Frequencies --   1121.6287              1128.5932              1134.7005
 Red. masses --      3.1386                 4.5332                 1.2459
 Frc consts  --      2.3264                 3.4020                 0.9451
 IR Inten    --     41.3497               116.3967                 1.4740

                     52                     53                     54
                      A                      A                      A
 Frequencies --   1149.6050              1183.5372              1184.4858
 Red. masses --      2.1813                 1.4054                 1.7450
 Frc consts  --      1.6985                 1.1598                 1.4425
 IR Inten    --     32.6502                 1.8143                 4.8520

                     55                     56                     57
                      A                      A                      A
 Frequencies --   1201.1284              1243.2394              1252.5260
 Red. masses --      2.2397                 3.4580                 1.3886
 Frc consts  --      1.9038                 3.1491                 1.2835
 IR Inten    --    141.1880                20.6867                 4.4157

                     58                     59                     60
                      A                      A                      A
 Frequencies --   1284.4012              1296.2063              1300.5327
 Red. masses --      1.4588                 1.2521                 2.0362
 Frc consts  --      1.4179                 1.2395                 2.0292
 IR Inten    --     13.1401                 7.1893                27.8374

                     61                     62                     63
                      A                      A                      A
 Frequencies --   1321.3535              1331.0487              1338.2136
 Red. masses --      2.8620                 1.6190                 1.2178
 Frc consts  --      2.9441                 1.6899                 1.2850
 IR Inten    --    143.5768                23.6825                 1.7423

                     64                     65                     66
                      A                      A                      A
 Frequencies --   1375.3841              1382.3359              1390.1866
 Red. masses --      1.9683                 1.7219                 1.3589
 Frc consts  --      2.1938                 1.9386                 1.5473
 IR Inten    --     24.1455                13.2403                 5.8820

                     67                     68                     69
                      A                      A                      A
 Frequencies --   1398.9000              1404.8181              1418.2248
 Red. masses --      1.4983                 1.3155                 1.3208
 Frc consts  --      1.7275                 1.5296                 1.5652
 IR Inten    --      4.2019                 3.9381                 2.2644

                     70                     71                     72
                      A                      A                      A
 Frequencies --   1424.8048              1441.4276              1451.7214
 Red. masses --      1.3849                 1.3005                 1.2750
 Frc consts  --      1.6565                 1.5921                 1.5832
 IR Inten    --      2.2016                 1.5058                 6.5073

                     73                     74                     75
                      A                      A                      A
 Frequencies --   1466.2877              1489.6896              1502.9574
 Red. masses --      1.1460                 1.1495                 1.0886
 Frc consts  --      1.4517                 1.5030                 1.4488
 IR Inten    --      0.2708                 2.8513                 4.5162

                     76                     77                     78
                      A                      A                      A
 Frequencies --   1509.1255              1509.4850              1521.5374
 Red. masses --      1.0685                 1.0641                 1.0499
 Frc consts  --      1.4338                 1.4285                 1.4321
 IR Inten    --      2.9210                 1.0732                12.9849

                     79                     80                     81
                      A                      A                      A
 Frequencies --   1522.8433              1523.4641              1530.2268
 Red. masses --      1.0499                 1.0780                 1.0679
 Frc consts  --      1.4345                 1.4742                 1.4733
 IR Inten    --     11.8740                 7.4140                12.1287

                     82                     83                     84
                      A                      A                      A
 Frequencies --   1537.6719              1541.3644              1551.2085
 Red. masses --      1.0568                 1.0528                 1.0727
 Frc consts  --      1.4723                 1.4737                 1.5208
 IR Inten    --      7.2272                 9.5778                 8.0508

                     85                     86                     87
                      A                      A                      A
 Frequencies --   1840.4337              3015.9237              3030.6999
 Red. masses --      9.4289                 1.0741                 1.0684
 Frc consts  --     18.8170                 5.7559                 5.7821
 IR Inten    --    238.3428                 4.5244                49.6615

                     88                     89                     90
                      A                      A                      A
 Frequencies --   3037.3453              3047.9887              3049.3601
 Red. masses --      1.0460                 1.0636                 1.0417
 Frc consts  --      5.6856                 5.8215                 5.7072
 IR Inten    --     51.4571                45.3248                58.1831

                     91                     92                     93
                      A                      A                      A
 Frequencies --   3054.2066              3056.7946              3062.2935
 Red. masses --      1.0733                 1.0881                 1.0641
 Frc consts  --      5.8989                 5.9904                 5.8790
 IR Inten    --      8.2325                19.3741                37.4176

                     94                     95                     96
                      A                      A                      A
 Frequencies --   3063.7692              3089.9664              3095.1475
 Red. masses --      1.0487                 1.1018                 1.0872
 Frc consts  --      5.7997                 6.1983                 6.1368
 IR Inten    --     25.2129                39.8524                10.1108

                     97                     98                     99
                      A                      A                      A
 Frequencies --   3116.3445              3117.3132              3122.2918
 Red. masses --      1.0992                 1.0958                 1.0995
 Frc consts  --      6.2897                 6.2742                 6.3151
 IR Inten    --     38.9380                18.2867                23.2015

                    100                    101                    102
                      A                      A                      A
 Frequencies --   3122.9959              3142.3147              3155.7697
 Red. masses --      1.0961                 1.1006                 1.0955
 Frc consts  --      6.2983                 6.4028                 6.4280
 IR Inten    --     22.0463                38.6451                 3.1494

                    103                    104                    105
                      A                      A                      A
 Frequencies --   3179.2570              3202.6958              3693.0469
 Red. masses --      1.1007                 1.0978                 1.0641
 Frc consts  --      6.5548                 6.6344                 8.5504
 IR Inten    --      5.7335                 0.7120                47.9574

 - Thermochemistry -
 -------------------
 Temperature   298.150 Kelvin.  Pressure   1.00000 Atm.
 Atom     1 has atomic number  6 and mass  12.00000

 Molecular mass:   264.11438 amu.
 Principal axes and moments of inertia in atomic units:
                           1         2         3
     Eigenvalues --  2685.271195144.203645987.67153
           X            0.99978   0.01817  -0.01088
           Y           -0.01821   0.99983  -0.00286
           Z            0.01082   0.00305   0.99994
 This molecule is an asymmetric top.
 Rotational symmetry number  1.
 Warning -- assumption of classical behavior for rotation
           may cause significant error
 Rotational temperatures (Kelvin)      0.03226     0.01684     0.01447
 Rotational constants (GHZ):           0.67209     0.35083     0.30141
 Zero-point vibrational energy     830484.1 (Joules/Mol)
                                  198.49047 (Kcal/Mol)
 Warning -- explicit consideration of  29 degrees of freedom as
           vibrations may cause significant error
 Vibrational temperatures:     28.56    41.88    74.28   139.50   143.58
          (Kelvin)            168.55   188.27   235.02   250.70   278.62
                              294.03   301.54   353.52   359.34   378.04
                              412.58   414.73   440.09   500.88   517.81
                              556.31   562.33   613.14   629.61   702.62
                              728.62   771.22   824.98   843.19   896.47
                              993.50  1019.30  1046.71  1097.05  1111.80
                             1135.75  1202.77  1283.57  1343.09  1370.65
                             1384.14  1395.80  1484.56  1494.70  1519.14
                             1548.01  1563.75  1591.70  1613.77  1623.79
                             1632.58  1654.03  1702.85  1704.21  1728.16
                             1788.74  1802.11  1847.97  1864.95  1871.18
                             1901.13  1915.08  1925.39  1978.87  1988.87
                             2000.17  2012.71  2021.22  2040.51  2049.98
                             2073.89  2088.70  2109.66  2143.33  2162.42
                             2171.29  2171.81  2189.15  2191.03  2191.93
                             2201.66  2212.37  2217.68  2231.84  2647.97
                             4339.24  4360.50  4370.06  4385.38  4387.35
                             4394.32  4398.05  4405.96  4408.08  4445.77
                             4453.23  4483.72  4485.12  4492.28  4493.29
                             4521.09  4540.45  4574.24  4607.96  5313.47

 Zero-point correction=                           0.316315 (Hartree/Particle)
 Thermal correction to Energy=                    0.334705
 Thermal correction to Enthalpy=                  0.335650
 Thermal correction to Gibbs Free Energy=         0.269409
 Sum of electronic and zero-point Energies=          -1201.389086
 Sum of electronic and thermal Energies=             -1201.370695
 Sum of electronic and thermal Enthalpies=           -1201.369751
 Sum of electronic and thermal Free Energies=        -1201.435992

                     E (Thermal)             CV                S
                      KCal/Mol        Cal/Mol-Kelvin    Cal/Mol-Kelvin
 Total                  210.031             68.865            139.415
 Electronic               0.000              0.000              0.000
 Translational            0.889              2.981             42.613
 Rotational               0.889              2.981             32.781
 Vibrational            208.253             62.904             64.022
 Vibration     1          0.593              1.986              6.649
 Vibration     2          0.593              1.984              5.890
 Vibration     3          0.596              1.977              4.754
 Vibration     4          0.603              1.951              3.515
 Vibration     5          0.604              1.949              3.458
 Vibration     6          0.608              1.935              3.147
 Vibration     7          0.612              1.922              2.933
 Vibration     8          0.623              1.887              2.511
 Vibration     9          0.627              1.874              2.389
 Vibration    10          0.635              1.849              2.193
 Vibration    11          0.640              1.834              2.093
 Vibration    12          0.642              1.826              2.047
 Vibration    13          0.660              1.770              1.761
 Vibration    14          0.663              1.763              1.732
 Vibration    15          0.670              1.741              1.643
 Vibration    16          0.684              1.698              1.493
 Vibration    17          0.685              1.696              1.484
 Vibration    18          0.696              1.663              1.385
 Vibration    19          0.726              1.579              1.175
 Vibration    20          0.734              1.555              1.123
 Vibration    21          0.755              1.499              1.013
 Vibration    22          0.759              1.490              0.997
 Vibration    23          0.788              1.413              0.871
 Vibration    24          0.798              1.388              0.834
 Vibration    25          0.844              1.276              0.688
 Vibration    26          0.862              1.236              0.642
 Vibration    27          0.891              1.170              0.574
 Vibration    28          0.930              1.089              0.498
 Vibration    29          0.943              1.062              0.474

 Optimization completed.
    -- Stationary point found.
 Normal termination of Gaussian 16 at Fri Dec 11 13:38:19 2020.

 ----------------------------------------------------------------------
 # B3LYP/6-311++G(d,p) empiricaldispersion=gd3bj scf=xqc pop=npa geom=c
 heck
 ----------------------------------------------------------------------

 ---------------------------------------
 CID_114427463_JID_7721_Energie_neutraal
 ---------------------------------------
 Structure from the checkpoint file:  "JID_7721.chk"
 Charge =  0 Multiplicity = 1

 SCF Done:  E(RB3LYP) =  -1201.97149825     A.U. after   16 cycles
 Normal termination of Gaussian 16 at Fri Dec 11 13:45:49 2020.

 ----------------------------------------------------------------------
 # B3LYP/6-311++G(d,p) empiricaldispersion=gd3bj scf=xqc pop=npa geom=c
 heck
 ----------------------------------------------------------------------

 -------------------------------------
 CID_114427463_JID_7721_Energie_kation
 -------------------------------------
 Structure from the checkpoint file:  "JID_7721.chk"
 Charge =  1 Multiplicity = 2

 SCF Done:  E(UB3LYP) =  -1201.64244574     A.U. after   28 cycles
 Normal termination of Gaussian 16 at Fri Dec 11 14:03:56 2020.
 Gaussian 16:  ES64L-G16RevA.03 25-Dec-2016

 ----------------------------------------------------------------------
 # B3LYP/6-311++G(d,p) empiricaldispersion=gd3bj scf=xqc pop=npa geom=c
 heck
 ----------------------------------------------------------------------

 ------------------------------------
 CID_114427463_JID_7721_Energie_anion
 ------------------------------------
 Structure from the checkpoint file:  "JID_7721.chk"
 Charge = -1 Multiplicity = 2

                         Standard orientation:
 ---------------------------------------------------------------------
 Center     Atomic      Atomic             Coordinates (Angstroms)
 Number     Number       Type             X           Y           Z
 ---------------------------------------------------------------------
      1          6           0       -3.380090   -0.402866    1.728790
      2          6           0       -3.924593    0.126161    0.396660
      3          6           0       -2.963492    0.331632   -0.794930
      4          6           0       -2.375046   -0.946187   -1.414792
      5          6           0       -1.170863   -1.500673   -0.663311
      6          7           0       -0.104241   -0.470052   -0.529170
      7          6           0       -0.567915    0.761568    0.152720
      8          6           0       -1.818463    1.329224   -0.557144
      9          6           0        0.479600    1.875390    0.149430
     10          8           0        0.856199    2.455093    1.143440
     11          8           0        0.823927    2.272657   -1.101808
     12         16           0        1.244460   -1.179962    0.251975
     13          8           0        1.039445   -1.238244    1.702238
     14          8           0        1.542270   -2.402570   -0.495417
     15          7           0        2.375975    0.014669   -0.038827
     16          6           0        3.305348    0.326332    1.048611
     17          6           0        2.939340    0.009822   -1.389126
     18          1           0       -2.952550   -1.405587    1.640863
     19          1           0       -4.193075   -0.460811    2.461299
     20          1           0       -2.611840    0.251568    2.151608
     21          1           0       -4.727446   -0.542419    0.056194
     22          1           0       -4.406088    1.095154    0.588413
     23          1           0       -3.592742    0.787172   -1.571806
     24          1           0       -3.137026   -1.732919   -1.473892
     25          1           0       -2.060059   -0.724325   -2.442137
     26          1           0       -1.465205   -1.871436    0.326260
     27          1           0       -0.734909   -2.333575   -1.215048
     28          1           0       -0.772867    0.558058    1.207696
     29          1           0       -1.488198    1.710770   -1.527769
     30          1           0       -2.168715    2.188859    0.027095
     31          1           0        1.427981    3.027547   -0.975953
     32          1           0        2.760281    0.354089    1.989984
     33          1           0        4.128211   -0.398246    1.115093
     34          1           0        3.715353    1.321260    0.852480
     35          1           0        3.682947   -0.785625   -1.523898
     36          1           0        2.134643   -0.112812   -2.114170
     37          1           0        3.410133    0.982446   -1.557005
 ---------------------------------------------------------------------

 SCF Done:  E(UB3LYP) =  -1201.96447347     A.U. after   32 cycles

 The electronic state is 2-A.
 Alpha  occ. eigenvalues --  -88.98720 -19.06985 -19.03351 -19.03272 -19.02137
 Alpha  occ. eigenvalues --  -14.26396 -14.26204 -10.21499 -10.13588 -10.11703
 Alpha  occ. eigenvalues --  -10.11495 -10.11182 -10.08700 -10.08531 -10.08270
 Alpha  occ. eigenvalues --  -10.07769 -10.07213  -8.04749  -6.01002  -6.00984
 Alpha  occ. eigenvalues --   -6.00922  -1.04334  -1.01409  -0.92651  -0.92549
 Alpha  occ. eigenvalues --   -0.86325  -0.85058  -0.73234  -0.69500  -0.66515
 Alpha  occ. eigenvalues --   -0.63967  -0.62783  -0.59138  -0.56262  -0.53044
 Alpha  occ. eigenvalues --   -0.52032  -0.49140  -0.45944  -0.44963  -0.42966
 Alpha  occ. eigenvalues --   -0.40880  -0.40113  -0.39684  -0.38522  -0.37997
 Alpha  occ. eigenvalues --   -0.37397  -0.35791  -0.35570  -0.34677  -0.34069
 Alpha  occ. eigenvalues --   -0.33849  -0.32628  -0.31988  -0.31254  -0.30781
 Alpha  occ. eigenvalues --   -0.30337  -0.29839  -0.28906  -0.28191  -0.26677
 Alpha  occ. eigenvalues --   -0.25899  -0.25361  -0.24005  -0.23603  -0.23394
 Alpha  occ. eigenvalues --   -0.22517  -0.22249  -0.21936  -0.18731  -0.17760
 Alpha  occ. eigenvalues --   -0.16975   0.03798
 Alpha virt. eigenvalues --    0.05457   0.07110   0.07387   0.08016   0.08660
 Alpha virt. eigenvalues --    0.08681   0.08875   0.09824   0.10350   0.10728
 Alpha virt. eigenvalues --    0.11377   0.11506   0.11635   0.12271   0.13024

  Beta  occ. eigenvalues --  -88.98718 -19.06930 -19.03349 -19.03268 -19.02124
  Beta  occ. eigenvalues --  -14.26396 -14.26201 -10.21492 -10.13580 -10.11698
  Beta  occ. eigenvalues --  -10.11475 -10.11148 -10.08690 -10.08512 -10.08250
  Beta  occ. eigenvalues --  -10.07744 -10.07201  -8.04747  -6.00999  -6.00982
  Beta  occ. eigenvalues --   -6.00919  -1.04325  -1.01341  -0.92630  -0.92505
  Beta  occ. eigenvalues --   -0.86316  -0.85048  -0.73199  -0.69471  -0.66486
  Beta  occ. eigenvalues --   -0.63931  -0.62748  -0.59092  -0.56214  -0.52978
  Beta  occ. eigenvalues --   -0.51974  -0.49084  -0.45915  -0.44920  -0.42950
  Beta  occ. eigenvalues --   -0.40854  -0.40077  -0.39658  -0.38498  -0.37966
  Beta  occ. eigenvalues --   -0.37367  -0.35772  -0.35530  -0.34653  -0.34041
  Beta  occ. eigenvalues --   -0.33820  -0.32598  -0.31952  -0.31227  -0.30757
  Beta  occ. eigenvalues --   -0.30301  -0.29811  -0.28874  -0.28164  -0.26662
  Beta  occ. eigenvalues --   -0.25878  -0.25344  -0.23992  -0.23563  -0.23359
  Beta  occ. eigenvalues --   -0.22488  -0.22221  -0.21914  -0.18686  -0.17745
  Beta  occ. eigenvalues --   -0.16965
  Beta virt. eigenvalues --    0.06057   0.06627   0.07588   0.07866   0.08657
  Beta virt. eigenvalues --    0.08817   0.08995   0.09206   0.10099   0.10684
  Beta virt. eigenvalues --    0.11142   0.11549   0.11598   0.11928   0.12643

 Mulliken charges and spin densities:
               1          2
     1  C   -0.551787   0.070739
     2  C    1.172507  -1.797069
     3  C   -0.651509   1.435650
     4  C    0.315079  -1.072507
     5  C   -0.134806  -0.049935
     6  N    0.064581   0.068340
     7  C   -0.242173   0.703546
     8  C    0.115122  -0.940775
     9  C   -0.322892  -1.038842
    10  O   -0.146968   0.032021
    11  O   -0.082495   0.041990
    12  S    0.520375  -0.107305
    13  O   -0.185022  -0.002946
    14  O   -0.135385   0.011029
    15  N   -0.496364   0.174223
    16  C   -0.033079  -0.263413
    17  C    0.404945  -0.777665
    18  H    0.093996   0.035554
    19  H   -0.132624   0.300597
    20  H    0.049433   0.083042
    21  H   -0.263108   0.408287
    22  H   -0.067980   0.215593
    23  H   -0.649506   0.878921
    24  H   -0.134761   0.326050
    25  H    0.017282   0.146992
    26  H    0.261120  -0.094258
    27  H    0.204511   0.026098
    28  H    0.453984  -0.072112
    29  H    0.119079   0.115798
    30  H   -0.006128   0.193439
    31  H   -0.382491   0.681321
    32  H    0.172924   0.018302
    33  H    0.038573   0.119204
    34  H   -0.123838   0.301145
    35  H    0.015944   0.150110
    36  H    0.084244   0.133428
    37  H   -0.360781   0.545411
 Sum of Mulliken charges =  -1.00000   1.00000

 Dipole moment (field-independent basis, Debye):
    X=              1.4347    Y=             -3.8225    Z=              2.1315  Tot=              4.6058
 Quadrupole moment (field-independent basis, Debye-Ang):
   XX=           -183.9749   YY=           -163.5948   ZZ=           -150.5143
   XY=             -4.9892   XZ=             -0.1877   YZ=              5.8686

 Summary of Natural Population Analysis:

                                       Natural Population
                Natural  -----------------------------------------------
    Atom  No    Charge         Core      Valence    Rydberg      Total
 -----------------------------------------------------------------------
      C    1   -0.28762      0.99966     2.28257    0.00540     3.28762
      C    2   -0.18739      0.99961     2.17860    0.00918     3.18739
      C    3   -0.10911      0.99957     2.09758    0.01196     3.10911
      C    4   -0.19316      0.99960     2.18349    0.01007     3.19316
      C    5   -0.09478      0.99959     2.08443    0.01075     3.09478
      N    6   -0.35728      0.99972     2.84441    0.01315     3.85728
      C    7   -0.05626      0.99949     2.04236    0.01440     3.05626
      C    8   -0.19157      0.99958     2.18157    0.01041     3.19157
      C    9    0.40888      0.99967     1.56333    0.02812     2.59112
      O   10   -0.30556      0.99986     3.29977    0.00593     4.30556
      O   11   -0.34608      0.99987     3.33729    0.00891     4.34608
      S   12    1.17322      4.99921     1.72484    0.10273     6.82678
      O   13   -0.46025      0.99990     3.45547    0.00488     4.46025
      O   14   -0.45878      0.99990     3.45374    0.00513     4.45878
      N   15   -0.37088      0.99975     2.85610    0.01503     3.87088
      C   16   -0.17864      0.99963     2.17007    0.00895     3.17864
      C   17   -0.17852      0.99962     2.16929    0.00960     3.17852
      H   18    0.09473      0.00000     0.40431    0.00095     0.40527
      H   19    0.09911      0.00000     0.40011    0.00078     0.40089
      H   20    0.09666      0.00000     0.40234    0.00101     0.40334
      H   21    0.09683      0.00000     0.40179    0.00138     0.40317
      H   22    0.09729      0.00000     0.40145    0.00126     0.40271
      H   23    0.10597      0.00000     0.39136    0.00267     0.39403
      H   24    0.10388      0.00000     0.39521    0.00091     0.39612
      H   25    0.10374      0.00000     0.39504    0.00122     0.39626
      H   26    0.09058      0.00000     0.40803    0.00139     0.40942
      H   27    0.11265      0.00000     0.38628    0.00108     0.38735
      H   28    0.10871      0.00000     0.38926    0.00203     0.39129
      H   29    0.11302      0.00000     0.38501    0.00197     0.38698
      H   30    0.10724      0.00000     0.39169    0.00107     0.39276
      H   31    0.24640      0.00000     0.23792    0.01568     0.25360
      H   32    0.11640      0.00000     0.38273    0.00087     0.38360
      H   33    0.08807      0.00000     0.41098    0.00095     0.41193
      H   34    0.10388      0.00000     0.39502    0.00109     0.39612
      H   35    0.09228      0.00000     0.40676    0.00096     0.40772
      H   36    0.11207      0.00000     0.38658    0.00135     0.38793
      H   37    0.10429      0.00000     0.39376    0.00195     0.39571
 =======================================================================
   * Total *   -0.00000     20.99426    49.69055    0.31519    71.00000

 Normal termination of Gaussian 16 at Fri Dec 11 14:23:25 2020.
