 Gaussian 16, Revision A.03,

 -----------------------------------------------------------
 # opt freq B3LYP/6-31G(d) empiricaldispersion=gd3bj scf=xqc
 -----------------------------------------------------------

 --------------------------------
 CID_128909668_JID_10857_neutraal
 --------------------------------
 Symbolic Z-matrix:
 Charge =  0 Multiplicity = 1

 SCF Done:  E(RB3LYP) =  -937.389295316     A.U. after   15 cycles
 SCF Done:  E(RB3LYP) =  -937.398224774     A.U. after   13 cycles
 SCF Done:  E(RB3LYP) =  -937.396049142     A.U. after   13 cycles
 SCF Done:  E(RB3LYP) =  -937.399636553     A.U. after   12 cycles
 SCF Done:  E(RB3LYP) =  -937.400754105     A.U. after   12 cycles
 SCF Done:  E(RB3LYP) =  -937.401334395     A.U. after   12 cycles
 SCF Done:  E(RB3LYP) =  -937.402011104     A.U. after   12 cycles
 SCF Done:  E(RB3LYP) =  -937.402634916     A.U. after   13 cycles
 SCF Done:  E(RB3LYP) =  -937.402951497     A.U. after   12 cycles
 SCF Done:  E(RB3LYP) =  -937.402987961     A.U. after   12 cycles
 SCF Done:  E(RB3LYP) =  -937.404969982     A.U. after   10 cycles
 SCF Done:  E(RB3LYP) =  -937.404970656     A.U. after    9 cycles
 SCF Done:  E(RB3LYP) =  -937.404970667     A.U. after    7 cycles
 SCF Done:  E(RB3LYP) =  -937.404970670     A.U. after    7 cycles
 Optimization completed.
    -- Stationary point found.
 Normal termination of Gaussian 16 at Sun Dec 13 14:27:37 2020.

 --------------------------------------------------------------------
 #N Geom=AllCheck Guess=TCheck SCRF=Check GenChk RB3LYP/6-31G(d) Freq
 --------------------------------------------------------------------

 Structure from the checkpoint file:  "JID_10857.chk"
 --------------------------------
 CID_128909668_JID_10857_neutraal
 --------------------------------
 Charge =  0 Multiplicity = 1

 SCF Done:  E(RB3LYP) =  -937.404970670     A.U. after    1 cycles

  Exact polarizability: 194.012 -12.879 156.947   6.540   0.395 147.054
 Approx polarizability: 242.382 -22.574 233.235  27.092  -9.572 252.436

                      1                      2                      3
                      A                      A                      A
 Frequencies --     21.7866                41.5851                48.1554
 Red. masses --      5.4530                 3.5054                 4.2910
 Frc consts  --      0.0015                 0.0036                 0.0059
 IR Inten    --      0.4244                 0.0418                 0.2937

                      4                      5                      6
                      A                      A                      A
 Frequencies --     61.4801                73.6059                80.0179
 Red. masses --      6.6556                 3.7927                 6.0496
 Frc consts  --      0.0148                 0.0121                 0.0228
 IR Inten    --      0.1646                 0.4647                 6.0896

                      7                      8                      9
                      A                      A                      A
 Frequencies --    102.9360               128.2239               128.5786
 Red. masses --      3.4057                 3.0032                 1.3980
 Frc consts  --      0.0213                 0.0291                 0.0136
 IR Inten    --      5.4424                 1.2882                 0.0642

                     10                     11                     12
                      A                      A                      A
 Frequencies --    169.9149               184.6436               217.1042
 Red. masses --      3.7439                 2.4877                 3.4866
 Frc consts  --      0.0637                 0.0500                 0.0968
 IR Inten    --      6.8561                 1.5816                 1.2293

                     13                     14                     15
                      A                      A                      A
 Frequencies --    254.2537               262.4937               265.8233
 Red. masses --      2.8603                 2.3004                 2.9090
 Frc consts  --      0.1089                 0.0934                 0.1211
 IR Inten    --      0.4390                 0.2759                 0.3972

                     16                     17                     18
                      A                      A                      A
 Frequencies --    302.6979               322.3777               347.7574
 Red. masses --      3.6030                 3.3638                 2.8884
 Frc consts  --      0.1945                 0.2060                 0.2058
 IR Inten    --      1.9537                 0.5478                 7.9314

                     19                     20                     21
                      A                      A                      A
 Frequencies --    357.3589               361.6438               395.6867
 Red. masses --      2.4650                 3.1531                 5.0756
 Frc consts  --      0.1855                 0.2430                 0.4682
 IR Inten    --      2.5667                 6.2054                21.5013

                     22                     23                     24
                      A                      A                      A
 Frequencies --    408.5503               457.4350               477.5289
 Red. masses --      3.8050                 2.1568                 4.3693
 Frc consts  --      0.3742                 0.2659                 0.5870
 IR Inten    --      1.3066                 1.8622                 5.3265

                     25                     26                     27
                      A                      A                      A
 Frequencies --    494.4170               505.7966               548.3354
 Red. masses --      2.6423                 1.9339                 3.3155
 Frc consts  --      0.3806                 0.2915                 0.5873
 IR Inten    --      2.5917                 0.2877                 3.6920

                     28                     29                     30
                      A                      A                      A
 Frequencies --    550.1196               569.6153               590.8651
 Red. masses --      3.4273                 2.1929                 3.5230
 Frc consts  --      0.6111                 0.4192                 0.7247
 IR Inten    --     13.2256                 0.9054                26.3887

                     31                     32                     33
                      A                      A                      A
 Frequencies --    618.4863               653.2958               700.4435
 Red. masses --      3.4562                 4.7653                 1.7725
 Frc consts  --      0.7790                 1.1983                 0.5124
 IR Inten    --     18.1518                 4.3359                63.0893

                     34                     35                     36
                      A                      A                      A
 Frequencies --    727.1023               739.6357               767.3940
 Red. masses --      3.2108                 2.9046                 2.5632
 Frc consts  --      1.0001                 0.9362                 0.8893
 IR Inten    --     39.2134                21.3285                 9.3788

                     37                     38                     39
                      A                      A                      A
 Frequencies --    799.2228               819.6482               832.9351
 Red. masses --      2.4785                 1.9262                 4.0454
 Frc consts  --      0.9328                 0.7625                 1.6536
 IR Inten    --     38.3736                16.6141                25.4024

                     40                     41                     42
                      A                      A                      A
 Frequencies --    843.5516               860.7538               873.7456
 Red. masses --      2.0091                 2.2630                 1.6936
 Frc consts  --      0.8423                 0.9879                 0.7618
 IR Inten    --     14.0202                 4.5424                 1.9039

                     43                     44                     45
                      A                      A                      A
 Frequencies --    897.6984               911.2754               943.5318
 Red. masses --      2.2207                 2.4392                 2.5470
 Frc consts  --      1.0544                 1.1934                 1.3360
 IR Inten    --      2.2825                 2.2983                 0.8919

                     46                     47                     48
                      A                      A                      A
 Frequencies --    951.7840               975.2639               975.8804
 Red. masses --      2.2371                 2.2251                 2.1707
 Frc consts  --      1.1940                 1.2469                 1.2180
 IR Inten    --      3.0179                 1.7734                 2.5163

                     49                     50                     51
                      A                      A                      A
 Frequencies --   1004.2311              1027.3144              1034.0799
 Red. masses --      1.9226                 1.8946                 2.0155
 Frc consts  --      1.1424                 1.1781                 1.2698
 IR Inten    --      7.3672                11.7951                 1.4619

                     52                     53                     54
                      A                      A                      A
 Frequencies --   1041.8923              1072.4594              1088.3850
 Red. masses --      1.8841                 1.7760                 1.9728
 Frc consts  --      1.2050                 1.2035                 1.3769
 IR Inten    --      2.4724                41.1314                22.0965

                     55                     56                     57
                      A                      A                      A
 Frequencies --   1098.7071              1120.1393              1132.8883
 Red. masses --      1.8072                 3.6917                 2.0632
 Frc consts  --      1.2854                 2.7291                 1.5601
 IR Inten    --      1.7272                15.3565                10.4859

                     58                     59                     60
                      A                      A                      A
 Frequencies --   1137.1151              1153.1009              1166.7908
 Red. masses --      2.9293                 2.0313                 1.7465
 Frc consts  --      2.2316                 1.5913                 1.4009
 IR Inten    --     30.1226                69.4339                 3.3651

                     61                     62                     63
                      A                      A                      A
 Frequencies --   1167.7976              1213.7286              1231.4866
 Red. masses --      1.5696                 2.0283                 1.4329
 Frc consts  --      1.2612                 1.7605                 1.2804
 IR Inten    --      9.2480                28.4421                 5.5343

                     64                     65                     66
                      A                      A                      A
 Frequencies --   1236.3205              1239.2096              1250.4242
 Red. masses --      1.2679                 1.4206                 1.2616
 Frc consts  --      1.1418                 1.2853                 1.1622
 IR Inten    --      1.4697                15.7547                 9.1389

                     67                     68                     69
                      A                      A                      A
 Frequencies --   1267.1171              1316.8605              1326.8754
 Red. masses --      1.2131                 1.3216                 1.5540
 Frc consts  --      1.1475                 1.3503                 1.6119
 IR Inten    --      1.8680                54.3733                74.2332

                     70                     71                     72
                      A                      A                      A
 Frequencies --   1330.3451              1346.9963              1350.4902
 Red. masses --      1.1552                 2.4010                 1.3061
 Frc consts  --      1.2046                 2.5667                 1.4035
 IR Inten    --      7.9707               173.9369                22.1379

                     73                     74                     75
                      A                      A                      A
 Frequencies --   1358.2159              1374.5295              1380.9467
 Red. masses --      1.2517                 1.3913                 1.3755
 Frc consts  --      1.3604                 1.5487                 1.5455
 IR Inten    --      3.9390                 2.4693                 4.2467

                     76                     77                     78
                      A                      A                      A
 Frequencies --   1384.8135              1389.5125              1397.0142
 Red. masses --      1.6064                 3.7258                 1.5172
 Frc consts  --      1.8151                 4.2383                 1.7446
 IR Inten    --     27.0223                70.3812                61.9735

                     79                     80                     81
                      A                      A                      A
 Frequencies --   1399.1289              1412.5085              1415.2593
 Red. masses --      1.4821                 1.4726                 1.4091
 Frc consts  --      1.7094                 1.7311                 1.6629
 IR Inten    --     20.7752                 4.0302                 6.9606

                     82                     83                     84
                      A                      A                      A
 Frequencies --   1420.6363              1426.5676              1445.6178
 Red. masses --      1.3668                 1.4714                 2.7199
 Frc consts  --      1.6253                 1.7643                 3.3490
 IR Inten    --      2.8958                 1.3675               247.0124

                     85                     86                     87
                      A                      A                      A
 Frequencies --   1465.2264              1486.5147              1490.7420
 Red. masses --      1.3180                 1.4236                 1.2535
 Frc consts  --      1.6672                 1.8534                 1.6413
 IR Inten    --     59.7076                17.2214                12.4286

                     88                     89                     90
                      A                      A                      A
 Frequencies --   1500.8815              1511.8471              1516.3632
 Red. masses --      1.0994                 1.0826                 1.0928
 Frc consts  --      1.4592                 1.4579                 1.4804
 IR Inten    --     13.5612                 1.3401                 2.7437

                     91                     92                     93
                      A                      A                      A
 Frequencies --   1518.1314              1520.2773              1526.8157
 Red. masses --      1.0922                 1.0984                 1.0486
 Frc consts  --      1.4831                 1.4958                 1.4402
 IR Inten    --      3.2620                 0.9106                 7.1492

                     94                     95                     96
                      A                      A                      A
 Frequencies --   1528.5519              1530.0047              1533.6196
 Red. masses --      1.0628                 1.1076                 1.0816
 Frc consts  --      1.4631                 1.5277                 1.4989
 IR Inten    --     13.1981                 4.4946                18.7203

                     97                     98                     99
                      A                      A                      A
 Frequencies --   1535.5700              1768.7018              1792.1726
 Red. masses --      1.0869                11.0256                 6.4516
 Frc consts  --      1.5100                20.3217                12.2089
 IR Inten    --      1.6565               269.1881               585.2406

                    100                    101                    102
                      A                      A                      A
 Frequencies --   1819.0169              3015.1056              3019.8358
 Red. masses --     11.2161                 1.0715                 1.0663
 Frc consts  --     21.8658                 5.7392                 5.7292
 IR Inten    --     77.4514                 4.4868                24.6681

                    103                    104                    105
                      A                      A                      A
 Frequencies --   3020.3698              3028.1789              3035.4278
 Red. masses --      1.0660                 1.0661                 1.0634
 Frc consts  --      5.7297                 5.7596                 5.7730
 IR Inten    --     12.3232                27.9340                 8.6638

                    106                    107                    108
                      A                      A                      A
 Frequencies --   3042.3390              3054.3621              3061.8163
 Red. masses --      1.0653                 1.0611                 1.0942
 Frc consts  --      5.8097                 5.8326                 6.0438
 IR Inten    --     22.6540                24.3696                58.8639

                    109                    110                    111
                      A                      A                      A
 Frequencies --   3065.7122              3067.2809              3072.1674
 Red. masses --      1.0698                 1.0987                 1.0996
 Frc consts  --      5.9238                 6.0901                 6.1148
 IR Inten    --      5.2295                55.1820                42.5692

                    112                    113                    114
                      A                      A                      A
 Frequencies --   3076.3897              3085.4304              3091.3129
 Red. masses --      1.1011                 1.0975                 1.0406
 Frc consts  --      6.1401                 6.1556                 5.8590
 IR Inten    --    101.0749                27.7910                23.6611

                    115                    116                    117
                      A                      A                      A
 Frequencies --   3092.1662              3093.8595              3108.5942
 Red. masses --      1.0807                 1.1012                 1.0900
 Frc consts  --      6.0880                 6.2105                 6.2058
 IR Inten    --     20.6359                23.8793                13.5956

                    118                    119                    120
                      A                      A                      A
 Frequencies --   3134.2254              3134.7479              3157.3937
 Red. masses --      1.0872                 1.0954                 1.1058
 Frc consts  --      6.2922                 6.3421                 6.4952
 IR Inten    --     13.8863                 5.5341                11.7024

                    121                    122                    123
                      A                      A                      A
 Frequencies --   3216.3848              3551.7996              3566.9121
 Red. masses --      1.1026                 1.0741                 1.0747
 Frc consts  --      6.7208                 7.9838                 8.0559
 IR Inten    --      0.5336                12.2716                13.1098

 - Thermochemistry -
 -------------------
 Temperature   298.150 Kelvin.  Pressure   1.00000 Atm.
 Atom     1 has atomic number  6 and mass  12.00000

 Molecular mass:   281.17394 amu.
 Principal axes and moments of inertia in atomic units:
                           1         2         3
     Eigenvalues --  2670.239188688.744789514.54983
           X            0.99995  -0.00640  -0.00800
           Y            0.00680   0.99869   0.05070
           Z            0.00767  -0.05075   0.99868
 This molecule is an asymmetric top.
 Rotational symmetry number  1.
 Warning -- assumption of classical behavior for rotation
           may cause significant error
 Rotational temperatures (Kelvin)      0.03244     0.00997     0.00910
 Rotational constants (GHZ):           0.67587     0.20771     0.18968
 Zero-point vibrational energy     990616.8 (Joules/Mol)
                                  236.76309 (Kcal/Mol)
 Warning -- explicit consideration of  31 degrees of freedom as
           vibrations may cause significant error
 Vibrational temperatures:     31.35    59.83    69.28    88.46   105.90
          (Kelvin)            115.13   148.10   184.49   185.00   244.47
                              265.66   312.36   365.81   377.67   382.46
                              435.51   463.83   500.35   514.16   520.32
                              569.30   587.81   658.15   687.06   711.36
                              727.73   788.93   791.50   819.55   850.12
                              889.86   939.95  1007.78  1046.14  1064.17
                             1104.11  1149.90  1179.29  1198.41  1213.68
                             1238.43  1257.13  1291.59  1311.12  1357.53
                             1369.40  1403.19  1404.07  1444.86  1478.08
                             1487.81  1499.05  1543.03  1565.94  1580.79
                             1611.63  1629.97  1636.06  1659.06  1678.75
                             1680.20  1746.28  1771.83  1778.79  1782.95
                             1799.08  1823.10  1894.67  1909.08  1914.07
                             1938.03  1943.05  1954.17  1977.64  1986.87
                             1992.44  1999.20  2009.99  2013.03  2032.28
                             2036.24  2043.98  2052.51  2079.92  2108.13
                             2138.76  2144.85  2159.43  2175.21  2181.71
                             2184.25  2187.34  2196.75  2199.25  2201.34
                             2206.54  2209.34  2544.77  2578.54  2617.16
                             4338.06  4344.87  4345.64  4356.87  4367.30
                             4377.25  4394.55  4405.27  4410.88  4413.13
                             4420.16  4426.24  4439.25  4447.71  4448.94
                             4451.37  4472.57  4509.45  4510.20  4542.79
                             4627.66  5110.25  5131.99

 Zero-point correction=                           0.377306 (Hartree/Particle)
 Thermal correction to Energy=                    0.396489
 Thermal correction to Enthalpy=                  0.397433
 Thermal correction to Gibbs Free Energy=         0.328750
 Sum of electronic and zero-point Energies=           -937.027665
 Sum of electronic and thermal Energies=              -937.008482
 Sum of electronic and thermal Enthalpies=            -937.007538
 Sum of electronic and thermal Free Energies=         -937.076221

                     E (Thermal)             CV                S
                      KCal/Mol        Cal/Mol-Kelvin    Cal/Mol-Kelvin
 Total                  248.801             73.848            144.556
 Electronic               0.000              0.000              0.000
 Translational            0.889              2.981             42.800
 Rotational               0.889              2.981             33.756
 Vibrational            247.023             67.887             68.000
 Vibration     1          0.593              1.985              6.464
 Vibration     2          0.594              1.981              5.182
 Vibration     3          0.595              1.978              4.892
 Vibration     4          0.597              1.973              4.409
 Vibration     5          0.599              1.966              4.055
 Vibration     6          0.600              1.963              3.890
 Vibration     7          0.605              1.947              3.398
 Vibration     8          0.611              1.925              2.973
 Vibration     9          0.611              1.925              2.967
 Vibration    10          0.625              1.880              2.436
 Vibration    11          0.631              1.861              2.281
 Vibration    12          0.646              1.815              1.983
 Vibration    13          0.665              1.756              1.701
 Vibration    14          0.670              1.742              1.645
 Vibration    15          0.672              1.736              1.623
 Vibration    16          0.694              1.669              1.402
 Vibration    17          0.707              1.631              1.298
 Vibration    18          0.725              1.580              1.176
 Vibration    19          0.733              1.560              1.134
 Vibration    20          0.736              1.551              1.115
 Vibration    21          0.762              1.479              0.979
 Vibration    22          0.773              1.452              0.932
 Vibration    23          0.816              1.344              0.774
 Vibration    24          0.834              1.300              0.717
 Vibration    25          0.850              1.262              0.672
 Vibration    26          0.861              1.237              0.644
 Vibration    27          0.904              1.143              0.548
 Vibration    28          0.905              1.139              0.544
 Vibration    29          0.926              1.097              0.505
 Vibration    30          0.948              1.051              0.466
 Vibration    31          0.978              0.993              0.419

 Optimization completed.
    -- Stationary point found.
 Normal termination of Gaussian 16 at Sun Dec 13 14:53:00 2020.

 ----------------------------------------------------------------------
 # B3LYP/6-311++G(d,p) empiricaldispersion=gd3bj scf=xqc pop=npa geom=c
 heck
 ----------------------------------------------------------------------

 ----------------------------------------
 CID_128909668_JID_10857_Energie_neutraal
 ----------------------------------------
 Structure from the checkpoint file:  "JID_10857.chk"
 Charge =  0 Multiplicity = 1

 SCF Done:  E(RB3LYP) =  -937.674065841     A.U. after   15 cycles
 Normal termination of Gaussian 16 at Sun Dec 13 15:04:32 2020.

 ----------------------------------------------------------------------
 # B3LYP/6-311++G(d,p) empiricaldispersion=gd3bj scf=xqc pop=npa geom=c
 heck
 ----------------------------------------------------------------------

 --------------------------------------
 CID_128909668_JID_10857_Energie_kation
 --------------------------------------
 Structure from the checkpoint file:  "JID_10857.chk"
 Charge =  1 Multiplicity = 2

 SCF Done:  E(UB3LYP) =  -937.348170487     A.U. after   33 cycles
 SCF Done:  E(UB3LYP) =  -937.348765829     a.u. after    4 cycles
 Normal termination of Gaussian 16 at Sun Dec 13 17:29:47 2020.
 Gaussian 16:  ES64L-G16RevA.03 25-Dec-2016

 ----------------------------------------------------------------------
 # B3LYP/6-311++G(d,p) empiricaldispersion=gd3bj scf=xqc pop=npa geom=c
 heck
 ----------------------------------------------------------------------

 -------------------------------------
 CID_128909668_JID_10857_Energie_anion
 -------------------------------------
 Structure from the checkpoint file:  "JID_10857.chk"
 Charge = -1 Multiplicity = 2

                         Standard orientation:
 ---------------------------------------------------------------------
 Center     Atomic      Atomic             Coordinates (Angstroms)
 Number     Number       Type             X           Y           Z
 ---------------------------------------------------------------------
      1          6           0        1.970719    2.423328    0.844478
      2          7           0        2.300501    1.150224    0.197144
      3          6           0        3.368907    0.389021    0.710192
      4          8           0        3.983455    0.756283    1.692642
      5          6           0        3.711447   -0.896520   -0.018334
      6          6           0        3.213219   -0.936109   -1.462725
      7          6           0        1.718859   -0.589270   -1.495009
      8          6           0        1.538987    0.816124   -0.919320
      9          8           0        0.784416    1.627144   -1.428690
     10          7           0        0.953941   -1.623313   -0.762009
     11          6           0        0.428113   -1.439768    0.529803
     12          8           0        0.772480   -2.158016    1.462653
     13          7           0       -0.483983   -0.418396    0.663697
     14          6           0       -1.529105   -0.111485   -0.335712
     15          6           0       -2.544073   -1.263255   -0.470142
     16          6           0       -3.639165   -1.331575    0.606634
     17          6           0       -4.873803   -0.482708    0.265967
     18          6           0       -4.671647    1.037939    0.289217
     19          6           0       -3.501527    1.581549   -0.547627
     20          6           0       -2.119811    1.257739    0.042191
     21          1           0        0.918549    2.408232    1.137225
     22          1           0        2.131502    3.250486    0.149760
     23          1           0        2.611715    2.523892    1.716869
     24          1           0        3.263605   -1.707620    0.569890
     25          1           0        4.795479   -1.015420    0.048274
     26          1           0        3.376610   -1.927299   -1.902473
     27          1           0        3.763733   -0.218921   -2.083795
     28          1           0        1.353245   -0.526812   -2.523803
     29          1           0        1.468714   -2.497909   -0.744847
     30          1           0       -0.808391   -0.376036    1.624221
     31          1           0       -1.024806   -0.003068   -1.296466
     32          1           0       -3.026501   -1.185500   -1.453468
     33          1           0       -1.971833   -2.197745   -0.494423
     34          1           0       -3.235306   -1.040410    1.587307
     35          1           0       -3.960847   -2.374113    0.717028
     36          1           0       -5.686365   -0.732435    0.960857
     37          1           0       -5.224528   -0.782236   -0.732509
     38          1           0       -4.524468    1.364476    1.329289
     39          1           0       -5.603028    1.512061   -0.047377
     40          1           0       -3.601884    2.672468   -0.600004
     41          1           0       -3.571625    1.224298   -1.584228
     42          1           0       -2.198157    1.322801    1.137526
     43          1           0       -1.388159    2.013868   -0.257194
 ---------------------------------------------------------------------

 SCF Done:  E(UB3LYP) =  -937.669878477     A.U. after   33 cycles
 SCF Done:  E(UB3LYP) =  -937.669878477     a.u. after    1 cycles

 The electronic state is 2-A.
 Alpha  occ. eigenvalues --  -18.98844 -18.98211 -18.98165 -14.25099 -14.22836
 Alpha  occ. eigenvalues --  -14.22520 -10.19430 -10.15996 -10.15351 -10.12023
 Alpha  occ. eigenvalues --  -10.10921 -10.09439 -10.08598 -10.07893 -10.07655
 Alpha  occ. eigenvalues --  -10.07634 -10.07536 -10.07508 -10.07017 -10.06980
 Alpha  occ. eigenvalues --   -0.95256  -0.94593  -0.92868  -0.83467  -0.82490
 Alpha  occ. eigenvalues --   -0.80833  -0.72965  -0.70513  -0.67129  -0.66295
 Alpha  occ. eigenvalues --   -0.62388  -0.61043  -0.56540  -0.55997  -0.52943
 Alpha  occ. eigenvalues --   -0.52579  -0.50717  -0.47399  -0.46849  -0.43497
 Alpha  occ. eigenvalues --   -0.40289  -0.39988  -0.39796  -0.37908  -0.37663
 Alpha  occ. eigenvalues --   -0.37052  -0.36221  -0.35905  -0.34745  -0.34217
 Alpha  occ. eigenvalues --   -0.33410  -0.33274  -0.32028  -0.31532  -0.31189
 Alpha  occ. eigenvalues --   -0.30640  -0.29987  -0.29521  -0.29127  -0.28567
 Alpha  occ. eigenvalues --   -0.28208  -0.26602  -0.26136  -0.25548  -0.24759
 Alpha  occ. eigenvalues --   -0.24547  -0.23815  -0.23293  -0.22016  -0.21966
 Alpha  occ. eigenvalues --   -0.18639  -0.16658  -0.16322  -0.15658  -0.14914
 Alpha  occ. eigenvalues --   -0.14640   0.04163
 Alpha virt. eigenvalues --    0.05553   0.06483   0.07301   0.07327   0.08117
 Alpha virt. eigenvalues --    0.08514   0.08984   0.09752   0.09947   0.10590
 Alpha virt. eigenvalues --    0.10708   0.10850   0.11257   0.11994   0.12164

  Beta  occ. eigenvalues --  -18.98827 -18.97967 -18.97961 -14.25199 -14.22831
  Beta  occ. eigenvalues --  -14.22464 -10.19428 -10.15785 -10.15049 -10.12033
  Beta  occ. eigenvalues --  -10.10921 -10.09432 -10.08567 -10.07908 -10.07646
  Beta  occ. eigenvalues --  -10.07625 -10.07522 -10.07497 -10.07014 -10.06970
  Beta  occ. eigenvalues --   -0.95158  -0.94292  -0.92435  -0.83394  -0.82415
  Beta  occ. eigenvalues --   -0.80783  -0.72945  -0.70438  -0.67112  -0.66272
  Beta  occ. eigenvalues --   -0.62162  -0.60937  -0.56510  -0.55973  -0.52631
  Beta  occ. eigenvalues --   -0.52432  -0.50639  -0.47351  -0.46823  -0.43367
  Beta  occ. eigenvalues --   -0.40190  -0.39825  -0.39754  -0.37783  -0.37620
  Beta  occ. eigenvalues --   -0.36848  -0.36070  -0.35783  -0.34714  -0.33974
  Beta  occ. eigenvalues --   -0.33355  -0.33220  -0.31915  -0.31508  -0.30990
  Beta  occ. eigenvalues --   -0.30572  -0.29892  -0.29456  -0.28937  -0.28426
  Beta  occ. eigenvalues --   -0.27902  -0.26240  -0.25730  -0.25517  -0.24524
  Beta  occ. eigenvalues --   -0.24086  -0.23790  -0.23267  -0.21982  -0.21922
  Beta  occ. eigenvalues --   -0.18553  -0.16440  -0.15876  -0.15607  -0.14841
  Beta  occ. eigenvalues --   -0.14483
  Beta virt. eigenvalues --    0.05996   0.06800   0.07351   0.07543   0.08191
  Beta virt. eigenvalues --    0.08712   0.08996   0.09235   0.09934   0.10040
  Beta virt. eigenvalues --    0.10732   0.10788   0.10822   0.11497   0.12151

 Mulliken charges and spin densities:
               1          2
     1  C   -0.017849  -0.122193
     2  N    0.075674   0.003420
     3  C   -0.052516   0.221460
     4  O   -0.338961   0.063916
     5  C   -0.160678  -0.145961
     6  C    0.080399  -0.830950
     7  C   -0.720882   1.106234
     8  C    0.054335  -0.682333
     9  O   -0.253272   0.101130
    10  N    0.075679  -0.126272
    11  C    0.302947  -0.582030
    12  O   -0.267594   0.032188
    13  N   -0.088022   0.033410
    14  C   -0.357405  -0.025118
    15  C    0.010068  -0.093069
    16  C   -0.586077   0.417135
    17  C    0.694770  -1.231305
    18  C   -0.398329  -0.010621
    19  C   -0.364199   0.137485
    20  C    0.069893  -0.308654
    21  H    0.102950   0.076514
    22  H    0.126118   0.029886
    23  H    0.191849  -0.008200
    24  H    0.164051   0.091445
    25  H    0.195702   0.008313
    26  H   -0.257486   0.434539
    27  H    0.084219   0.063439
    28  H   -0.307123   0.558481
    29  H    0.092591   0.228582
    30  H    0.307737   0.009470
    31  H    0.372199  -0.107326
    32  H   -0.081219   0.213467
    33  H    0.056479   0.155964
    34  H    0.076791   0.039278
    35  H   -0.058582   0.224958
    36  H   -0.245773   0.398722
    37  H    0.055962   0.086310
    38  H    0.064625   0.071450
    39  H   -0.155925   0.312715
    40  H    0.040473   0.128538
    41  H    0.059721   0.081960
    42  H    0.033266   0.049261
    43  H    0.323391  -0.105638
 Sum of Mulliken charges =  -1.00000   1.00000

 Dipole moment (field-independent basis, Debye):
    X=             -0.2572    Y=              1.9883    Z=             -0.7877  Tot=              2.1540
 Quadrupole moment (field-independent basis, Debye-Ang):
   XX=           -203.6173   YY=           -158.4026   ZZ=           -157.2481
   XY=             -1.1325   XZ=             -7.6969   YZ=              4.4266

 Summary of Natural Population Analysis:

                                       Natural Population
                Natural  -----------------------------------------------
    Atom  No    Charge         Core      Valence    Rydberg      Total
 -----------------------------------------------------------------------
      C    1   -0.18013      0.99964     2.17341    0.00708     3.18013
      N    2   -0.27615      0.99960     2.76857    0.00798     3.77615
      C    3    0.38271      0.99966     1.59536    0.02227     2.61729
      O    4   -0.29528      0.99987     3.29025    0.00516     4.29528
      C    5   -0.24331      0.99959     2.23412    0.00960     3.24331
      C    6   -0.19011      0.99962     2.18149    0.00900     3.19011
      C    7   -0.04389      0.99954     2.03025    0.01410     3.04389
      C    8    0.38661      0.99963     1.58944    0.02431     2.61339
      O    9   -0.29058      0.99987     3.28514    0.00557     4.29058
      N   10   -0.34142      0.99968     2.83040    0.01133     3.84142
      C   11    0.40986      0.99969     1.56579    0.02466     2.59014
      O   12   -0.32957      0.99987     3.32455    0.00515     4.32957
      N   13   -0.33106      0.99966     2.82114    0.01026     3.83106
      C   14   -0.01012      0.99957     1.99881    0.01174     3.01012
      C   15   -0.19771      0.99960     2.18930    0.00881     3.19771
      C   16   -0.19568      0.99963     2.18725    0.00881     3.19568
      C   17   -0.18712      0.99962     2.17916    0.00834     3.18712
      C   18   -0.18822      0.99962     2.17980    0.00879     3.18822
      C   19   -0.19329      0.99963     2.18545    0.00821     3.19329
      C   20   -0.19604      0.99960     2.18803    0.00840     3.19604
      H   21    0.09912      0.00000     0.39983    0.00106     0.40088
      H   22    0.09736      0.00000     0.40157    0.00107     0.40264
      H   23    0.11104      0.00000     0.38782    0.00114     0.38896
      H   24    0.12241      0.00000     0.37603    0.00157     0.37759
      H   25    0.11126      0.00000     0.38782    0.00092     0.38874
      H   26    0.10035      0.00000     0.39853    0.00111     0.39965
      H   27    0.10206      0.00000     0.39681    0.00113     0.39794
      H   28    0.10553      0.00000     0.39308    0.00138     0.39447
      H   29    0.18973      0.00000     0.30720    0.00307     0.31027
      H   30    0.18924      0.00000     0.30884    0.00192     0.31076
      H   31    0.11044      0.00000     0.38732    0.00224     0.38956
      H   32    0.09657      0.00000     0.40228    0.00114     0.40343
      H   33    0.10631      0.00000     0.39262    0.00107     0.39369
      H   34    0.09229      0.00000     0.40639    0.00133     0.40771
      H   35    0.10030      0.00000     0.39884    0.00086     0.39970
      H   36    0.09769      0.00000     0.40119    0.00112     0.40231
      H   37    0.09135      0.00000     0.40745    0.00120     0.40865
      H   38    0.09062      0.00000     0.40827    0.00111     0.40938
      H   39    0.09713      0.00000     0.40188    0.00099     0.40287
      H   40    0.09892      0.00000     0.40027    0.00081     0.40108
      H   41    0.09578      0.00000     0.40315    0.00107     0.40422
      H   42    0.08829      0.00000     0.41042    0.00129     0.41171
      H   43    0.11672      0.00000     0.38212    0.00116     0.38328
 =======================================================================
   * Total *   -0.00000     19.99322    55.75745    0.24934    76.00000

 Normal termination of Gaussian 16 at Sun Dec 13 18:06:56 2020.
