 Gaussian 16, Revision A.03,

 -----------------------------------------------------------
 # opt freq B3LYP/6-31G(d) empiricaldispersion=gd3bj scf=xqc
 -----------------------------------------------------------

 ------------------------------
 CID_64571902_JID_5067_neutraal
 ------------------------------
 Symbolic Z-matrix:
 Charge =  0 Multiplicity = 1

 SCF Done:  E(RB3LYP) =  -638.055722446     A.U. after   14 cycles
 SCF Done:  E(RB3LYP) =  -638.059684401     A.U. after   12 cycles
 SCF Done:  E(RB3LYP) =  -638.059796393     A.U. after   13 cycles
 SCF Done:  E(RB3LYP) =  -638.060483008     A.U. after   12 cycles
 SCF Done:  E(RB3LYP) =  -638.061078292     A.U. after   11 cycles
 SCF Done:  E(RB3LYP) =  -638.061261776     A.U. after   12 cycles
 SCF Done:  E(RB3LYP) =  -638.061314750     A.U. after   10 cycles
 SCF Done:  E(RB3LYP) =  -638.061358788     A.U. after   11 cycles
 SCF Done:  E(RB3LYP) =  -638.061377254     A.U. after   10 cycles
 SCF Done:  E(RB3LYP) =  -638.061385258     A.U. after   10 cycles
 SCF Done:  E(RB3LYP) =  -638.061403535     A.U. after   10 cycles
 SCF Done:  E(RB3LYP) =  -638.061427302     A.U. after    9 cycles
 SCF Done:  E(RB3LYP) =  -638.061428460     A.U. after    9 cycles
 SCF Done:  E(RB3LYP) =  -638.061428725     A.U. after    7 cycles
 SCF Done:  E(RB3LYP) =  -638.061428761     A.U. after    6 cycles
 Optimization completed.
    -- Stationary point found.
 Normal termination of Gaussian 16 at Thu Dec 10 15:05:23 2020.

 --------------------------------------------------------------------
 #N Geom=AllCheck Guess=TCheck SCRF=Check GenChk RB3LYP/6-31G(d) Freq
 --------------------------------------------------------------------

 Structure from the checkpoint file:  "JID_5067.chk"
 ------------------------------
 CID_64571902_JID_5067_neutraal
 ------------------------------
 Charge =  0 Multiplicity = 1

 SCF Done:  E(RB3LYP) =  -638.061428761     A.U. after    1 cycles

  Exact polarizability: 167.244   5.012 147.031  20.056  -7.656 115.705
 Approx polarizability: 217.108   9.093 230.607  41.082 -15.489 178.018

                      1                      2                      3
                      A                      A                      A
 Frequencies --     20.8356                21.8531                35.5403
 Red. masses --      3.6179                 3.4320                 1.0268
 Frc consts  --      0.0009                 0.0010                 0.0008
 IR Inten    --      0.0923                 0.1530                 0.3953

                      4                      5                      6
                      A                      A                      A
 Frequencies --     53.0058                91.3670               135.4760
 Red. masses --      3.8338                 2.9956                 2.1730
 Frc consts  --      0.0063                 0.0147                 0.0235
 IR Inten    --      0.3389                 0.2389                 0.7231

                      7                      8                      9
                      A                      A                      A
 Frequencies --    151.9938               182.6021               216.8771
 Red. masses --      3.0695                 3.2229                 2.9592
 Frc consts  --      0.0418                 0.0633                 0.0820
 IR Inten    --      0.6721                 5.3380                 1.5790

                     10                     11                     12
                      A                      A                      A
 Frequencies --    224.7069               244.8980               249.3384
 Red. masses --      1.8551                 1.6329                 1.1634
 Frc consts  --      0.0552                 0.0577                 0.0426
 IR Inten    --      1.1581                 1.2423                35.3599

                     13                     14                     15
                      A                      A                      A
 Frequencies --    280.5050               284.2621               297.1098
 Red. masses --      1.9333                 1.5432                 1.9275
 Frc consts  --      0.0896                 0.0735                 0.1002
 IR Inten    --      3.6299                 4.7307                 8.6547

                     16                     17                     18
                      A                      A                      A
 Frequencies --    344.5846               364.7792               383.3263
 Red. masses --      2.0814                 2.8086                 2.6899
 Frc consts  --      0.1456                 0.2202                 0.2329
 IR Inten    --      2.0320                 1.3242                 2.0752

                     19                     20                     21
                      A                      A                      A
 Frequencies --    424.6114               446.9658               451.0335
 Red. masses --      3.0399                 2.8206                 3.1652
 Frc consts  --      0.3229                 0.3320                 0.3794
 IR Inten    --      0.5963                 6.0028                 1.9023

                     22                     23                     24
                      A                      A                      A
 Frequencies --    491.6210               514.9388               533.6299
 Red. masses --      2.5621                 3.9499                 4.0180
 Frc consts  --      0.3649                 0.6171                 0.6741
 IR Inten    --      1.0589                 3.4632                 0.6141

                     25                     26                     27
                      A                      A                      A
 Frequencies --    546.4936               646.1952               715.8005
 Red. masses --      3.2041                 4.7545                 2.7917
 Frc consts  --      0.5638                 1.1697                 0.8428
 IR Inten    --      3.1046                 5.7838                 7.8987

                     28                     29                     30
                      A                      A                      A
 Frequencies --    752.6770               761.7352               800.8115
 Red. masses --      3.1140                 2.3822                 1.2704
 Frc consts  --      1.0394                 0.8144                 0.4800
 IR Inten    --      3.2909                12.9464                 4.2406

                     31                     32                     33
                      A                      A                      A
 Frequencies --    808.5741               881.6145               903.2981
 Red. masses --      1.6337                 1.8475                 1.3386
 Frc consts  --      0.6293                 0.8460                 0.6435
 IR Inten    --     31.5186               124.4558                 3.4957

                     34                     35                     36
                      A                      A                      A
 Frequencies --    916.3278               924.9552               927.2222
 Red. masses --      1.4808                 2.6105                 1.7985
 Frc consts  --      0.7326                 1.3159                 0.9110
 IR Inten    --      5.1033                 2.9323                 4.6616

                     37                     38                     39
                      A                      A                      A
 Frequencies --    950.9669               980.3541               985.6409
 Red. masses --      1.4732                 1.2930                 1.6170
 Frc consts  --      0.7849                 0.7322                 0.9255
 IR Inten    --     32.1760                 0.7022                 3.1490

                     40                     41                     42
                      A                      A                      A
 Frequencies --   1004.5254              1019.4636              1022.2115
 Red. masses --      2.3854                 1.9420                 3.0073
 Frc consts  --      1.4182                 1.1892                 1.8515
 IR Inten    --     11.0701                 0.8922                 3.1590

                     43                     44                     45
                      A                      A                      A
 Frequencies --   1029.4978              1057.0154              1060.4207
 Red. masses --      1.7431                 1.8564                 2.0183
 Frc consts  --      1.0885                 1.2221                 1.3372
 IR Inten    --      1.8416                 5.0505                 5.1411

                     46                     47                     48
                      A                      A                      A
 Frequencies --   1076.3535              1097.2288              1131.3939
 Red. masses --      1.5254                 1.7378                 1.5725
 Frc consts  --      1.0412                 1.2327                 1.1860
 IR Inten    --      9.8062                 1.4897                 3.8322

                     49                     50                     51
                      A                      A                      A
 Frequencies --   1140.3424              1148.0488              1191.8372
 Red. masses --      1.5307                 5.6455                 1.6759
 Frc consts  --      1.1728                 4.3840                 1.4026
 IR Inten    --      1.7331               205.8295                12.2139

                     52                     53                     54
                      A                      A                      A
 Frequencies --   1201.6913              1206.2997              1238.6196
 Red. masses --      2.5769                 1.1447                 1.7651
 Frc consts  --      2.1925                 0.9814                 1.5955
 IR Inten    --     15.8865                 0.4546                11.0229

                     55                     56                     57
                      A                      A                      A
 Frequencies --   1280.8632              1291.4401              1306.3224
 Red. masses --      3.7046                 1.3537                 1.3626
 Frc consts  --      3.5810                 1.3302                 1.3700
 IR Inten    --      9.8749                12.2213                 9.2689

                     58                     59                     60
                      A                      A                      A
 Frequencies --   1331.3006              1348.3458              1365.4677
 Red. masses --      1.2323                 1.4595                 3.0319
 Frc consts  --      1.2868                 1.5634                 3.3306
 IR Inten    --      3.5596                 2.3885                 0.1817

                     61                     62                     63
                      A                      A                      A
 Frequencies --   1385.4198              1396.7624              1410.9732
 Red. masses --      1.5732                 1.6196                 1.3554
 Frc consts  --      1.7790                 1.8617                 1.5899
 IR Inten    --      7.5501                 0.9359                31.2929

                     64                     65                     66
                      A                      A                      A
 Frequencies --   1432.5056              1442.7233              1445.4039
 Red. masses --      1.2821                 1.2463                 1.2625
 Frc consts  --      1.5501                 1.5284                 1.5541
 IR Inten    --      7.0605                 0.0901                 1.1983

                     67                     68                     69
                      A                      A                      A
 Frequencies --   1456.0755              1484.2316              1511.1869
 Red. masses --      1.4237                 2.1764                 1.0683
 Frc consts  --      1.7785                 2.8249                 1.4374
 IR Inten    --      4.3590                 6.1219                 2.3513

                     70                     71                     72
                      A                      A                      A
 Frequencies --   1517.8260              1518.2277              1524.6333
 Red. masses --      1.1156                 1.0535                 1.0656
 Frc consts  --      1.5142                 1.4307                 1.4594
 IR Inten    --      1.0137                 4.9631                 3.1277

                     73                     74                     75
                      A                      A                      A
 Frequencies --   1525.7341              1527.2364              1539.4270
 Red. masses --      1.2378                 1.0690                 1.0766
 Frc consts  --      1.6977                 1.4691                 1.5032
 IR Inten    --      9.2450                 7.4195                 2.4273

                     76                     77                     78
                      A                      A                      A
 Frequencies --   1542.6491              1543.9738              1551.8674
 Red. masses --      1.0576                 1.9667                 1.0801
 Frc consts  --      1.4829                 2.7623                 1.5325
 IR Inten    --      1.4687                 8.8550                10.8856

                     79                     80                     81
                      A                      A                      A
 Frequencies --   1651.2623              1671.3239              1692.0146
 Red. masses --      5.3962                 5.7582                 1.0942
 Frc consts  --      8.6690                 9.4767                 1.8456
 IR Inten    --      2.6043                 9.0466                30.3446

                     82                     83                     84
                      A                      A                      A
 Frequencies --   2960.0301              2993.7433              3024.5555
 Red. masses --      1.0702                 1.0700                 1.0714
 Frc consts  --      5.5246                 5.6504                 5.7745
 IR Inten    --     49.9239                72.9795                46.3597

                     85                     86                     87
                      A                      A                      A
 Frequencies --   3037.4303              3041.6464              3041.8977
 Red. masses --      1.0444                 1.0791                 1.0407
 Frc consts  --      5.6773                 5.8822                 5.6738
 IR Inten    --     23.1862                25.3975                31.0586

                     88                     89                     90
                      A                      A                      A
 Frequencies --   3054.1488              3084.9051              3098.4722
 Red. masses --      1.0377                 1.0935                 1.0961
 Frc consts  --      5.7029                 6.1311                 6.2002
 IR Inten    --     27.8365                27.6187                20.6803

                     91                     92                     93
                      A                      A                      A
 Frequencies --   3101.3588              3104.4426              3114.2882
 Red. masses --      1.1018                 1.0991                 1.0997
 Frc consts  --      6.2439                 6.2408                 6.2840
 IR Inten    --     40.4199                 9.5877                35.1876

                     94                     95                     96
                      A                      A                      A
 Frequencies --   3121.3014              3125.6148              3132.9461
 Red. masses --      1.0948                 1.1025                 1.1006
 Frc consts  --      6.2844                 6.3462                 6.3648
 IR Inten    --     29.5306                16.5214                35.2670

                     97                     98                     99
                      A                      A                      A
 Frequencies --   3164.1554              3177.6963              3193.5419
 Red. masses --      1.0895                 1.0867                 1.0906
 Frc consts  --      6.4267                 6.4653                 6.5534
 IR Inten    --     18.7178                 8.3421                20.6678

                    100                    101                    102
                      A                      A                      A
 Frequencies --   3208.6091              3442.4832              3529.1938
 Red. masses --      1.0952                 1.0492                 1.0919
 Frc consts  --      6.6432                 7.3260                 8.0129
 IR Inten    --     14.6809                 5.6217                 2.7990

 - Thermochemistry -
 -------------------
 Temperature   298.150 Kelvin.  Pressure   1.00000 Atm.
 Atom     1 has atomic number  6 and mass  12.00000

 Molecular mass:   207.16231 amu.
 Principal axes and moments of inertia in atomic units:
                           1         2         3
     Eigenvalues --  1678.905805967.384676277.61503
           X            0.99996  -0.00925   0.00066
           Y            0.00927   0.99894  -0.04505
           Z           -0.00024   0.04505   0.99898
 This molecule is an asymmetric top.
 Rotational symmetry number  1.
 Warning -- assumption of classical behavior for rotation
           may cause significant error
 Rotational temperatures (Kelvin)      0.05159     0.01451     0.01380
 Rotational constants (GHZ):           1.07495     0.30243     0.28749
 Zero-point vibrational energy     843493.7 (Joules/Mol)
                                  201.59984 (Kcal/Mol)
 Warning -- explicit consideration of  25 degrees of freedom as
           vibrations may cause significant error
 Vibrational temperatures:     29.98    31.44    51.13    76.26   131.46
          (Kelvin)            194.92   218.69   262.72   312.04   323.30
                              352.35   358.74   403.58   408.99   427.47
                              495.78   524.84   551.52   610.92   643.08
                              648.94   707.33   740.88   767.77   786.28
                              929.73  1029.88  1082.93  1095.97  1152.19
                             1163.36  1268.45  1299.64  1318.39  1330.80
                             1334.07  1368.23  1410.51  1418.12  1445.29
                             1466.78  1470.73  1481.22  1520.81  1525.71
                             1548.63  1578.67  1627.82  1640.70  1651.79
                             1714.79  1728.97  1735.60  1782.10  1842.88
                             1858.09  1879.51  1915.44  1939.97  1964.60
                             1993.31  2009.63  2030.08  2061.06  2075.76
                             2079.61  2094.97  2135.48  2174.26  2183.81
                             2184.39  2193.61  2195.19  2197.35  2214.89
                             2219.53  2221.43  2232.79  2375.80  2404.66
                             2434.43  4258.82  4307.33  4351.66  4370.18
                             4376.25  4376.61  4394.24  4438.49  4458.01
                             4462.16  4466.60  4480.77  4490.86  4497.06
                             4507.61  4552.51  4572.00  4594.79  4616.47
                             4952.97  5077.72

 Zero-point correction=                           0.321270 (Hartree/Particle)
 Thermal correction to Energy=                    0.337781
 Thermal correction to Enthalpy=                  0.338725
 Thermal correction to Gibbs Free Energy=         0.275512
 Sum of electronic and zero-point Energies=           -637.740159
 Sum of electronic and thermal Energies=              -637.723648
 Sum of electronic and thermal Enthalpies=            -637.722703
 Sum of electronic and thermal Free Energies=         -637.785917

                     E (Thermal)             CV                S
                      KCal/Mol        Cal/Mol-Kelvin    Cal/Mol-Kelvin
 Total                  211.961             62.067            133.045
 Electronic               0.000              0.000              0.000
 Translational            0.889              2.981             41.889
 Rotational               0.889              2.981             32.509
 Vibrational            210.183             56.106             58.647
 Vibration     1          0.593              1.986              6.553
 Vibration     2          0.593              1.985              6.458
 Vibration     3          0.594              1.982              5.493
 Vibration     4          0.596              1.976              4.702
 Vibration     5          0.602              1.955              3.631
 Vibration     6          0.613              1.918              2.867
 Vibration     7          0.619              1.900              2.647
 Vibration     8          0.630              1.863              2.302
 Vibration     9          0.646              1.815              1.985
 Vibration    10          0.649              1.803              1.921
 Vibration    11          0.660              1.771              1.767
 Vibration    12          0.662              1.764              1.735
 Vibration    13          0.680              1.710              1.531
 Vibration    14          0.683              1.703              1.508
 Vibration    15          0.691              1.679              1.433
 Vibration    16          0.723              1.586              1.191
 Vibration    17          0.738              1.545              1.102
 Vibration    18          0.753              1.506              1.026
 Vibration    19          0.787              1.417              0.876
 Vibration    20          0.806              1.368              0.805
 Vibration    21          0.810              1.359              0.793
 Vibration    22          0.847              1.269              0.679
 Vibration    23          0.870              1.217              0.622
 Vibration    24          0.889              1.176              0.579
 Vibration    25          0.902              1.147              0.551

 Optimization completed.
    -- Stationary point found.
 Normal termination of Gaussian 16 at Thu Dec 10 15:17:30 2020.

 ----------------------------------------------------------------------
 # B3LYP/6-311++G(d,p) empiricaldispersion=gd3bj scf=xqc pop=npa geom=c
 heck
 ----------------------------------------------------------------------

 --------------------------------------
 CID_64571902_JID_5067_Energie_neutraal
 --------------------------------------
 Structure from the checkpoint file:  "JID_5067.chk"
 Charge =  0 Multiplicity = 1

 SCF Done:  E(RB3LYP) =  -638.243743661     A.U. after   14 cycles
 Normal termination of Gaussian 16 at Thu Dec 10 15:23:52 2020.

 ----------------------------------------------------------------------
 # B3LYP/6-311++G(d,p) empiricaldispersion=gd3bj scf=xqc pop=npa geom=c
 heck
 ----------------------------------------------------------------------

 ------------------------------------
 CID_64571902_JID_5067_Energie_kation
 ------------------------------------
 Structure from the checkpoint file:  "JID_5067.chk"
 Charge =  1 Multiplicity = 2

 SCF Done:  E(UB3LYP) =  -637.944794847     A.U. after   24 cycles
 Normal termination of Gaussian 16 at Thu Dec 10 15:38:48 2020.
 Gaussian 16:  ES64L-G16RevA.03 25-Dec-2016

 ----------------------------------------------------------------------
 # B3LYP/6-311++G(d,p) empiricaldispersion=gd3bj scf=xqc pop=npa geom=c
 heck
 ----------------------------------------------------------------------

 -----------------------------------
 CID_64571902_JID_5067_Energie_anion
 -----------------------------------
 Structure from the checkpoint file:  "JID_5067.chk"
 Charge = -1 Multiplicity = 2

                         Standard orientation:
 ---------------------------------------------------------------------
 Center     Atomic      Atomic             Coordinates (Angstroms)
 Number     Number       Type             X           Y           Z
 ---------------------------------------------------------------------
      1          6           0        1.837098   -2.225021   -0.286556
      2          6           0        2.823419   -1.196488    0.271828
      3          6           0        2.794245    0.196635   -0.390578
      4          6           0        3.088296    0.108767   -1.901454
      5          6           0        1.422063    0.859531   -0.218288
      6          8           0        1.039973    0.865712    1.143654
      7          6           0       -0.254629    1.404646    1.352127
      8          6           0       -1.361466    0.516339    0.821954
      9          6           0       -1.394217   -0.836938    1.181990
     10          6           0       -2.400151   -1.664078    0.690690
     11          6           0       -3.383107   -1.148533   -0.157453
     12          6           0       -3.371998    0.199637   -0.526880
     13          6           0       -2.345144    1.015178   -0.031825
     14          6           0       -4.443487    0.770964   -1.423654
     15          7           0        3.792982    1.019118    0.317556
     16          1           0        0.800976   -1.884810   -0.192090
     17          1           0        1.922829   -3.168275    0.264621
     18          1           0        2.024785   -2.447159   -1.342918
     19          1           0        2.642037   -1.045985    1.339487
     20          1           0        3.846372   -1.589354    0.176312
     21          1           0        2.337603   -0.474620   -2.446125
     22          1           0        3.119042    1.111213   -2.346686
     23          1           0        4.064891   -0.361597   -2.067788
     24          1           0        1.465884    1.896240   -0.599301
     25          1           0        0.677224    0.325868   -0.825157
     26          1           0       -0.333041    2.409141    0.904653
     27          1           0       -0.342904    1.516854    2.438437
     28          1           0       -0.620510   -1.232031    1.833673
     29          1           0       -2.420966   -2.715325    0.965116
     30          1           0       -4.164454   -1.801172   -0.539462
     31          1           0       -2.311538    2.063420   -0.324342
     32          1           0       -4.039980    1.542526   -2.088294
     33          1           0       -4.902289   -0.005631   -2.043999
     34          1           0       -5.245543    1.236926   -0.836069
     35          1           0        4.717144    0.612659    0.170955
     36          1           0        3.826251    1.947741   -0.104553
 ---------------------------------------------------------------------

 SCF Done:  E(UB3LYP) =  -638.230027133     A.U. after   33 cycles
 SCF Done:  E(UB3LYP) =  -638.230027133     a.u. after    1 cycles

 The electronic state is 2-A.
 Alpha  occ. eigenvalues --  -19.02864 -14.19152 -10.12817 -10.11395 -10.10995
 Alpha  occ. eigenvalues --  -10.09248 -10.08833 -10.08477 -10.07998 -10.07995
 Alpha  occ. eigenvalues --  -10.07966 -10.07390 -10.06491 -10.06198 -10.06168
 Alpha  occ. eigenvalues --   -0.94461  -0.79670  -0.76990  -0.69112  -0.68068
 Alpha  occ. eigenvalues --   -0.66818  -0.63320  -0.60770  -0.59398  -0.55632
 Alpha  occ. eigenvalues --   -0.53994  -0.51098  -0.48187  -0.44883  -0.41994
 Alpha  occ. eigenvalues --   -0.40370  -0.39621  -0.38467  -0.37221  -0.36351
 Alpha  occ. eigenvalues --   -0.35207  -0.34872  -0.33058  -0.32786  -0.31902
 Alpha  occ. eigenvalues --   -0.31517  -0.30825  -0.30004  -0.29160  -0.28930
 Alpha  occ. eigenvalues --   -0.26751  -0.26475  -0.26067  -0.25288  -0.25128
 Alpha  occ. eigenvalues --   -0.23505  -0.23182  -0.21348  -0.17103  -0.16275
 Alpha  occ. eigenvalues --   -0.15237  -0.14446   0.04158
 Alpha virt. eigenvalues --    0.05762   0.06599   0.06973   0.07246   0.07620
 Alpha virt. eigenvalues --    0.07931   0.08351   0.09220   0.09500   0.09680
 Alpha virt. eigenvalues --    0.10299   0.10545   0.11057   0.11958   0.12235

  Beta  occ. eigenvalues --  -19.02861 -14.19126 -10.12809 -10.11375 -10.10994
  Beta  occ. eigenvalues --  -10.09243 -10.08832 -10.08471 -10.07982 -10.07981
  Beta  occ. eigenvalues --  -10.07957 -10.07353 -10.06479 -10.06165 -10.06156
  Beta  occ. eigenvalues --   -0.94454  -0.79630  -0.76972  -0.69085  -0.68035
  Beta  occ. eigenvalues --   -0.66795  -0.63287  -0.60731  -0.59346  -0.55587
  Beta  occ. eigenvalues --   -0.53951  -0.51066  -0.48149  -0.44835  -0.41957
  Beta  occ. eigenvalues --   -0.40343  -0.39597  -0.38436  -0.37195  -0.36316
  Beta  occ. eigenvalues --   -0.35181  -0.34845  -0.33036  -0.32747  -0.31867
  Beta  occ. eigenvalues --   -0.31481  -0.30796  -0.29977  -0.29121  -0.28901
  Beta  occ. eigenvalues --   -0.26721  -0.26445  -0.26042  -0.25255  -0.25100
  Beta  occ. eigenvalues --   -0.23481  -0.23160  -0.21327  -0.17086  -0.16257
  Beta  occ. eigenvalues --   -0.15202  -0.14413
  Beta virt. eigenvalues --    0.06173   0.06744   0.07020   0.07131   0.07354
  Beta virt. eigenvalues --    0.08106   0.08421   0.08699   0.09506   0.09814
  Beta virt. eigenvalues --    0.10127   0.10566   0.10829   0.11388   0.12216

 Mulliken charges and spin densities:
               1          2
     1  C   -0.305965  -0.314110
     2  C   -0.160275  -0.133764
     3  C   -0.143939   0.361155
     4  C    0.213237  -0.747207
     5  C    0.010269  -0.685353
     6  O   -0.011395   0.020989
     7  C    0.259285  -0.725836
     8  C    0.242356   0.500532
     9  C    0.917791  -0.850059
    10  C   -0.260556  -0.011544
    11  C    0.040029  -0.511786
    12  C   -0.655296   0.880276
    13  C   -2.157836   1.676683
    14  C    2.787839  -3.424493
    15  N   -0.295221   0.050851
    16  H    0.351324  -0.213992
    17  H    0.027125   0.106358
    18  H    0.007926   0.128594
    19  H    0.130570   0.073684
    20  H   -0.081191   0.208138
    21  H   -0.159569   0.301007
    22  H   -0.186352   0.336640
    23  H   -0.287308   0.443330
    24  H   -0.132641   0.270736
    25  H    0.390938  -0.228377
    26  H   -0.039225   0.169753
    27  H    0.113074   0.081581
    28  H    0.205033  -0.023531
    29  H   -0.235248   0.413705
    30  H   -0.502379   0.661165
    31  H   -0.370418   0.556908
    32  H   -0.355013   0.506801
    33  H   -0.401220   0.551135
    34  H    0.027123   0.136496
    35  H   -0.033078   0.263357
    36  H    0.050207   0.170177
 Sum of Mulliken charges =  -1.00000   1.00000

 Dipole moment (field-independent basis, Debye):
    X=              0.5598    Y=             -1.2753    Z=              3.8119  Tot=              4.0584
 Quadrupole moment (field-independent basis, Debye-Ang):
   XX=           -190.3981   YY=           -133.3924   ZZ=           -134.4088
   XY=             -4.1458   XZ=             -8.0263   YZ=              1.8137

 Summary of Natural Population Analysis:

                                       Natural Population
                Natural  -----------------------------------------------
    Atom  No    Charge         Core      Valence    Rydberg      Total
 -----------------------------------------------------------------------
      C    1   -0.28864      0.99966     2.28440    0.00459     3.28864
      C    2   -0.19227      0.99959     2.18228    0.01041     3.19227
      C    3    0.04110      0.99957     1.94507    0.01426     2.95890
      C    4   -0.29499      0.99962     2.28794    0.00743     3.29499
      C    5   -0.01185      0.99949     1.99869    0.01367     3.01185
      O    6   -0.29465      0.99988     3.28634    0.00842     4.29465
      C    7   -0.01299      0.99953     2.00090    0.01255     3.01299
      C    8   -0.03202      0.99950     2.02328    0.00925     3.03202
      C    9   -0.10391      0.99950     2.09556    0.00885     3.10391
      C   10   -0.09662      0.99956     2.08623    0.01082     3.09662
      C   11   -0.10199      0.99951     2.09284    0.00964     3.10199
      C   12   -0.01172      0.99952     2.00239    0.00982     3.01172
      C   13   -0.09889      0.99946     2.08971    0.00972     3.09889
      C   14   -0.29338      0.99964     2.28795    0.00580     3.29338
      N   15   -0.41805      0.99975     2.90733    0.01097     3.91805
      H   16    0.10249      0.00000     0.39625    0.00127     0.39751
      H   17    0.09687      0.00000     0.40230    0.00083     0.40313
      H   18    0.09563      0.00000     0.40336    0.00101     0.40437
      H   19    0.10860      0.00000     0.38994    0.00146     0.39140
      H   20    0.09270      0.00000     0.40626    0.00103     0.40730
      H   21    0.10129      0.00000     0.39766    0.00105     0.39871
      H   22    0.10085      0.00000     0.39756    0.00159     0.39915
      H   23    0.10066      0.00000     0.39784    0.00149     0.39934
      H   24    0.08169      0.00000     0.41668    0.00163     0.41831
      H   25    0.08834      0.00000     0.40961    0.00205     0.41166
      H   26    0.08252      0.00000     0.41615    0.00133     0.41748
      H   27    0.09420      0.00000     0.40473    0.00106     0.40580
      H   28    0.10458      0.00000     0.39392    0.00150     0.39542
      H   29    0.09981      0.00000     0.39932    0.00086     0.40019
      H   30    0.10096      0.00000     0.39785    0.00119     0.39904
      H   31    0.10048      0.00000     0.39812    0.00140     0.39952
      H   32    0.10586      0.00000     0.39266    0.00149     0.39414
      H   33    0.10465      0.00000     0.39383    0.00152     0.39535
      H   34    0.10413      0.00000     0.39491    0.00096     0.39587
      H   35    0.17219      0.00000     0.32594    0.00187     0.32781
      H   36    0.17237      0.00000     0.32585    0.00178     0.32763
 =======================================================================
   * Total *    0.00000     14.99378    41.83166    0.17456    57.00000

 Normal termination of Gaussian 16 at Thu Dec 10 16:02:18 2020.
