 Gaussian 16, Revision A.03,

 -----------------------------------------------------------
 # opt freq B3LYP/6-31G(d) empiricaldispersion=gd3bj scf=xqc
 -----------------------------------------------------------

 --------------------------------
 CID_106917980_JID_10001_neutraal
 --------------------------------
 Symbolic Z-matrix:
 Charge =  0 Multiplicity = 1

 SCF Done:  E(RB3LYP) =  -952.070822389     A.U. after   18 cycles
 SCF Done:  E(RB3LYP) =  -952.076231848     A.U. after   13 cycles
 SCF Done:  E(RB3LYP) =  -952.074180621     A.U. after   15 cycles
 SCF Done:  E(RB3LYP) =  -952.074407694     A.U. after   14 cycles
 SCF Done:  E(RB3LYP) =  -952.076943524     A.U. after    9 cycles
 SCF Done:  E(RB3LYP) =  -952.077370622     A.U. after   14 cycles
 SCF Done:  E(RB3LYP) =  -952.077946792     A.U. after   14 cycles
 SCF Done:  E(RB3LYP) =  -952.078826431     A.U. after   13 cycles
 SCF Done:  E(RB3LYP) =  -952.078856424     A.U. after   13 cycles
 SCF Done:  E(RB3LYP) =  -952.079247491     A.U. after   13 cycles
 SCF Done:  E(RB3LYP) =  -952.083975441     A.U. after   10 cycles
 SCF Done:  E(RB3LYP) =  -952.083976550     A.U. after   10 cycles
 SCF Done:  E(RB3LYP) =  -952.083976782     A.U. after    8 cycles
 SCF Done:  E(RB3LYP) =  -952.083976844     A.U. after    7 cycles
 SCF Done:  E(RB3LYP) =  -952.083976876     A.U. after    7 cycles
 Optimization completed.
    -- Stationary point found.
 Normal termination of Gaussian 16 at Mon Dec 14 14:13:19 2020.

 --------------------------------------------------------------------
 #N Geom=AllCheck Guess=TCheck SCRF=Check GenChk RB3LYP/6-31G(d) Freq
 --------------------------------------------------------------------

 Structure from the checkpoint file:  "JID_10001.chk"
 --------------------------------
 CID_106917980_JID_10001_neutraal
 --------------------------------
 Charge =  0 Multiplicity = 1

 SCF Done:  E(RB3LYP) =  -952.083976876     A.U. after    1 cycles

  Exact polarizability: 209.850  22.263 195.383  22.402  -5.556 124.582
 Approx polarizability: 295.296  43.129 332.703  49.614 -12.810 209.812

                      1                      2                      3
                      A                      A                      A
 Frequencies --     14.0786                31.2263                43.4430
 Red. masses --      4.3082                 4.9734                 5.3818
 Frc consts  --      0.0005                 0.0029                 0.0060
 IR Inten    --      0.5559                 0.1568                 3.3165

                      4                      5                      6
                      A                      A                      A
 Frequencies --     49.3762                58.1124                74.2876
 Red. masses --      5.5623                 8.6289                 4.1806
 Frc consts  --      0.0080                 0.0172                 0.0136
 IR Inten    --      0.4495                 0.9963                 2.3031

                      7                      8                      9
                      A                      A                      A
 Frequencies --     96.7706               119.4551               129.4013
 Red. masses --      4.2750                 4.2323                 2.9168
 Frc consts  --      0.0236                 0.0356                 0.0288
 IR Inten    --      0.1506                 0.7537                 7.1559

                     10                     11                     12
                      A                      A                      A
 Frequencies --    152.4829               190.3242               210.9224
 Red. masses --      4.4291                 4.0891                 1.2592
 Frc consts  --      0.0607                 0.0873                 0.0330
 IR Inten    --      0.3314                 0.2096                 0.9006

                     13                     14                     15
                      A                      A                      A
 Frequencies --    216.9361               223.8868               239.4744
 Red. masses --      1.7149                 2.8252                 2.3786
 Frc consts  --      0.0476                 0.0834                 0.0804
 IR Inten    --      0.5729                 1.9565                 0.5333

                     16                     17                     18
                      A                      A                      A
 Frequencies --    261.2272               275.9311               304.8785
 Red. masses --      1.2157                 3.7743                 2.7735
 Frc consts  --      0.0489                 0.1693                 0.1519
 IR Inten    --      1.9690                 0.4625                 1.0602

                     19                     20                     21
                      A                      A                      A
 Frequencies --    315.2406               321.4789               367.4614
 Red. masses --      1.6884                 3.3150                 2.5184
 Frc consts  --      0.0989                 0.2019                 0.2004
 IR Inten    --      1.3741                12.2706                19.6346

                     22                     23                     24
                      A                      A                      A
 Frequencies --    369.1066               380.3424               423.5993
 Red. masses --      1.5507                 4.1133                 2.1539
 Frc consts  --      0.1245                 0.3506                 0.2277
 IR Inten    --     15.6732                 7.8550                 4.5196

                     25                     26                     27
                      A                      A                      A
 Frequencies --    427.7710               451.6974               466.4074
 Red. masses --      3.6070                 2.1264                 1.5434
 Frc consts  --      0.3889                 0.2556                 0.1978
 IR Inten    --      6.4249                80.5193               129.8593

                     28                     29                     30
                      A                      A                      A
 Frequencies --    474.7485               507.8760               538.4565
 Red. masses --      2.1565                 3.3777                 3.6641
 Frc consts  --      0.2864                 0.5133                 0.6259
 IR Inten    --    138.6651                 8.6160                23.3462

                     31                     32                     33
                      A                      A                      A
 Frequencies --    544.6639               559.8866               579.5677
 Red. masses --      2.8671                 4.7326                 1.7143
 Frc consts  --      0.5011                 0.8741                 0.3393
 IR Inten    --     13.5237                 5.6285                58.8435

                     34                     35                     36
                      A                      A                      A
 Frequencies --    637.3783               661.3879               663.5172
 Red. masses --      4.7969                 6.4339                 2.8492
 Frc consts  --      1.1482                 1.6582                 0.7390
 IR Inten    --     30.6380                 8.8318                24.9347

                     37                     38                     39
                      A                      A                      A
 Frequencies --    702.3390               738.8316               757.7210
 Red. masses --      3.8488                 4.7106                 6.6389
 Frc consts  --      1.1186                 1.5150                 2.2458
 IR Inten    --      0.7058                17.9644                21.1246

                     40                     41                     42
                      A                      A                      A
 Frequencies --    771.6959               801.0445               826.8037
 Red. masses --      3.8428                 3.8568                 4.3110
 Frc consts  --      1.3483                 1.4581                 1.7363
 IR Inten    --     16.7136                 1.4061                10.5252

                     43                     44                     45
                      A                      A                      A
 Frequencies --    838.0055               841.1517               907.8033
 Red. masses --      2.8292                 2.1340                 2.5251
 Frc consts  --      1.1706                 0.8896                 1.2261
 IR Inten    --      5.4568                22.0300                 1.6351

                     46                     47                     48
                      A                      A                      A
 Frequencies --    946.1961               948.5683               957.0484
 Red. masses --      1.5834                 2.4559                 2.4300
 Frc consts  --      0.8352                 1.3019                 1.3113
 IR Inten    --     14.3855                10.8577                11.7510

                     49                     50                     51
                      A                      A                      A
 Frequencies --    972.5855               986.2886              1030.2520
 Red. masses --      1.3107                 2.1549                 1.6078
 Frc consts  --      0.7305                 1.2351                 1.0055
 IR Inten    --      2.7501                 8.0799                26.1540

                     52                     53                     54
                      A                      A                      A
 Frequencies --   1041.8777              1071.5734              1088.9144
 Red. masses --      1.9154                 1.6406                 2.0299
 Frc consts  --      1.2250                 1.1099                 1.4181
 IR Inten    --    102.0796                 7.4327                 6.1058

                     55                     56                     57
                      A                      A                      A
 Frequencies --   1119.0781              1131.3918              1144.6269
 Red. masses --      2.1093                 1.8329                 1.8864
 Frc consts  --      1.5563                 1.3823                 1.4561
 IR Inten    --     16.0198                57.8444                12.6917

                     58                     59                     60
                      A                      A                      A
 Frequencies --   1150.2027              1171.4607              1180.9111
 Red. masses --      1.6323                 1.2596                 1.4379
 Frc consts  --      1.2723                 1.0185                 1.1814
 IR Inten    --      5.8305                 7.7758                 9.4977

                     61                     62                     63
                      A                      A                      A
 Frequencies --   1188.9260              1213.5111              1213.9595
 Red. masses --      1.2397                 3.1047                 2.4128
 Frc consts  --      1.0324                 2.6938                 2.0950
 IR Inten    --     20.5326                10.5577                 8.8439

                     64                     65                     66
                      A                      A                      A
 Frequencies --   1239.2322              1313.3023              1323.7676
 Red. masses --      1.7337                 1.7328                 1.5452
 Frc consts  --      1.5687                 1.7609                 1.5953
 IR Inten    --     18.3201                 2.7760                15.4125

                     67                     68                     69
                      A                      A                      A
 Frequencies --   1338.1400              1346.3238              1366.9059
 Red. masses --      2.2033                 1.4360                 1.8186
 Frc consts  --      2.3245                 1.5336                 2.0020
 IR Inten    --     67.3178                 1.3904                88.6511

                     70                     71                     72
                      A                      A                      A
 Frequencies --   1380.7756              1385.7385              1391.4684
 Red. masses --      1.6303                 1.5356                 2.1936
 Frc consts  --      1.8313                 1.7373                 2.5024
 IR Inten    --    157.1677                67.3839               105.9978

                     73                     74                     75
                      A                      A                      A
 Frequencies --   1393.2612              1405.9153              1419.0928
 Red. masses --      3.0821                 3.1832                 1.3253
 Frc consts  --      3.5250                 3.7071                 1.5724
 IR Inten    --    311.7882                 0.8555                17.0630

                     76                     77                     78
                      A                      A                      A
 Frequencies --   1443.6721              1479.9778              1484.8845
 Red. masses --      1.2743                 3.8614                 1.6283
 Frc consts  --      1.5648                 4.9832                 2.1153
 IR Inten    --     12.0969                10.0208                20.5122

                     79                     80                     81
                      A                      A                      A
 Frequencies --   1488.1285              1499.4366              1509.4575
 Red. masses --      1.1977                 1.1877                 1.1246
 Frc consts  --      1.5627                 1.5733                 1.5097
 IR Inten    --      5.9787                11.1745                 6.5209

                     82                     83                     84
                      A                      A                      A
 Frequencies --   1519.2579              1521.4692              1529.2023
 Red. masses --      1.0642                 1.0809                 1.1628
 Frc consts  --      1.4472                 1.4743                 1.6021
 IR Inten    --     17.7496                 6.8148                10.8028

                     85                     86                     87
                      A                      A                      A
 Frequencies --   1537.9880              1540.4194              1541.6890
 Red. masses --      1.0556                 1.0558                 1.0975
 Frc consts  --      1.4712                 1.4761                 1.5369
 IR Inten    --     14.6834                 2.9128                18.8956

                     88                     89                     90
                      A                      A                      A
 Frequencies --   1547.6712              1567.7120              1607.4386
 Red. masses --      2.3209                 1.0533                 9.9536
 Frc consts  --      3.2755                 1.5252                15.1530
 IR Inten    --     39.7565                 9.9069               108.4359

                     91                     92                     93
                      A                      A                      A
 Frequencies --   1649.1402              1669.1030              1696.2809
 Red. masses --      5.6510                 5.6632                 1.2891
 Frc consts  --      9.0551                 9.2957                 2.1854
 IR Inten    --     76.1636                81.7458               185.0162

                     94                     95                     96
                      A                      A                      A
 Frequencies --   1765.6618              3005.9638              3028.6394
 Red. masses --      7.2132                 1.0507                 1.0671
 Frc consts  --     13.2492                 5.5936                 5.7670
 IR Inten    --    282.6284                46.6833                60.3246

                     97                     98                     99
                      A                      A                      A
 Frequencies --   3033.1439              3042.7408              3058.0836
 Red. masses --      1.0689                 1.0414                 1.0417
 Frc consts  --      5.7938                 5.6808                 5.7395
 IR Inten    --     11.2895                63.3945                29.2319

                    100                    101                    102
                      A                      A                      A
 Frequencies --   3071.2925              3086.1855              3093.3163
 Red. masses --      1.0817                 1.0894                 1.0963
 Frc consts  --      6.0118                 6.1133                 6.1807
 IR Inten    --      8.8476                31.9995                 9.4614

                    103                    104                    105
                      A                      A                      A
 Frequencies --   3110.0730              3110.6453              3117.8800
 Red. masses --      1.0958                 1.0961                 1.1005
 Frc consts  --      6.2451                 6.2487                 6.3032
 IR Inten    --      5.1203                45.5629                29.9113

                    106                    107                    108
                      A                      A                      A
 Frequencies --   3147.2338              3156.1820              3158.1974
 Red. masses --      1.1019                 1.0969                 1.1007
 Frc consts  --      6.4306                 6.4377                 6.4687
 IR Inten    --     17.7339                18.8740                 5.0634

                    109                    110                    111
                      A                      A                      A
 Frequencies --   3187.4137              3240.6244              3254.2329
 Red. masses --      1.0901                 1.0901                 1.0926
 Frc consts  --      6.5254                 6.7450                 6.8171
 IR Inten    --     15.2933                 1.2158                 1.0187

                    112                    113                    114
                      A                      A                      A
 Frequencies --   3587.8079              3596.4529              3693.0700
 Red. masses --      1.0474                 1.0757                 1.0998
 Frc consts  --      7.9440                 8.1979                 8.8376
 IR Inten    --     39.3136                20.8730                19.2137

 - Thermochemistry -
 -------------------
 Temperature   298.150 Kelvin.  Pressure   1.00000 Atm.
 Atom     1 has atomic number  6 and mass  12.00000

 Molecular mass:   280.15354 amu.
 Principal axes and moments of inertia in atomic units:
                           1         2         3
     Eigenvalues --  3154.04229********************
           X            0.99989  -0.00939   0.01134
           Y            0.00959   0.99979  -0.01798
           Z           -0.01116   0.01809   0.99977
 This molecule is an asymmetric top.
 Rotational symmetry number  1.
 Warning -- assumption of classical behavior for rotation
           may cause significant error
 Rotational temperatures (Kelvin)      0.02746     0.00825     0.00708
 Rotational constants (GHZ):           0.57220     0.17187     0.14761
 Zero-point vibrational energy     884083.8 (Joules/Mol)
                                  211.30109 (Kcal/Mol)
 Warning -- explicit consideration of  33 degrees of freedom as
           vibrations may cause significant error
 Vibrational temperatures:     20.26    44.93    62.50    71.04    83.61
          (Kelvin)            106.88   139.23   171.87   186.18   219.39
                              273.83   303.47   312.12   322.12   344.55
                              375.85   397.00   438.65   453.56   462.54
                              528.69   531.06   547.23   609.46   615.47
                              649.89   671.06   683.06   730.72   774.72
                              783.65   805.55   833.87   917.05   951.59
                              954.65  1010.51  1063.01  1090.19  1110.30
                             1152.52  1189.59  1205.70  1210.23  1306.13
                             1361.37  1364.78  1376.98  1399.33  1419.05
                             1482.30  1499.03  1541.76  1566.70  1610.10
                             1627.82  1646.86  1654.89  1685.47  1699.07
                             1710.60  1745.97  1746.62  1782.98  1889.55
                             1904.61  1925.28  1937.06  1966.67  1986.63
                             1993.77  2002.01  2004.59  2022.80  2041.76
                             2077.12  2129.36  2136.42  2141.09  2157.35
                             2171.77  2185.87  2189.05  2200.18  2212.82
                             2216.32  2218.15  2226.75  2255.59  2312.75
                             2372.74  2401.47  2440.57  2540.39  4324.91
                             4357.54  4364.02  4377.83  4399.90  4418.90
                             4440.33  4450.59  4474.70  4475.52  4485.93
                             4528.17  4541.04  4543.94  4585.98  4662.54
                             4682.12  5162.06  5174.49  5313.50

 Zero-point correction=                           0.336730 (Hartree/Particle)
 Thermal correction to Energy=                    0.357321
 Thermal correction to Enthalpy=                  0.358265
 Thermal correction to Gibbs Free Energy=         0.285618
 Sum of electronic and zero-point Energies=           -951.747247
 Sum of electronic and thermal Energies=              -951.726656
 Sum of electronic and thermal Enthalpies=            -951.725712
 Sum of electronic and thermal Free Energies=         -951.798359

                     E (Thermal)             CV                S
                      KCal/Mol        Cal/Mol-Kelvin    Cal/Mol-Kelvin
 Total                  224.222             76.958            152.899
 Electronic               0.000              0.000              0.000
 Translational            0.889              2.981             42.789
 Rotational               0.889              2.981             34.359
 Vibrational            222.445             70.996             75.751
 Vibration     1          0.593              1.986              7.331
 Vibration     2          0.594              1.983              5.750
 Vibration     3          0.595              1.980              5.096
 Vibration     4          0.595              1.978              4.842
 Vibration     5          0.596              1.974              4.520
 Vibration     6          0.599              1.966              4.036
 Vibration     7          0.603              1.951              3.518
 Vibration     8          0.609              1.933              3.109
 Vibration     9          0.612              1.924              2.955
 Vibration    10          0.619              1.900              2.641
 Vibration    11          0.634              1.853              2.225
 Vibration    12          0.643              1.824              2.036
 Vibration    13          0.646              1.815              1.985
 Vibration    14          0.649              1.805              1.927
 Vibration    15          0.657              1.780              1.807
 Vibration    16          0.669              1.744              1.654
 Vibration    17          0.678              1.718              1.559
 Vibration    18          0.696              1.664              1.390
 Vibration    19          0.703              1.645              1.335
 Vibration    20          0.707              1.632              1.303
 Vibration    21          0.740              1.539              1.090
 Vibration    22          0.741              1.536              1.084
 Vibration    23          0.750              1.512              1.038
 Vibration    24          0.786              1.419              0.880
 Vibration    25          0.789              1.410              0.866
 Vibration    26          0.810              1.357              0.791
 Vibration    27          0.824              1.325              0.748
 Vibration    28          0.831              1.306              0.724
 Vibration    29          0.863              1.233              0.639
 Vibration    30          0.893              1.165              0.569
 Vibration    31          0.900              1.151              0.555
 Vibration    32          0.916              1.118              0.524
 Vibration    33          0.936              1.075              0.486

                           ! Non-Optimized Parameters !
 Normal termination of Gaussian 16 at Mon Dec 14 14:37:01 2020.

 ----------------------------------------------------------------------
 # B3LYP/6-311++G(d,p) empiricaldispersion=gd3bj scf=xqc pop=npa geom=c
 heck
 ----------------------------------------------------------------------

 ----------------------------------------
 CID_106917980_JID_10001_Energie_neutraal
 ----------------------------------------
 Structure from the checkpoint file:  "JID_10001.chk"
 Charge =  0 Multiplicity = 1

 SCF Done:  E(RB3LYP) =  -952.363919226     A.U. after   20 cycles
 Normal termination of Gaussian 16 at Mon Dec 14 14:51:33 2020.

 ----------------------------------------------------------------------
 # B3LYP/6-311++G(d,p) empiricaldispersion=gd3bj scf=xqc pop=npa geom=c
 heck
 ----------------------------------------------------------------------

 --------------------------------------
 CID_106917980_JID_10001_Energie_kation
 --------------------------------------
 Structure from the checkpoint file:  "JID_10001.chk"
 Charge =  1 Multiplicity = 2

 SCF Done:  E(UB3LYP) =  -952.072810467     A.U. after   31 cycles
 Normal termination of Gaussian 16 at Mon Dec 14 15:22:27 2020.
 Gaussian 16:  ES64L-G16RevA.03 25-Dec-2016

 ----------------------------------------------------------------------
 # B3LYP/6-311++G(d,p) empiricaldispersion=gd3bj scf=xqc pop=npa geom=c
 heck
 ----------------------------------------------------------------------

 -------------------------------------
 CID_106917980_JID_10001_Energie_anion
 -------------------------------------
 Structure from the checkpoint file:  "JID_10001.chk"
 Charge = -1 Multiplicity = 2

                         Standard orientation:
 ---------------------------------------------------------------------
 Center     Atomic      Atomic             Coordinates (Angstroms)
 Number     Number       Type             X           Y           Z
 ---------------------------------------------------------------------
      1          6           0        2.973604   -1.816924    1.388801
      2          6           0        2.638370   -1.507318   -0.075925
      3          6           0        1.270316   -0.803559   -0.214316
      4          7           0        1.254388    0.557535    0.340995
      5          6           0        1.448267    1.575186   -0.688631
      6          6           0        0.125002    0.834916    1.236848
      7          6           0       -1.267089    0.841019    0.617902
      8          6           0       -1.862785    2.008466    0.070148
      9          6           0       -3.137071    1.923394   -0.530941
     10          6           0       -3.826637    0.726719   -0.587742
     11          6           0       -3.245252   -0.409211   -0.024297
     12          6           0       -1.989268   -0.347956    0.574362
     13          7           0       -3.965189   -1.672882   -0.047773
     14          8           0       -3.425340   -2.655667    0.468580
     15          8           0       -5.076876   -1.692608   -0.582891
     16          7           0       -1.216089    3.229226    0.079984
     17          6           0        3.715949   -0.810114   -0.917918
     18          8           0        3.804419   -1.075090   -2.114443
     19          7           0        4.583008    0.089727   -0.355496
     20          6           0        4.526908    0.779005    0.926264
     21          1           0        2.820324   -0.952700    2.038675
     22          1           0        4.008247   -2.156088    1.504402
     23          1           0        2.319525   -2.619826    1.747613
     24          1           0        2.525991   -2.460269   -0.604975
     25          1           0        0.967202   -0.804321   -1.270567
     26          1           0        0.540675   -1.419642    0.318723
     27          1           0        0.599724    1.658712   -1.385943
     28          1           0        1.603657    2.552508   -0.217973
     29          1           0        2.342000    1.338207   -1.268643
     30          1           0        0.145525    0.077117    2.026433
     31          1           0        0.334436    1.791305    1.735405
     32          1           0       -3.579322    2.820881   -0.955363
     33          1           0       -4.805003    0.656469   -1.045764
     34          1           0       -1.589075   -1.250482    1.019729
     35          1           0       -0.463821    3.359025    0.739743
     36          1           0       -1.797298    4.047681   -0.036702
     37          1           0        5.247643    0.432561   -1.037635
     38          1           0        5.061836    0.238431    1.716954
     39          1           0        4.996648    1.759832    0.808034
     40          1           0        3.488742    0.930540    1.226602
 ---------------------------------------------------------------------

 SCF Done:  E(UB3LYP) =  -952.392636537     A.U. after   33 cycles
 SCF Done:  E(UB3LYP) =  -952.392636537     a.u. after    1 cycles

 The electronic state is 2-A.
 Alpha  occ. eigenvalues --  -19.00566 -18.94400 -18.94355 -14.32050 -14.26240
 Alpha  occ. eigenvalues --  -14.21631 -14.21618 -10.19233 -10.13183 -10.10598
 Alpha  occ. eigenvalues --  -10.10438 -10.10167 -10.09516 -10.09128 -10.08758
 Alpha  occ. eigenvalues --  -10.06064 -10.05830 -10.05138 -10.04659 -10.04251
 Alpha  occ. eigenvalues --   -1.02286  -0.95787  -0.85093  -0.84407  -0.83483
 Alpha  occ. eigenvalues --   -0.81740  -0.72828  -0.71302  -0.65786  -0.63702
 Alpha  occ. eigenvalues --   -0.63166  -0.61318  -0.59869  -0.56324  -0.53600
 Alpha  occ. eigenvalues --   -0.52085  -0.49207  -0.47821  -0.43912  -0.42134
 Alpha  occ. eigenvalues --   -0.41717  -0.40952  -0.40247  -0.39521  -0.38154
 Alpha  occ. eigenvalues --   -0.37297  -0.36404  -0.35762  -0.34843  -0.34615
 Alpha  occ. eigenvalues --   -0.34024  -0.33131  -0.33028  -0.32026  -0.31447
 Alpha  occ. eigenvalues --   -0.30733  -0.30493  -0.29913  -0.29082  -0.28305
 Alpha  occ. eigenvalues --   -0.27195  -0.26778  -0.26290  -0.26051  -0.24678
 Alpha  occ. eigenvalues --   -0.22902  -0.20002  -0.18264  -0.17353  -0.14262
 Alpha  occ. eigenvalues --   -0.13220  -0.12701  -0.12182  -0.10137  -0.09685
 Alpha  occ. eigenvalues --    0.03018
 Alpha virt. eigenvalues --    0.04533   0.05990   0.06628   0.07443   0.08263
 Alpha virt. eigenvalues --    0.08587   0.09320   0.09572   0.10203   0.10434
 Alpha virt. eigenvalues --    0.10819   0.11251   0.11997   0.12578   0.12869

  Beta  occ. eigenvalues --  -19.00566 -18.93965 -18.93884 -14.31408 -14.26238
  Beta  occ. eigenvalues --  -14.21638 -14.21560 -10.19233 -10.13176 -10.10596
  Beta  occ. eigenvalues --  -10.10426 -10.10167 -10.09515 -10.08855 -10.08756
  Beta  occ. eigenvalues --  -10.06038 -10.05925 -10.05219 -10.04539 -10.04066
  Beta  occ. eigenvalues --   -1.01251  -0.95785  -0.84404  -0.84230  -0.83469
  Beta  occ. eigenvalues --   -0.81561  -0.72632  -0.71287  -0.65704  -0.63691
  Beta  occ. eigenvalues --   -0.62749  -0.61314  -0.59730  -0.56282  -0.52784
  Beta  occ. eigenvalues --   -0.52013  -0.49117  -0.47759  -0.43606  -0.42098
  Beta  occ. eigenvalues --   -0.41652  -0.40795  -0.40229  -0.39489  -0.38129
  Beta  occ. eigenvalues --   -0.37265  -0.35833  -0.35738  -0.34645  -0.33983
  Beta  occ. eigenvalues --   -0.33102  -0.32794  -0.31986  -0.31845  -0.31389
  Beta  occ. eigenvalues --   -0.30610  -0.30261  -0.29760  -0.29073  -0.28187
  Beta  occ. eigenvalues --   -0.26768  -0.26743  -0.26222  -0.25741  -0.24653
  Beta  occ. eigenvalues --   -0.22804  -0.19280  -0.18260  -0.17351  -0.13642
  Beta  occ. eigenvalues --   -0.12655  -0.11813  -0.10218  -0.09685  -0.08858
  Beta virt. eigenvalues --    0.04554   0.06076   0.06550   0.07389   0.08230
  Beta virt. eigenvalues --    0.08510   0.09170   0.09318   0.09819   0.10416
  Beta virt. eigenvalues --    0.10658   0.10765   0.11179   0.11929   0.12531

 Mulliken charges and spin densities:
               1          2
     1  C   -0.589595  -0.047643
     2  C    0.386049   0.009689
     3  C   -0.541007  -0.007739
     4  N    0.168313   0.008748
     5  C   -0.524634   0.027110
     6  C   -0.409425  -0.325342
     7  C    1.131169   0.174334
     8  C   -0.495799   0.164443
     9  C   -0.345609  -0.106618
    10  C    0.355500   0.105526
    11  C   -0.994713  -0.042626
    12  C   -0.237563   0.111650
    13  N   -0.219291   0.203736
    14  O   -0.199102   0.174767
    15  O   -0.186235   0.181469
    16  N   -0.290929   0.012564
    17  C   -0.422949   0.007128
    18  O   -0.292513   0.000855
    19  N   -0.242932   0.020468
    20  C   -0.260023  -0.144666
    21  H    0.131743   0.005766
    22  H    0.143848   0.015578
    23  H    0.143072   0.004704
    24  H    0.255489  -0.000056
    25  H    0.202052  -0.003141
    26  H    0.109793   0.001855
    27  H    0.191542  -0.003132
    28  H    0.128886  -0.013854
    29  H    0.179556   0.011549
    30  H    0.233882  -0.010910
    31  H    0.009707   0.129632
    32  H    0.105139   0.009880
    33  H    0.221039  -0.007574
    34  H    0.184385   0.019473
    35  H    0.123535   0.087501
    36  H    0.191491   0.055777
    37  H    0.281612   0.017342
    38  H    0.106619   0.040066
    39  H    0.013161   0.117476
    40  H    0.254739  -0.005787
 Sum of Mulliken charges =  -1.00000   1.00000

 Dipole moment (field-independent basis, Debye):
    X=             13.0026    Y=              7.6916    Z=              3.0300  Tot=             15.4081
 Quadrupole moment (field-independent basis, Debye-Ang):
   XX=           -208.0407   YY=           -148.3280   ZZ=           -140.2821
   XY=            -25.6699   XZ=              9.5100   YZ=             -4.7965

 Summary of Natural Population Analysis:

                                       Natural Population
                Natural  -----------------------------------------------
    Atom  No    Charge         Core      Valence    Rydberg      Total
 -----------------------------------------------------------------------
      C    1   -0.29010      0.99965     2.28507    0.00537     3.29010
      C    2   -0.15408      0.99955     2.14378    0.01076     3.15408
      C    3   -0.07849      0.99958     2.06862    0.01028     3.07849
      N    4   -0.29686      0.99973     2.78549    0.01164     3.79686
      C    5   -0.18019      0.99964     2.17202    0.00853     3.18019
      C    6   -0.08436      0.99958     2.07076    0.01402     3.08436
      C    7   -0.08568      0.99947     2.07683    0.00938     3.08568
      C    8    0.12919      0.99947     1.85917    0.01217     2.87081
      C    9   -0.15059      0.99954     2.14323    0.00783     3.15059
      C   10   -0.05949      0.99953     2.05125    0.00871     3.05949
      C   11    0.02295      0.99940     1.96096    0.01669     2.97705
      C   12   -0.04978      0.99949     2.03853    0.01176     3.04978
      N   13    0.30866      0.99971     2.16608    0.02555     3.19134
      O   14   -0.20201      0.99990     3.19468    0.00743     4.20201
      O   15   -0.19587      0.99990     3.18881    0.00716     4.19587
      N   16   -0.39500      0.99971     2.88625    0.00904     3.89500
      C   17    0.34768      0.99963     1.62883    0.02387     2.65232
      O   18   -0.32746      0.99988     3.32168    0.00590     4.32746
      N   19   -0.32248      0.99966     2.81315    0.00966     3.82248
      C   20   -0.18750      0.99964     2.18059    0.00727     3.18750
      H   21    0.10128      0.00000     0.39736    0.00137     0.39872
      H   22    0.09781      0.00000     0.40133    0.00086     0.40219
      H   23    0.10291      0.00000     0.39626    0.00084     0.39709
      H   24    0.11192      0.00000     0.38673    0.00135     0.38808
      H   25    0.09978      0.00000     0.39926    0.00095     0.40022
      H   26    0.10495      0.00000     0.39400    0.00105     0.39505
      H   27    0.09519      0.00000     0.40376    0.00105     0.40481
      H   28    0.08960      0.00000     0.40959    0.00081     0.41040
      H   29    0.09516      0.00000     0.40386    0.00098     0.40484
      H   30    0.09896      0.00000     0.40001    0.00103     0.40104
      H   31    0.08685      0.00000     0.41193    0.00122     0.41315
      H   32    0.09097      0.00000     0.40777    0.00126     0.40903
      H   33    0.11337      0.00000     0.38554    0.00110     0.38663
      H   34    0.10992      0.00000     0.38886    0.00122     0.39008
      H   35    0.18312      0.00000     0.31534    0.00154     0.31688
      H   36    0.18334      0.00000     0.31534    0.00133     0.31666
      H   37    0.18963      0.00000     0.30751    0.00286     0.31037
      H   38    0.08853      0.00000     0.41020    0.00127     0.41147
      H   39    0.09488      0.00000     0.40412    0.00100     0.40512
      H   40    0.11330      0.00000     0.38479    0.00191     0.38670
 =======================================================================
   * Total *   -0.00000     19.99266    54.75933    0.24801    75.00000

 Normal termination of Gaussian 16 at Mon Dec 14 15:54:45 2020.
