 Gaussian 16, Revision A.03,

 -----------------------------------------------------------
 # opt freq B3LYP/6-31G(d) empiricaldispersion=gd3bj scf=xqc
 -----------------------------------------------------------

 -------------------------------
 CID_152609493_JID_4429_neutraal
 -------------------------------
 Symbolic Z-matrix:
 Charge =  0 Multiplicity = 1

 SCF Done:  E(RB3LYP) =  -638.148694547     A.U. after   16 cycles
 SCF Done:  E(RB3LYP) =  -638.153298438     A.U. after   14 cycles
 SCF Done:  E(RB3LYP) =  -638.154567602     A.U. after   14 cycles
 SCF Done:  E(RB3LYP) =  -638.154974343     A.U. after   13 cycles
 SCF Done:  E(RB3LYP) =  -638.155053782     A.U. after   13 cycles
 SCF Done:  E(RB3LYP) =  -638.155087640     A.U. after   13 cycles
 SCF Done:  E(RB3LYP) =  -638.155131209     A.U. after   10 cycles
 SCF Done:  E(RB3LYP) =  -638.155139262     A.U. after   11 cycles
 SCF Done:  E(RB3LYP) =  -638.155142313     A.U. after   10 cycles
 SCF Done:  E(RB3LYP) =  -638.155143741     A.U. after    9 cycles
 SCF Done:  E(RB3LYP) =  -638.155144799     A.U. after    9 cycles
 SCF Done:  E(RB3LYP) =  -638.155145023     A.U. after    9 cycles
 SCF Done:  E(RB3LYP) =  -638.155145058     A.U. after    8 cycles
 SCF Done:  E(RB3LYP) =  -638.155145067     A.U. after    7 cycles
 Optimization completed.
    -- Stationary point found.
 Normal termination of Gaussian 16 at Thu Dec 10 09:43:17 2020.

 --------------------------------------------------------------------
 #N Geom=AllCheck Guess=TCheck SCRF=Check GenChk RB3LYP/6-31G(d) Freq
 --------------------------------------------------------------------

 Structure from the checkpoint file:  "JID_4429.chk"
 -------------------------------
 CID_152609493_JID_4429_neutraal
 -------------------------------
 Charge =  0 Multiplicity = 1

 SCF Done:  E(RB3LYP) =  -638.155145067     A.U. after    1 cycles

  Exact polarizability: 153.618  17.483 120.665  -9.810  11.266  81.941
 Approx polarizability: 238.578  35.828 211.478 -11.961  39.917 163.420

                      1                      2                      3
                      A                      A                      A
 Frequencies --     23.0297                41.4550                99.2112
 Red. masses --      9.1190                 7.1749                 6.7519
 Frc consts  --      0.0028                 0.0073                 0.0392
 IR Inten    --      0.7452                 1.6144                 4.5088

                      4                      5                      6
                      A                      A                      A
 Frequencies --    144.9873               155.2729               246.0771
 Red. masses --      6.2419                 5.7977                 2.6692
 Frc consts  --      0.0773                 0.0824                 0.0952
 IR Inten    --      1.0136                 1.4096                 7.4504

                      7                      8                      9
                      A                      A                      A
 Frequencies --    249.1292               278.8819               333.6387
 Red. masses --      5.1920                 1.0613                 4.6220
 Frc consts  --      0.1899                 0.0486                 0.3031
 IR Inten    --      1.9550                23.4119                 5.2894

                     10                     11                     12
                      A                      A                      A
 Frequencies --    361.3182               421.5076               443.0008
 Red. masses --      3.4456                 5.4851                 3.2296
 Frc consts  --      0.2650                 0.5742                 0.3734
 IR Inten    --      0.5833                 2.7270                12.2313

                     13                     14                     15
                      A                      A                      A
 Frequencies --    465.2391               510.0867               577.8829
 Red. masses --      5.9886                 4.4667                13.1889
 Frc consts  --      0.7637                 0.6847                 2.5950
 IR Inten    --      1.6179                 7.1396                24.1829

                     16                     17                     18
                      A                      A                      A
 Frequencies --    601.8462               615.1019               631.9725
 Red. masses --      5.0967                 1.9386                 4.2715
 Frc consts  --      1.0877                 0.4321                 1.0052
 IR Inten    --     11.0678               221.2381                 4.8641

                     19                     20                     21
                      A                      A                      A
 Frequencies --    659.6492               685.4112               749.8267
 Red. masses --      2.4353                 3.7173                 5.1874
 Frc consts  --      0.6244                 1.0289                 1.7184
 IR Inten    --    181.2093                22.2508                10.3118

                     22                     23                     24
                      A                      A                      A
 Frequencies --    761.0215               807.5276               811.1552
 Red. masses --      3.3517                 2.3258                 2.0724
 Frc consts  --      1.1437                 0.8936                 0.8034
 IR Inten    --      7.8951                14.3228                17.1515

                     25                     26                     27
                      A                      A                      A
 Frequencies --    820.8580               826.1592               853.7863
 Red. masses --      1.8385                 1.6272                 5.2506
 Frc consts  --      0.7299                 0.6544                 2.2550
 IR Inten    --     59.6537                27.5601                 2.7913

                     28                     29                     30
                      A                      A                      A
 Frequencies --    903.4345               944.1832               964.8431
 Red. masses --      6.3994                 1.2829                 3.1321
 Frc consts  --      3.0774                 0.6738                 1.7179
 IR Inten    --     75.7250                 0.4335                 7.8743

                     31                     32                     33
                      A                      A                      A
 Frequencies --   1030.7015              1102.2798              1120.8499
 Red. masses --      2.0512                 3.2433                 1.4414
 Frc consts  --      1.2839                 2.3217                 1.0669
 IR Inten    --     11.9237                 2.1030                 0.8806

                     34                     35                     36
                      A                      A                      A
 Frequencies --   1161.8460              1216.6990              1234.1407
 Red. masses --      1.3139                 1.7688                 1.8066
 Frc consts  --      1.0450                 1.5427                 1.6212
 IR Inten    --      1.9575                51.1566                17.2237

                     37                     38                     39
                      A                      A                      A
 Frequencies --   1265.0987              1299.3635              1321.3189
 Red. masses --      2.0380                 4.6512                 2.2542
 Frc consts  --      1.9218                 4.6267                 2.3188
 IR Inten    --    105.6020               201.8270                13.5031

                     40                     41                     42
                      A                      A                      A
 Frequencies --   1329.9430              1376.8347              1403.1242
 Red. masses --      1.9949                 2.1157                 5.8037
 Frc consts  --      2.0789                 2.3630                 6.7321
 IR Inten    --     33.4799                28.2842                42.4217

                     43                     44                     45
                      A                      A                      A
 Frequencies --   1410.2669              1430.0935              1505.0355
 Red. masses --      2.4896                 1.6154                 2.6930
 Frc consts  --      2.9173                 1.9465                 3.5941
 IR Inten    --     26.3731                 8.0146                51.1216

                     46                     47                     48
                      A                      A                      A
 Frequencies --   1519.8345              1548.8299              1564.3592
 Red. masses --      1.1871                 4.6364                 4.1562
 Frc consts  --      1.6156                 6.5529                 5.9926
 IR Inten    --     14.5123                29.0418                78.5530

                     49                     50                     51
                      A                      A                      A
 Frequencies --   1639.0785              1686.8521              1698.5289
 Red. masses --      7.0885                 2.3141                 1.6968
 Frc consts  --     11.2204                 3.8796                 2.8842
 IR Inten    --     16.3719                30.6714               156.2192

                     52                     53                     54
                      A                      A                      A
 Frequencies --   2268.9334              3070.6364              3145.3703
 Red. masses --     13.6602                 1.0651                 1.1023
 Frc consts  --     41.4334                 5.9171                 6.4254
 IR Inten    --    406.7824                39.8641                 7.5323

                     55                     56                     57
                      A                      A                      A
 Frequencies --   3182.4074              3196.4971              3218.4159
 Red. masses --      1.0886                 1.0909                 1.0935
 Frc consts  --      6.4959                 6.5671                 6.6734
 IR Inten    --     16.2659                 9.6111                10.3202

                     58                     59                     60
                      A                      A                      A
 Frequencies --   3247.7393              3546.9502              3644.8745
 Red. masses --      1.0962                 1.0481                 1.0977
 Frc consts  --      6.8126                 7.7686                 8.5924
 IR Inten    --      1.0393                12.4661                 7.5846

 - Thermochemistry -
 -------------------
 Temperature   298.150 Kelvin.  Pressure   1.00000 Atm.
 Atom     1 has atomic number  6 and mass  12.00000

 Molecular mass:   188.08104 amu.
 Principal axes and moments of inertia in atomic units:
                           1         2         3
     Eigenvalues --  1596.055183458.662624305.56514
           X            0.99942   0.02693  -0.02101
           Y           -0.02665   0.99955   0.01373
           Z            0.02137  -0.01316   0.99968
 This molecule is an asymmetric top.
 Rotational symmetry number  1.
 Warning -- assumption of classical behavior for rotation
           may cause significant error
 Rotational temperatures (Kelvin)      0.05427     0.02504     0.02012
 Rotational constants (GHZ):           1.13075     0.52180     0.41916
 Zero-point vibrational energy     438876.4 (Joules/Mol)
                                  104.89397 (Kcal/Mol)
 Warning -- explicit consideration of  17 degrees of freedom as
           vibrations may cause significant error
 Vibrational temperatures:     33.13    59.64   142.74   208.60   223.40
          (Kelvin)            354.05   358.44   401.25   480.03   519.86
                              606.46   637.38   669.38   733.90   831.44
                              865.92   884.99   909.27   949.09   986.15
                             1078.83  1094.94  1161.85  1167.07  1181.03
                             1188.66  1228.41  1299.84  1358.47  1388.19
                             1482.95  1585.93  1612.65  1671.64  1750.56
                             1775.65  1820.19  1869.49  1901.08  1913.49
                             1980.96  2018.78  2029.06  2057.59  2165.41
                             2186.70  2228.42  2250.76  2358.27  2427.00
                             2443.80  3264.49  4417.96  4525.49  4578.77
                             4599.05  4630.58  4672.77  5103.27  5244.16

 Zero-point correction=                           0.167159 (Hartree/Particle)
 Thermal correction to Energy=                    0.178731
 Thermal correction to Enthalpy=                  0.179675
 Thermal correction to Gibbs Free Energy=         0.127988
 Sum of electronic and zero-point Energies=           -637.987986
 Sum of electronic and thermal Energies=              -637.976414
 Sum of electronic and thermal Enthalpies=            -637.975470
 Sum of electronic and thermal Free Energies=         -638.027157

                     E (Thermal)             CV                S
                      KCal/Mol        Cal/Mol-Kelvin    Cal/Mol-Kelvin
 Total                  112.155             44.042            108.784
 Electronic               0.000              0.000              0.000
 Translational            0.889              2.981             41.601
 Rotational               0.889              2.981             31.542
 Vibrational            110.378             38.080             35.641
 Vibration     1          0.593              1.985              6.354
 Vibration     2          0.594              1.981              5.188
 Vibration     3          0.604              1.950              3.470
 Vibration     4          0.616              1.908              2.737
 Vibration     5          0.620              1.897              2.607
 Vibration     6          0.661              1.769              1.759
 Vibration     7          0.662              1.764              1.737
 Vibration     8          0.679              1.713              1.541
 Vibration     9          0.715              1.608              1.242
 Vibration    10          0.735              1.552              1.116
 Vibration    11          0.784              1.423              0.887
 Vibration    12          0.803              1.376              0.817
 Vibration    13          0.823              1.327              0.751
 Vibration    14          0.865              1.228              0.633
 Vibration    15          0.934              1.079              0.489
 Vibration    16          0.960              1.028              0.446
 Vibration    17          0.975              1.000              0.424

                           ! Non-Optimized Parameters !
 Normal termination of Gaussian 16 at Thu Dec 10 09:48:39 2020.

 ----------------------------------------------------------------------
 # B3LYP/6-311++G(d,p) empiricaldispersion=gd3bj scf=xqc pop=npa geom=c
 heck
 ----------------------------------------------------------------------

 ---------------------------------------
 CID_152609493_JID_4429_Energie_neutraal
 ---------------------------------------
 Structure from the checkpoint file:  "JID_4429.chk"
 Charge =  0 Multiplicity = 1

 SCF Done:  E(RB3LYP) =  -638.329784768     A.U. after   16 cycles
 Normal termination of Gaussian 16 at Thu Dec 10 09:50:30 2020.

 ----------------------------------------------------------------------
 # B3LYP/6-311++G(d,p) empiricaldispersion=gd3bj scf=xqc pop=npa geom=c
 heck
 ----------------------------------------------------------------------

 -------------------------------------
 CID_152609493_JID_4429_Energie_kation
 -------------------------------------
 Structure from the checkpoint file:  "JID_4429.chk"
 Charge =  1 Multiplicity = 2

 SCF Done:  E(UB3LYP) =  -638.053633117     A.U. after   26 cycles
 Normal termination of Gaussian 16 at Thu Dec 10 09:54:33 2020.
 Gaussian 16:  ES64L-G16RevA.03 25-Dec-2016

 ----------------------------------------------------------------------
 # B3LYP/6-311++G(d,p) empiricaldispersion=gd3bj scf=xqc pop=npa geom=c
 heck
 ----------------------------------------------------------------------

 ------------------------------------
 CID_152609493_JID_4429_Energie_anion
 ------------------------------------
 Structure from the checkpoint file:  "JID_4429.chk"
 Charge = -1 Multiplicity = 2

                         Standard orientation:
 ---------------------------------------------------------------------
 Center     Atomic      Atomic             Coordinates (Angstroms)
 Number     Number       Type             X           Y           Z
 ---------------------------------------------------------------------
      1          6           0       -2.894749    0.309164    0.495411
      2          6           0       -2.143048    1.472764    0.571447
      3          6           0       -0.815863    1.439545    0.131190
      4          6           0       -0.294176    0.228746   -0.376221
      5          6           0       -1.026707   -0.953480   -0.447751
      6          6           0       -2.354615   -0.903249   -0.005202
      7          7           0       -3.176340   -2.032881   -0.101942
      8          7           0        1.017622    0.527261   -0.726939
      9          6           0        1.212668    1.866749   -0.398930
     10          7           0        0.155557    2.440539    0.100925
     11          6           0        1.987624   -0.383117   -1.266352
     12          7           0        2.410144   -1.444582   -0.321889
     13          7           0        2.825056   -1.021495    0.766522
     14          7           0        3.209165   -0.746218    1.803471
     15          1           0       -3.930053    0.315399    0.826781
     16          1           0       -2.567576    2.390214    0.965980
     17          1           0       -0.592451   -1.879245   -0.813444
     18          1           0       -2.677962   -2.914544   -0.109242
     19          1           0       -3.936863   -2.053268    0.566448
     20          1           0        2.169447    2.342813   -0.576010
     21          1           0        1.570021   -0.923925   -2.117242
     22          1           0        2.850199    0.201456   -1.605853
 ---------------------------------------------------------------------

 SCF Done:  E(UB3LYP) =  -638.328394538     A.U. after   33 cycles
 SCF Done:  E(UB3LYP) =  -638.328394538     a.u. after    1 cycles

 The electronic state is 2-A.
 Alpha  occ. eigenvalues --  -14.33182 -14.26737 -14.23903 -14.22981 -14.21563
 Alpha  occ. eigenvalues --  -14.19975 -10.14681 -10.13504 -10.11511 -10.10755
 Alpha  occ. eigenvalues --  -10.08834 -10.07705 -10.06956 -10.06904  -1.00599
 Alpha  occ. eigenvalues --   -0.92095  -0.85211  -0.81863  -0.79044  -0.73155
 Alpha  occ. eigenvalues --   -0.65834  -0.62719  -0.62135  -0.53727  -0.50402
 Alpha  occ. eigenvalues --   -0.49608  -0.45826  -0.42378  -0.41569  -0.40902
 Alpha  occ. eigenvalues --   -0.39089  -0.37671  -0.36508  -0.34765  -0.33901
 Alpha  occ. eigenvalues --   -0.33337  -0.32219  -0.31803  -0.30438  -0.29439
 Alpha  occ. eigenvalues --   -0.26972  -0.26138  -0.21376  -0.19311  -0.18829
 Alpha  occ. eigenvalues --   -0.17779  -0.13660  -0.13147  -0.09969   0.04206
 Alpha virt. eigenvalues --    0.05917   0.07208   0.07909   0.08119   0.09130
 Alpha virt. eigenvalues --    0.09863   0.11098   0.11203   0.11874   0.12190
 Alpha virt. eigenvalues --    0.13073   0.13523   0.14034   0.15632   0.16280

  Beta  occ. eigenvalues --  -14.32872 -14.26739 -14.23462 -14.23046 -14.21512
  Beta  occ. eigenvalues --  -14.19974 -10.14543 -10.13498 -10.11510 -10.10753
  Beta  occ. eigenvalues --  -10.08834 -10.07703 -10.06943 -10.06883  -0.99989
  Beta  occ. eigenvalues --   -0.92071  -0.84934  -0.81803  -0.78989  -0.73130
  Beta  occ. eigenvalues --   -0.65755  -0.62618  -0.62025  -0.53692  -0.50358
  Beta  occ. eigenvalues --   -0.49500  -0.45718  -0.42295  -0.41276  -0.40803
  Beta  occ. eigenvalues --   -0.38496  -0.37574  -0.36286  -0.34149  -0.33841
  Beta  occ. eigenvalues --   -0.33142  -0.31932  -0.31444  -0.30026  -0.29318
  Beta  occ. eigenvalues --   -0.26944  -0.26112  -0.21260  -0.19156  -0.18501
  Beta  occ. eigenvalues --   -0.17538  -0.13538  -0.13106  -0.09942
  Beta virt. eigenvalues --    0.06931   0.07251   0.07900   0.08449   0.09356
  Beta virt. eigenvalues --    0.10150   0.10557   0.11548   0.11673   0.12260
  Beta virt. eigenvalues --    0.12426   0.13355   0.13559   0.14089   0.15973

 Mulliken charges and spin densities:
               1          2
     1  C    0.282492  -0.317105
     2  C   -0.501643   0.189454
     3  C   -0.339566  -0.017554
     4  C    0.810391  -0.434543
     5  C   -0.384617   0.097252
     6  C   -0.073489  -0.450784
     7  N   -0.263182  -0.040169
     8  N   -0.118868   0.174446
     9  C    0.365145  -0.088349
    10  N   -0.139967  -0.001366
    11  C    1.039691  -1.422666
    12  N   -0.667762   0.389290
    13  N    0.373723   0.035411
    14  N   -0.108993   0.100273
    15  H   -0.114005   0.256241
    16  H    0.134084   0.021501
    17  H   -0.296750   0.472671
    18  H   -0.133432   0.375916
    19  H   -0.185221   0.427677
    20  H    0.127697   0.058112
    21  H   -0.460526   0.683744
    22  H   -0.345203   0.490547
 Sum of Mulliken charges =  -1.00000   1.00000

 Dipole moment (field-independent basis, Debye):
    X=             -0.6313    Y=              3.7172    Z=             -0.1335  Tot=              3.7727
 Quadrupole moment (field-independent basis, Debye-Ang):
   XX=           -134.3675   YY=           -118.7148   ZZ=           -110.6869
   XY=             -3.3934   XZ=             -3.4117   YZ=             -2.2900

 Summary of Natural Population Analysis:

                                       Natural Population
                Natural  -----------------------------------------------
    Atom  No    Charge         Core      Valence    Rydberg      Total
 -----------------------------------------------------------------------
      C    1   -0.13067      0.99954     2.12101    0.01012     3.13067
      C    2   -0.09094      0.99953     2.08349    0.00793     3.09094
      C    3    0.03665      0.99945     1.94966    0.01425     2.96335
      C    4    0.08201      0.99946     1.90744    0.01109     2.91799
      C    5   -0.13988      0.99948     2.13137    0.00903     3.13988
      C    6    0.08629      0.99952     1.90310    0.01109     2.91371
      N    7   -0.39674      0.99972     2.88666    0.01036     3.89674
      N    8   -0.22419      0.99962     2.71385    0.01072     3.72419
      C    9    0.12410      0.99964     1.85893    0.01733     2.87590
      N   10   -0.25180      0.99970     2.74287    0.00923     3.75180
      C   11    0.01221      0.99959     1.97287    0.01534     2.98779
      N   12   -0.22151      0.99972     2.70712    0.01467     3.72151
      N   13    0.13768      0.99970     2.34700    0.01562     3.36232
      N   14    0.00685      0.99982     2.47985    0.01348     3.49315
      H   15    0.09814      0.00000     0.40097    0.00088     0.40186
      H   16    0.10158      0.00000     0.39721    0.00121     0.39842
      H   17    0.10970      0.00000     0.38849    0.00181     0.39030
      H   18    0.18678      0.00000     0.31032    0.00290     0.31322
      H   19    0.18526      0.00000     0.31137    0.00337     0.31474
      H   20    0.09280      0.00000     0.40593    0.00127     0.40720
      H   21    0.10251      0.00000     0.39452    0.00296     0.39749
      H   22    0.09315      0.00000     0.40485    0.00200     0.40685
 =======================================================================
   * Total *   -0.00000     13.99447    34.81886    0.18667    49.00000

 Normal termination of Gaussian 16 at Thu Dec 10 09:59:49 2020.
