 Gaussian 16, Revision A.03,

 -----------------------------------------------------------
 # opt freq B3LYP/6-31G(d) empiricaldispersion=gd3bj scf=xqc
 -----------------------------------------------------------

 -------------------------------
 CID_115758757_JID_5700_neutraal
 -------------------------------
 Symbolic Z-matrix:
 Charge =  0 Multiplicity = 1

 SCF Done:  E(RB3LYP) =  -713.439228477     A.U. after   13 cycles
 SCF Done:  E(RB3LYP) =  -713.445915667     A.U. after   11 cycles
 SCF Done:  E(RB3LYP) =  -713.446803675     A.U. after   11 cycles
 SCF Done:  E(RB3LYP) =  -713.446974510     A.U. after   11 cycles
 SCF Done:  E(RB3LYP) =  -713.447209310     A.U. after   10 cycles
 SCF Done:  E(RB3LYP) =  -713.447323055     A.U. after   10 cycles
 SCF Done:  E(RB3LYP) =  -713.447336424     A.U. after    9 cycles
 SCF Done:  E(RB3LYP) =  -713.447359529     A.U. after    9 cycles
 SCF Done:  E(RB3LYP) =  -713.447365333     A.U. after    9 cycles
 SCF Done:  E(RB3LYP) =  -713.447367928     A.U. after    8 cycles
 SCF Done:  E(RB3LYP) =  -713.447382061     A.U. after   11 cycles
 SCF Done:  E(RB3LYP) =  -713.447382067     A.U. after    9 cycles
 SCF Done:  E(RB3LYP) =  -713.447381994     A.U. after    9 cycles
 SCF Done:  E(RB3LYP) =  -713.447382019     A.U. after    7 cycles
 SCF Done:  E(RB3LYP) =  -713.447381999     A.U. after    6 cycles
 SCF Done:  E(RB3LYP) =  -713.447381986     A.U. after    6 cycles
 Optimization completed.
    -- Stationary point found.
 Normal termination of Gaussian 16 at Thu Dec 10 17:16:18 2020.

 --------------------------------------------------------------------
 #N Geom=AllCheck Guess=TCheck SCRF=Check GenChk RB3LYP/6-31G(d) Freq
 --------------------------------------------------------------------

 Structure from the checkpoint file:  "JID_5700.chk"
 -------------------------------
 CID_115758757_JID_5700_neutraal
 -------------------------------
 Charge =  0 Multiplicity = 1

 SCF Done:  E(RB3LYP) =  -713.447381986     A.U. after    1 cycles

  Exact polarizability: 145.676  -3.885 127.167   0.249   3.285 119.141
 Approx polarizability: 180.929  -1.212 181.940   0.835   4.528 174.748

                      1                      2                      3
                      A                      A                      A
 Frequencies --      6.6461                21.7778                27.8976
 Red. masses --      3.6409                 4.9455                 2.9807
 Frc consts  --      0.0001                 0.0014                 0.0014
 IR Inten    --      0.6166                 1.2195                 0.3446

                      4                      5                      6
                      A                      A                      A
 Frequencies --     54.1149                93.6115               120.8223
 Red. masses --      4.2122                 2.6687                 2.5426
 Frc consts  --      0.0073                 0.0138                 0.0219
 IR Inten    --      0.5754                 2.6545                 5.9446

                      7                      8                      9
                      A                      A                      A
 Frequencies --    138.9826               148.6415               154.2169
 Red. masses --      4.0938                 3.3558                 2.3957
 Frc consts  --      0.0466                 0.0437                 0.0336
 IR Inten    --      2.3741                 0.1352                 2.4100

                     10                     11                     12
                      A                      A                      A
 Frequencies --    160.2050               204.9596               253.4664
 Red. masses --      3.2471                 3.2097                 1.1150
 Frc consts  --      0.0491                 0.0794                 0.0422
 IR Inten    --      1.0161                 2.4732                 2.9024

                     13                     14                     15
                      A                      A                      A
 Frequencies --    263.4540               286.6654               305.2998
 Red. masses --      2.6736                 3.2080                 1.1302
 Frc consts  --      0.1093                 0.1553                 0.0621
 IR Inten    --      9.0681                 2.5281               136.3668

                     16                     17                     18
                      A                      A                      A
 Frequencies --    310.9848               344.3406               363.6307
 Red. masses --      1.2561                 2.9906                 1.9011
 Frc consts  --      0.0716                 0.2089                 0.1481
 IR Inten    --    108.6480                14.4538                24.5433

                     19                     20                     21
                      A                      A                      A
 Frequencies --    380.7054               404.0740               434.5639
 Red. masses --      2.0749                 1.9671                 2.8173
 Frc consts  --      0.1772                 0.1892                 0.3135
 IR Inten    --     18.7005                 4.8076                19.8601

                     22                     23                     24
                      A                      A                      A
 Frequencies --    485.3056               503.3804               545.6579
 Red. masses --      2.1099                 3.2017                 2.1235
 Frc consts  --      0.2928                 0.4780                 0.3725
 IR Inten    --      2.9258                13.2401                18.9068

                     25                     26                     27
                      A                      A                      A
 Frequencies --    582.2820               633.9990               665.0067
 Red. masses --      2.3256                 3.9017                 2.8001
 Frc consts  --      0.4646                 0.9240                 0.7296
 IR Inten    --      3.7260                18.4381                 0.8678

                     28                     29                     30
                      A                      A                      A
 Frequencies --    757.6922               804.9563               813.4325
 Red. masses --      1.6614                 2.6742                 2.4514
 Frc consts  --      0.5620                 1.0209                 0.9557
 IR Inten    --     10.5628                 1.4817                 1.2956

                     31                     32                     33
                      A                      A                      A
 Frequencies --    838.3345               857.3500               880.5887
 Red. masses --      2.2411                 1.9577                 2.0265
 Frc consts  --      0.9280                 0.8479                 0.9259
 IR Inten    --      8.0173                 0.3110                 7.5427

                     34                     35                     36
                      A                      A                      A
 Frequencies --    898.0283               918.5547               933.5088
 Red. masses --      2.0349                 2.9086                 2.1914
 Frc consts  --      0.9669                 1.4459                 1.1251
 IR Inten    --     12.4366                 2.9460                39.0720

                     37                     38                     39
                      A                      A                      A
 Frequencies --    950.9813               977.6058               987.0258
 Red. masses --      1.7949                 1.8364                 2.1020
 Frc consts  --      0.9564                 1.0341                 1.2065
 IR Inten    --      4.6692                 0.4199                19.3564

                     40                     41                     42
                      A                      A                      A
 Frequencies --   1017.1090              1034.7857              1035.5441
 Red. masses --      2.8633                 1.9642                 2.5497
 Frc consts  --      1.7452                 1.2392                 1.6109
 IR Inten    --      2.6136                36.9551                40.2782

                     43                     44                     45
                      A                      A                      A
 Frequencies --   1062.2200              1070.5873              1090.9535
 Red. masses --      1.5916                 1.7487                 2.0907
 Frc consts  --      1.0580                 1.1809                 1.4660
 IR Inten    --     19.7040                 4.1672                33.9954

                     46                     47                     48
                      A                      A                      A
 Frequencies --   1108.4407              1113.7180              1131.9514
 Red. masses --      3.4729                 2.1925                 1.9883
 Frc consts  --      2.5140                 1.6023                 1.5010
 IR Inten    --     29.2208                 8.4835                 8.7104

                     49                     50                     51
                      A                      A                      A
 Frequencies --   1161.9857              1174.3960              1179.7945
 Red. masses --      2.0320                 2.1581                 3.4206
 Frc consts  --      1.6165                 1.7537                 2.8052
 IR Inten    --     84.6567                 3.0915               107.4151

                     52                     53                     54
                      A                      A                      A
 Frequencies --   1180.7473              1222.5854              1237.5481
 Red. masses --      2.8640                 1.5159                 1.3432
 Frc consts  --      2.3525                 1.3350                 1.2120
 IR Inten    --     84.8951                15.8178                13.1336

                     55                     56                     57
                      A                      A                      A
 Frequencies --   1255.3973              1274.5439              1285.4952
 Red. masses --      1.2430                 1.1476                 1.1869
 Frc consts  --      1.1542                 1.0983                 1.1556
 IR Inten    --      7.6717                 2.8458                 7.0403

                     58                     59                     60
                      A                      A                      A
 Frequencies --   1300.3489              1308.9228              1325.7102
 Red. masses --      1.4151                 1.2596                 1.3487
 Frc consts  --      1.4098                 1.2715                 1.3966
 IR Inten    --      4.7508                 3.8807                 5.6403

                     61                     62                     63
                      A                      A                      A
 Frequencies --   1333.2088              1334.1993              1367.9285
 Red. masses --      1.2704                 1.2591                 1.2201
 Frc consts  --      1.3304                 1.3206                 1.3452
 IR Inten    --      2.8520                10.7320                11.1723

                     64                     65                     66
                      A                      A                      A
 Frequencies --   1376.0352              1387.9827              1397.7787
 Red. masses --      1.5401                 1.3877                 1.2642
 Frc consts  --      1.7182                 1.5751                 1.4552
 IR Inten    --     17.6287                24.1476                 5.8908

                     67                     68                     69
                      A                      A                      A
 Frequencies --   1400.8774              1402.1282              1412.2092
 Red. masses --      1.2418                 1.2726                 1.2872
 Frc consts  --      1.4359                 1.4741                 1.5125
 IR Inten    --      3.3648                 8.4927                32.1708

                     70                     71                     72
                      A                      A                      A
 Frequencies --   1422.0590              1433.3360              1438.1024
 Red. masses --      1.2900                 1.2495                 1.3145
 Frc consts  --      1.5370                 1.5125                 1.6017
 IR Inten    --      5.5641                 9.2340                35.7297

                     73                     74                     75
                      A                      A                      A
 Frequencies --   1445.9832              1446.6642              1447.8845
 Red. masses --      1.3074                 1.3005                 1.4369
 Frc consts  --      1.6106                 1.6036                 1.7748
 IR Inten    --     14.1216                39.7716                 1.4310

                     76                     77                     78
                      A                      A                      A
 Frequencies --   1495.6894              1505.4998              1510.2181
 Red. masses --      1.0866                 1.0937                 1.0777
 Frc consts  --      1.4322                 1.4605                 1.4482
 IR Inten    --      7.8273                 4.6473                 2.9468

                     79                     80                     81
                      A                      A                      A
 Frequencies --   1511.5292              1519.7937              1520.9932
 Red. masses --      1.0831                 1.0907                 1.0896
 Frc consts  --      1.4580                 1.4843                 1.4852
 IR Inten    --      0.5438                 1.6480                 5.3848

                     82                     83                     84
                      A                      A                      A
 Frequencies --   1523.7367              1531.2126              1541.5554
 Red. masses --      1.0610                 1.0615                 1.0973
 Frc consts  --      1.4515                 1.4663                 1.5363
 IR Inten    --      5.8449                 5.1107                 2.4705

                     85                     86                     87
                      A                      A                      A
 Frequencies --   1553.3179              2954.2884              2978.1567
 Red. masses --      1.0884                 1.0708                 1.0826
 Frc consts  --      1.5472                 5.5066                 5.6574
 IR Inten    --      8.6155                40.2493                41.3514

                     88                     89                     90
                      A                      A                      A
 Frequencies --   2987.9711              3004.2136              3016.6226
 Red. masses --      1.0727                 1.0653                 1.0737
 Frc consts  --      5.6429                 5.6646                 5.7565
 IR Inten    --     87.3121                42.9961                70.9285

                     91                     92                     93
                      A                      A                      A
 Frequencies --   3043.4731              3054.0391              3054.4248
 Red. masses --      1.0618                 1.0512                 1.0596
 Frc consts  --      5.7950                 5.7770                 5.8242
 IR Inten    --     14.8848                12.5617                18.4438

                     94                     95                     96
                      A                      A                      A
 Frequencies --   3059.4813              3064.1162              3072.5215
 Red. masses --      1.0610                 1.0751                 1.0908
 Frc consts  --      5.8514                 5.9474                 6.0671
 IR Inten    --     27.8769                55.2784                70.4747

                     97                     98                     99
                      A                      A                      A
 Frequencies --   3075.9893              3077.2079              3092.1341
 Red. masses --      1.0713                 1.0909                 1.1020
 Frc consts  --      5.9724                 6.0862                 6.2079
 IR Inten    --     38.8745                40.6784                33.5457

                    100                    101                    102
                      A                      A                      A
 Frequencies --   3097.4831              3098.7773              3117.8675
 Red. masses --      1.1021                 1.1012                 1.0924
 Frc consts  --      6.2297                 6.2301                 6.2568
 IR Inten    --     29.0910                30.3952                24.8923

                    103                    104                    105
                      A                      A                      A
 Frequencies --   3124.3760              3134.1011              3136.9528
 Red. masses --      1.1004                 1.1018                 1.0962
 Frc consts  --      6.3288                 6.3763                 6.3558
 IR Inten    --     38.2217                34.0331                23.7883

                    106                    107                    108
                      A                      A                      A
 Frequencies --   3148.7469              3734.8228              3738.1601
 Red. masses --      1.0961                 1.0660                 1.0657
 Frc consts  --      6.4029                 8.7613                 8.7744
 IR Inten    --     40.5259                 8.6996                 5.1196

 - Thermochemistry -
 -------------------
 Temperature   298.150 Kelvin.  Pressure   1.00000 Atm.
 Atom     1 has atomic number  6 and mass  12.00000

 Molecular mass:   217.16779 amu.
 Principal axes and moments of inertia in atomic units:
                           1         2         3
     Eigenvalues --  1942.587346196.472096854.95137
           X            0.99997  -0.00719   0.00209
           Y            0.00720   0.99997  -0.00334
           Z           -0.00206   0.00336   0.99999
 This molecule is an asymmetric top.
 Rotational symmetry number  1.
 Warning -- assumption of classical behavior for rotation
           may cause significant error
 Rotational temperatures (Kelvin)      0.04459     0.01398     0.01264
 Rotational constants (GHZ):           0.92904     0.29125     0.26328
 Zero-point vibrational energy     904444.9 (Joules/Mol)
                                  216.16753 (Kcal/Mol)
 Warning -- explicit consideration of  25 degrees of freedom as
           vibrations may cause significant error
 Vibrational temperatures:      9.56    31.33    40.14    77.86   134.69
          (Kelvin)            173.84   199.96   213.86   221.88   230.50
                              294.89   364.68   379.05   412.45   439.26
                              447.44   495.43   523.18   547.75   581.37
                              625.24   698.25   724.25   785.08   837.77
                              912.18   956.80  1090.15  1158.15  1170.35
                             1206.18  1233.54  1266.97  1292.06  1321.60
                             1343.11  1368.25  1406.56  1420.11  1463.39
                             1488.83  1489.92  1528.30  1540.34  1569.64
                             1594.80  1602.39  1628.63  1671.84  1689.69
                             1697.46  1698.83  1759.03  1780.56  1806.24
                             1833.78  1849.54  1870.91  1883.25  1907.40
                             1918.19  1919.62  1968.14  1979.81  1997.00
                             2011.09  2015.55  2017.35  2031.85  2046.03
                             2062.25  2069.11  2080.45  2081.43  2083.18
                             2151.96  2166.08  2172.87  2174.75  2186.64
                             2188.37  2192.32  2203.07  2217.95  2234.88
                             4250.56  4284.90  4299.02  4322.39  4340.25
                             4378.88  4394.08  4394.64  4401.91  4408.58
                             4420.67  4425.66  4427.42  4448.89  4456.59
                             4458.45  4485.92  4495.28  4509.27  4513.38
                             4530.34  5373.58  5378.38

 Zero-point correction=                           0.344485 (Hartree/Particle)
 Thermal correction to Energy=                    0.361627
 Thermal correction to Enthalpy=                  0.362571
 Thermal correction to Gibbs Free Energy=         0.296394
 Sum of electronic and zero-point Energies=           -713.102897
 Sum of electronic and thermal Energies=              -713.085755
 Sum of electronic and thermal Enthalpies=            -713.084811
 Sum of electronic and thermal Free Energies=         -713.150988

                     E (Thermal)             CV                S
                      KCal/Mol        Cal/Mol-Kelvin    Cal/Mol-Kelvin
 Total                  226.924             63.370            139.281
 Electronic               0.000              0.000              0.000
 Translational            0.889              2.981             42.030
 Rotational               0.889              2.981             32.778
 Vibrational            225.147             57.409             64.473
 Vibration     1          0.593              1.987              8.823
 Vibration     2          0.593              1.985              6.465
 Vibration     3          0.593              1.984              5.974
 Vibration     4          0.596              1.976              4.661
 Vibration     5          0.603              1.954              3.583
 Vibration     6          0.609              1.932              3.087
 Vibration     7          0.615              1.914              2.818
 Vibration     8          0.618              1.904              2.690
 Vibration     9          0.620              1.898              2.620
 Vibration    10          0.622              1.891              2.547
 Vibration    11          0.640              1.833              2.088
 Vibration    12          0.665              1.757              1.706
 Vibration    13          0.670              1.740              1.639
 Vibration    14          0.684              1.698              1.494
 Vibration    15          0.696              1.664              1.388
 Vibration    16          0.700              1.653              1.357
 Vibration    17          0.723              1.587              1.192
 Vibration    18          0.737              1.547              1.107
 Vibration    19          0.750              1.511              1.036
 Vibration    20          0.769              1.461              0.948
 Vibration    21          0.795              1.395              0.844
 Vibration    22          0.841              1.283              0.696
 Vibration    23          0.859              1.243              0.650
 Vibration    24          0.901              1.149              0.553
 Vibration    25          0.939              1.070              0.481

                           ! Non-Optimized Parameters !
 Normal termination of Gaussian 16 at Thu Dec 10 17:31:07 2020.

 ----------------------------------------------------------------------
 # B3LYP/6-311++G(d,p) empiricaldispersion=gd3bj scf=xqc pop=npa geom=c
 heck
 ----------------------------------------------------------------------

 ---------------------------------------
 CID_115758757_JID_5700_Energie_neutraal
 ---------------------------------------
 Structure from the checkpoint file:  "JID_5700.chk"
 Charge =  0 Multiplicity = 1

 SCF Done:  E(RB3LYP) =  -713.671758489     A.U. after   13 cycles
 Normal termination of Gaussian 16 at Thu Dec 10 17:38:27 2020.

 ----------------------------------------------------------------------
 # B3LYP/6-311++G(d,p) empiricaldispersion=gd3bj scf=xqc pop=npa geom=c
 heck
 ----------------------------------------------------------------------

 -------------------------------------
 CID_115758757_JID_5700_Energie_kation
 -------------------------------------
 Structure from the checkpoint file:  "JID_5700.chk"
 Charge =  1 Multiplicity = 2

 SCF Done:  E(UB3LYP) =  -713.393687039     A.U. after   22 cycles
 Normal termination of Gaussian 16 at Thu Dec 10 17:55:01 2020.
 Gaussian 16:  ES64L-G16RevA.03 25-Dec-2016

 ----------------------------------------------------------------------
 # B3LYP/6-311++G(d,p) empiricaldispersion=gd3bj scf=xqc pop=npa geom=c
 heck
 ----------------------------------------------------------------------

 ------------------------------------
 CID_115758757_JID_5700_Energie_anion
 ------------------------------------
 Structure from the checkpoint file:  "JID_5700.chk"
 Charge = -1 Multiplicity = 2

                         Standard orientation:
 ---------------------------------------------------------------------
 Center     Atomic      Atomic             Coordinates (Angstroms)
 Number     Number       Type             X           Y           Z
 ---------------------------------------------------------------------
      1          6           0        3.214580   -1.866677    1.179193
      2          6           0        3.305632   -1.300695   -0.239484
      3          6           0        1.995627   -0.701925   -0.791333
      4          6           0        1.561725    0.640799   -0.201638
      5          6           0        1.049450    0.659649    1.265760
      6          6           0        0.133030    1.906787    1.333911
      7          6           0        0.078341    2.422755   -0.130602
      8          7           0        0.526749    1.328603   -0.995783
      9          6           0       -0.517041    0.539813   -1.638881
     10          6           0       -1.494764   -0.287220   -0.797697
     11          8           0       -2.358538    0.593321   -0.084554
     12          6           0       -3.164786   -0.017495    0.900265
     13          6           0       -4.360402   -0.792048    0.351222
     14          8           0       -4.017046   -1.996665   -0.324768
     15          8           0        4.401074   -0.391449   -0.362084
     16          1           0        3.033615   -1.079632    1.918530
     17          1           0        4.154118   -2.364279    1.438930
     18          1           0        2.399863   -2.595054    1.263408
     19          1           0        3.574787   -2.125912   -0.909150
     20          1           0        2.143300   -0.550882   -1.866808
     21          1           0        1.202033   -1.451054   -0.675022
     22          1           0        2.439092    1.306244   -0.245356
     23          1           0        0.492418   -0.257005    1.490251
     24          1           0        1.872055    0.717469    1.985882
     25          1           0       -0.865991    1.639894    1.682683
     26          1           0        0.531068    2.669865    2.011040
     27          1           0       -0.917013    2.760062   -0.423148
     28          1           0        0.774794    3.265337   -0.248836
     29          1           0       -1.114891    1.231715   -2.244150
     30          1           0       -0.040015   -0.147340   -2.346423
     31          1           0       -2.077089   -0.939546   -1.460495
     32          1           0       -0.960432   -0.935704   -0.085709
     33          1           0       -2.554448   -0.680995    1.541481
     34          1           0       -3.537140    0.798214    1.532168
     35          1           0       -5.064838   -0.986661    1.178001
     36          1           0       -4.875516   -0.172950   -0.389167
     37          1           0       -3.578410   -2.577760    0.316338
     38          1           0        4.269110    0.311632    0.292990
 ---------------------------------------------------------------------

 SCF Done:  E(UB3LYP) =  -713.663141382     A.U. after   28 cycles

 The electronic state is 2-A.
 Alpha  occ. eigenvalues --  -19.03053 -19.02836 -19.02332 -14.20267 -10.13197
 Alpha  occ. eigenvalues --  -10.11986 -10.11898 -10.11211 -10.10314 -10.09895
 Alpha  occ. eigenvalues --  -10.09036 -10.07471 -10.06636 -10.06605 -10.06356
 Alpha  occ. eigenvalues --   -0.94474  -0.93306  -0.92125  -0.83455  -0.69757
 Alpha  occ. eigenvalues --   -0.68440  -0.65656  -0.63758  -0.61595  -0.58296
 Alpha  occ. eigenvalues --   -0.54804  -0.51652  -0.50789  -0.48217  -0.46006
 Alpha  occ. eigenvalues --   -0.42326  -0.40212  -0.39961  -0.39360  -0.38105
 Alpha  occ. eigenvalues --   -0.37163  -0.36968  -0.35453  -0.34673  -0.33811
 Alpha  occ. eigenvalues --   -0.32769  -0.32572  -0.31995  -0.30545  -0.29691
 Alpha  occ. eigenvalues --   -0.28149  -0.27767  -0.27056  -0.25769  -0.24666
 Alpha  occ. eigenvalues --   -0.24354  -0.24060  -0.23775  -0.23099  -0.22236
 Alpha  occ. eigenvalues --   -0.21939  -0.19727  -0.18719  -0.15522  -0.11451
 Alpha  occ. eigenvalues --    0.04093
 Alpha virt. eigenvalues --    0.05977   0.06781   0.07674   0.08155   0.08553
 Alpha virt. eigenvalues --    0.09258   0.09596   0.10020   0.10346   0.10769
 Alpha virt. eigenvalues --    0.11403   0.11985   0.12059   0.12710   0.12955

  Beta  occ. eigenvalues --  -19.03034 -19.02827 -19.02286 -14.20263 -10.13190
  Beta  occ. eigenvalues --  -10.11955 -10.11875 -10.11195 -10.10306 -10.09892
  Beta  occ. eigenvalues --  -10.09032 -10.07464 -10.06605 -10.06584 -10.06346
  Beta  occ. eigenvalues --   -0.94446  -0.93262  -0.92034  -0.83446  -0.69733
  Beta  occ. eigenvalues --   -0.68416  -0.65608  -0.63729  -0.61549  -0.58260
  Beta  occ. eigenvalues --   -0.54753  -0.51592  -0.50728  -0.48184  -0.45975
  Beta  occ. eigenvalues --   -0.42261  -0.40188  -0.39906  -0.39325  -0.38043
  Beta  occ. eigenvalues --   -0.37129  -0.36926  -0.35424  -0.34632  -0.33785
  Beta  occ. eigenvalues --   -0.32738  -0.32547  -0.31959  -0.30513  -0.29666
  Beta  occ. eigenvalues --   -0.28120  -0.27729  -0.27031  -0.25750  -0.24641
  Beta  occ. eigenvalues --   -0.24312  -0.24034  -0.23745  -0.23061  -0.22209
  Beta  occ. eigenvalues --   -0.21915  -0.19672  -0.18696  -0.15478  -0.11414
  Beta virt. eigenvalues --    0.06301   0.07164   0.07202   0.07824   0.08784
  Beta virt. eigenvalues --    0.08839   0.09345   0.09750   0.10273   0.10689
  Beta virt. eigenvalues --    0.11122   0.11564   0.12153   0.12245   0.12957

 Mulliken charges and spin densities:
               1          2
     1  C    0.660069  -1.185023
     2  C   -0.908413   0.579564
     3  C   -0.073055   0.070131
     4  C   -0.613729  -0.019175
     5  C    1.029484  -1.224640
     6  C   -0.900540   0.581454
     7  C    0.226159  -0.560684
     8  N    0.307662   0.003670
     9  C   -0.488193  -0.364991
    10  C   -0.104662  -0.020394
    11  O   -0.064474   0.024119
    12  C   -0.470640   0.423195
    13  C    1.476583  -1.894807
    14  O   -0.244194   0.033612
    15  O   -0.183778  -0.018697
    16  H   -0.049640   0.212978
    17  H   -0.117573   0.287790
    18  H   -0.312783   0.456220
    19  H    0.042169   0.161345
    20  H    0.129868   0.044191
    21  H   -0.109133   0.231192
    22  H   -0.004092   0.157298
    23  H    0.171834  -0.006886
    24  H   -0.138050   0.268970
    25  H   -0.069973   0.239988
    26  H   -0.213005   0.374480
    27  H    0.203469  -0.028094
    28  H    0.042606   0.088343
    29  H    0.176607  -0.002860
    30  H    0.044078   0.097418
    31  H    0.197427   0.010697
    32  H    0.504192  -0.249849
    33  H   -0.480671   0.639473
    34  H   -0.170966   0.288699
    35  H   -0.533227   0.683146
    36  H    0.168531   0.001438
    37  H   -0.261128   0.512554
    38  H    0.131183   0.104133
 Sum of Mulliken charges =  -1.00000   1.00000

 Dipole moment (field-independent basis, Debye):
    X=              1.8583    Y=              5.0019    Z=             -3.9625  Tot=              6.6464
 Quadrupole moment (field-independent basis, Debye-Ang):
   XX=           -180.7214   YY=           -141.9621   ZZ=           -131.6471
   XY=            -14.5328   XZ=              6.8450   YZ=              6.3412

 Summary of Natural Population Analysis:

                                       Natural Population
                Natural  -----------------------------------------------
    Atom  No    Charge         Core      Valence    Rydberg      Total
 -----------------------------------------------------------------------
      C    1   -0.29957      0.99964     2.29475    0.00518     3.29957
      C    2    0.06682      0.99958     1.92045    0.01314     2.93318
      C    3   -0.20631      0.99958     2.19776    0.00896     3.20631
      C    4   -0.00659      0.99958     1.99294    0.01407     3.00659
      C    5   -0.20181      0.99962     2.19373    0.00846     3.20181
      C    6   -0.20285      0.99964     2.19530    0.00791     3.20285
      C    7   -0.08562      0.99963     2.07508    0.01091     3.08562
      N    8   -0.27853      0.99972     2.76646    0.01234     3.77853
      C    9   -0.09306      0.99960     2.08226    0.01120     3.09306
      C   10   -0.02628      0.99957     2.01412    0.01260     3.02628
      O   11   -0.30619      0.99988     3.29702    0.00929     4.30619
      C   12   -0.02269      0.99958     2.00914    0.01397     3.02269
      C   13   -0.02336      0.99961     2.01077    0.01298     3.02336
      O   14   -0.37147      0.99990     3.36416    0.00742     4.37147
      O   15   -0.37209      0.99990     3.36590    0.00630     4.37209
      H   16    0.09824      0.00000     0.40035    0.00141     0.40176
      H   17    0.10115      0.00000     0.39791    0.00093     0.39885
      H   18    0.10550      0.00000     0.39311    0.00139     0.39450
      H   19    0.08368      0.00000     0.41471    0.00160     0.41632
      H   20    0.10392      0.00000     0.39483    0.00125     0.39608
      H   21    0.10190      0.00000     0.39650    0.00160     0.39810
      H   22    0.08921      0.00000     0.40912    0.00166     0.41079
      H   23    0.09886      0.00000     0.39914    0.00201     0.40114
      H   24    0.09777      0.00000     0.40058    0.00166     0.40223
      H   25    0.10356      0.00000     0.39487    0.00157     0.39644
      H   26    0.09428      0.00000     0.40446    0.00126     0.40572
      H   27    0.10210      0.00000     0.39684    0.00106     0.39790
      H   28    0.08578      0.00000     0.41312    0.00111     0.41422
      H   29    0.09737      0.00000     0.40154    0.00109     0.40263
      H   30    0.09715      0.00000     0.40184    0.00101     0.40285
      H   31    0.09160      0.00000     0.40694    0.00145     0.40840
      H   32    0.08073      0.00000     0.41697    0.00230     0.41927
      H   33    0.08237      0.00000     0.41458    0.00304     0.41763
      H   34    0.09048      0.00000     0.40814    0.00138     0.40952
      H   35    0.07979      0.00000     0.41839    0.00182     0.42021
      H   36    0.08536      0.00000     0.41335    0.00128     0.41464
      H   37    0.23299      0.00000     0.25702    0.00999     0.26701
      H   38    0.22578      0.00000     0.27140    0.00282     0.27422
 =======================================================================
   * Total *    0.00000     14.99503    44.80554    0.19943    60.00000

 Normal termination of Gaussian 16 at Thu Dec 10 18:15:07 2020.
