 Gaussian 16, Revision A.03,

 -----------------------------------------------------------
 # opt freq B3LYP/6-31G(d) empiricaldispersion=gd3bj scf=xqc
 -----------------------------------------------------------

 ------------------------------
 CID_63100914_JID_6976_neutraal
 ------------------------------
 Symbolic Z-matrix:
 Charge =  0 Multiplicity = 1

 SCF Done:  E(RB3LYP) =  -691.011892269     A.U. after   15 cycles
 SCF Done:  E(RB3LYP) =  -691.015746968     A.U. after   12 cycles
 SCF Done:  E(RB3LYP) =  -691.014971965     A.U. after   12 cycles
 SCF Done:  E(RB3LYP) =  -691.014572094     A.U. after   12 cycles
 SCF Done:  E(RB3LYP) =  -691.012776620     A.U. after   12 cycles
 SCF Done:  E(RB3LYP) =  -691.015800594     A.U. after    8 cycles
 SCF Done:  E(RB3LYP) =  -691.017057500     A.U. after   12 cycles
 SCF Done:  E(RB3LYP) =  -691.017154508     A.U. after   11 cycles
 SCF Done:  E(RB3LYP) =  -691.017250022     A.U. after   12 cycles
 SCF Done:  E(RB3LYP) =  -691.017428777     A.U. after   11 cycles
 SCF Done:  E(RB3LYP) =  -691.017441569     A.U. after    9 cycles
 SCF Done:  E(RB3LYP) =  -691.017444106     A.U. after    8 cycles
 SCF Done:  E(RB3LYP) =  -691.017445092     A.U. after    8 cycles
 SCF Done:  E(RB3LYP) =  -691.017445756     A.U. after    8 cycles
 SCF Done:  E(RB3LYP) =  -691.017445904     A.U. after    8 cycles
 Optimization completed.
    -- Stationary point found.
 Normal termination of Gaussian 16 at Fri Dec 11 01:22:45 2020.

 --------------------------------------------------------------------
 #N Geom=AllCheck Guess=TCheck SCRF=Check GenChk RB3LYP/6-31G(d) Freq
 --------------------------------------------------------------------

 Structure from the checkpoint file:  "JID_6976.chk"
 ------------------------------
 CID_63100914_JID_6976_neutraal
 ------------------------------
 Charge =  0 Multiplicity = 1

 SCF Done:  E(RB3LYP) =  -691.017445904     A.U. after    1 cycles

  Exact polarizability: 184.980   5.195 153.268   2.896  -7.037  99.959
 Approx polarizability: 252.555   3.754 238.000   5.699  -7.223 161.912

                      1                      2                      3
                      A                      A                      A
 Frequencies --     47.8465                65.1014                81.4050
 Red. masses --      5.4008                 3.8408                 2.8539
 Frc consts  --      0.0073                 0.0096                 0.0111
 IR Inten    --      1.5870                 0.0140                 0.3318

                      4                      5                      6
                      A                      A                      A
 Frequencies --    105.3071               118.3460               188.4638
 Red. masses --      3.8039                 3.7981                 3.0953
 Frc consts  --      0.0249                 0.0313                 0.0648
 IR Inten    --      1.7715                 1.4043                 4.0769

                      7                      8                      9
                      A                      A                      A
 Frequencies --    198.2275               213.2054               227.0003
 Red. masses --      1.6769                 2.1556                 1.2719
 Frc consts  --      0.0388                 0.0577                 0.0386
 IR Inten    --      0.5025                 0.3591                 0.6626

                     10                     11                     12
                      A                      A                      A
 Frequencies --    248.3630               283.5078               304.4863
 Red. masses --      1.7842                 2.8977                 3.8052
 Frc consts  --      0.0648                 0.1372                 0.2079
 IR Inten    --      1.0538                 2.1622                 2.1134

                     13                     14                     15
                      A                      A                      A
 Frequencies --    315.1052               339.4034               360.9183
 Red. masses --      3.1120                 2.9038                 4.0651
 Frc consts  --      0.1821                 0.1971                 0.3120
 IR Inten    --      0.8869                 2.7734                 0.3725

                     16                     17                     18
                      A                      A                      A
 Frequencies --    407.2219               446.6354               472.6092
 Red. masses --      2.0541                 2.8344                 3.0852
 Frc consts  --      0.2007                 0.3331                 0.4060
 IR Inten    --      0.8837                 2.4602                 3.3424

                     19                     20                     21
                      A                      A                      A
 Frequencies --    481.4942               521.1006               562.8454
 Red. masses --      3.6816                 3.4439                 2.5886
 Frc consts  --      0.5029                 0.5510                 0.4832
 IR Inten    --     13.1828                23.6021                 7.2470

                     22                     23                     24
                      A                      A                      A
 Frequencies --    568.7473               608.6348               633.4850
 Red. masses --      3.7738                 3.4443                 3.7238
 Frc consts  --      0.7192                 0.7517                 0.8805
 IR Inten    --      5.6075                 6.0964                 5.6684

                     25                     26                     27
                      A                      A                      A
 Frequencies --    684.6577               744.0595               752.9888
 Red. masses --      4.2352                 5.0957                 2.2098
 Frc consts  --      1.1697                 1.6621                 0.7382
 IR Inten    --      3.9343                 9.3751                45.3694

                     28                     29                     30
                      A                      A                      A
 Frequencies --    766.7343               783.3037               807.1826
 Red. masses --      2.3036                 1.9813                 2.3777
 Frc consts  --      0.7979                 0.7163                 0.9127
 IR Inten    --      7.0982                34.2146                18.0386

                     31                     32                     33
                      A                      A                      A
 Frequencies --    862.7222               879.6768               899.6883
 Red. masses --      1.7850                 2.4092                 2.4165
 Frc consts  --      0.7828                 1.0984                 1.1524
 IR Inten    --      3.6370                 1.3633                 1.9901

                     34                     35                     36
                      A                      A                      A
 Frequencies --    923.9715               941.3036               950.3753
 Red. masses --      2.4472                 1.4449                 1.2114
 Frc consts  --      1.2309                 0.7543                 0.6447
 IR Inten    --     12.4946                 0.6693                 1.0418

                     37                     38                     39
                      A                      A                      A
 Frequencies --    970.0690               978.3748               984.0414
 Red. masses --      1.7949                 1.2720                 1.5293
 Frc consts  --      0.9951                 0.7174                 0.8725
 IR Inten    --      9.0961                 0.3634                 4.0254

                     40                     41                     42
                      A                      A                      A
 Frequencies --    989.9113              1046.4700              1076.9378
 Red. masses --      2.1349                 2.1514                 2.2574
 Frc consts  --      1.2326                 1.3881                 1.5426
 IR Inten    --     31.8042                25.8998                18.5303

                     43                     44                     45
                      A                      A                      A
 Frequencies --   1087.3433              1115.5841              1136.8945
 Red. masses --      1.8029                 2.1950                 2.6179
 Frc consts  --      1.2559                 1.6095                 1.9936
 IR Inten    --     64.2916                 0.3878                 2.4385

                     46                     47                     48
                      A                      A                      A
 Frequencies --   1148.0753              1164.6935              1174.3654
 Red. masses --      1.8181                 3.0828                 2.6424
 Frc consts  --      1.4119                 2.4639                 2.1471
 IR Inten    --     17.2661                 8.2924                15.6657

                     49                     50                     51
                      A                      A                      A
 Frequencies --   1195.7897              1210.3443              1226.3877
 Red. masses --      1.0958                 1.9839                 2.0611
 Frc consts  --      0.9232                 1.7124                 1.8264
 IR Inten    --      0.0219                19.3190                15.9956

                     52                     53                     54
                      A                      A                      A
 Frequencies --   1256.1203              1273.3963              1304.1645
 Red. masses --      1.3048                 1.7122                 2.8209
 Frc consts  --      1.2130                 1.6358                 2.8269
 IR Inten    --     14.9342                43.4577                33.9153

                     55                     56                     57
                      A                      A                      A
 Frequencies --   1320.1081              1337.8104              1356.5397
 Red. masses --      1.5020                 1.4075                 2.3220
 Frc consts  --      1.5422                 1.4842                 2.5175
 IR Inten    --     10.4105                 5.5284                19.9291

                     58                     59                     60
                      A                      A                      A
 Frequencies --   1365.2788              1380.5453              1381.5780
 Red. masses --      1.4720                 1.4644                 1.3043
 Frc consts  --      1.6165                 1.6445                 1.4669
 IR Inten    --      4.7592                10.1056                 3.0226

                     61                     62                     63
                      A                      A                      A
 Frequencies --   1403.6174              1425.1697              1432.6405
 Red. masses --      1.3669                 1.8023                 1.2152
 Frc consts  --      1.5866                 2.1568                 1.4695
 IR Inten    --     31.6025               117.0518                 6.1053

                     64                     65                     66
                      A                      A                      A
 Frequencies --   1449.5186              1457.8095              1497.7127
 Red. masses --      1.4517                 1.3513                 1.3043
 Frc consts  --      1.7971                 1.6921                 1.7237
 IR Inten    --      5.0637                59.4027                 4.6869

                     67                     68                     69
                      A                      A                      A
 Frequencies --   1504.2871              1510.1575              1518.8072
 Red. masses --      1.7944                 1.1128                 1.0720
 Frc consts  --      2.3924                 1.4953                 1.4570
 IR Inten    --     12.2576                 3.9204                 1.2833

                     70                     71                     72
                      A                      A                      A
 Frequencies --   1519.3300              1521.8606              1529.2315
 Red. masses --      1.1676                 1.1360                 1.0610
 Frc consts  --      1.5880                 1.5502                 1.4619
 IR Inten    --      4.8615                 2.0594                 1.7116

                     73                     74                     75
                      A                      A                      A
 Frequencies --   1539.2383              1541.1504              1547.4339
 Red. masses --      1.0757                 1.1209                 2.1806
 Frc consts  --      1.5016                 1.5686                 3.0764
 IR Inten    --     32.2314                 7.9119                31.1688

                     76                     77                     78
                      A                      A                      A
 Frequencies --   1643.6824              1666.0764              1751.1466
 Red. masses --      6.4318                 6.0838                10.6252
 Frc consts  --     10.2381                 9.9499                19.1970
 IR Inten    --      3.8854                 3.9123               223.0748

                     79                     80                     81
                      A                      A                      A
 Frequencies --   2943.5302              2959.6383              3052.9953
 Red. masses --      1.0726                 1.0702                 1.0356
 Frc consts  --      5.4753                 5.5235                 5.6869
 IR Inten    --     45.8592                74.4148                24.0551

                     82                     83                     84
                      A                      A                      A
 Frequencies --   3057.0091              3070.4737              3083.0973
 Red. masses --      1.0375                 1.0873                 1.0859
 Frc consts  --      5.7126                 6.0399                 6.0814
 IR Inten    --     25.8093                24.6656                 2.7388

                     85                     86                     87
                      A                      A                      A
 Frequencies --   3089.9938              3098.9485              3115.7471
 Red. masses --      1.0742                 1.0895                 1.1016
 Frc consts  --      6.0432                 6.1646                 6.3010
 IR Inten    --     33.0216                28.2221                11.0785

                     88                     89                     90
                      A                      A                      A
 Frequencies --   3119.6104              3127.9343              3138.6336
 Red. masses --      1.1013                 1.1023                 1.1001
 Frc consts  --      6.3145                 6.3540                 6.3850
 IR Inten    --     55.5653                21.8847                41.2799

                     91                     92                     93
                      A                      A                      A
 Frequencies --   3179.4306              3185.7319              3192.7443
 Red. masses --      1.0867                 1.0920                 1.0892
 Frc consts  --      6.4721                 6.5298                 6.5413
 IR Inten    --      7.1597                23.8205                14.1830

                     94                     95                     96
                      A                      A                      A
 Frequencies --   3207.4550              3224.6630              3504.4112
 Red. masses --      1.0948                 1.0946                 1.0747
 Frc consts  --      6.6358                 6.7060                 7.7763
 IR Inten    --     33.9793                 8.8345                 1.1205

 - Thermochemistry -
 -------------------
 Temperature   298.150 Kelvin.  Pressure   1.00000 Atm.
 Atom     1 has atomic number  6 and mass  12.00000

 Molecular mass:   218.14191 amu.
 Principal axes and moments of inertia in atomic units:
                           1         2         3
     Eigenvalues --  2123.448484182.175505520.04321
           X            0.99996   0.00280   0.00804
           Y           -0.00258   0.99963  -0.02716
           Z           -0.00812   0.02714   0.99960
 This molecule is an asymmetric top.
 Rotational symmetry number  1.
 Warning -- assumption of classical behavior for rotation
           may cause significant error
 Rotational temperatures (Kelvin)      0.04079     0.02071     0.01569
 Rotational constants (GHZ):           0.84991     0.43153     0.32694
 Zero-point vibrational energy     778098.2 (Joules/Mol)
                                  185.96994 (Kcal/Mol)
 Warning -- explicit consideration of  23 degrees of freedom as
           vibrations may cause significant error
 Vibrational temperatures:     68.84    93.67   117.12   151.51   170.27
          (Kelvin)            271.16   285.21   306.76   326.60   357.34
                              407.90   438.09   453.37   488.33   519.28
                              585.90   642.61   679.98   692.76   749.75
                              809.81   818.30   875.69   911.44   985.07
                             1070.54  1083.38  1103.16  1127.00  1161.36
                             1241.26  1265.66  1294.45  1329.39  1354.33
                             1367.38  1395.71  1407.66  1415.82  1424.26
                             1505.64  1549.47  1564.44  1605.08  1635.74
                             1651.82  1675.73  1689.65  1720.47  1741.42
                             1764.50  1807.28  1832.13  1876.40  1899.34
                             1924.81  1951.76  1964.33  1986.30  1987.78
                             2019.49  2050.50  2061.25  2085.53  2097.46
                             2154.87  2164.33  2172.78  2185.22  2185.98
                             2189.62  2200.22  2214.62  2217.37  2226.41
                             2364.89  2397.11  2519.51  4235.08  4258.26
                             4392.58  4398.35  4417.73  4435.89  4445.81
                             4458.70  4482.87  4488.42  4500.40  4515.79
                             4574.49  4583.56  4593.65  4614.81  4639.57
                             5042.07

 Zero-point correction=                           0.296362 (Hartree/Particle)
 Thermal correction to Energy=                    0.311063
 Thermal correction to Enthalpy=                  0.312007
 Thermal correction to Gibbs Free Energy=         0.255074
 Sum of electronic and zero-point Energies=           -690.721084
 Sum of electronic and thermal Energies=              -690.706383
 Sum of electronic and thermal Enthalpies=            -690.705439
 Sum of electronic and thermal Free Energies=         -690.762372

                     E (Thermal)             CV                S
                      KCal/Mol        Cal/Mol-Kelvin    Cal/Mol-Kelvin
 Total                  195.195             57.925            119.827
 Electronic               0.000              0.000              0.000
 Translational            0.889              2.981             42.043
 Rotational               0.889              2.981             32.261
 Vibrational            193.418             51.963             45.523
 Vibration     1          0.595              1.978              4.904
 Vibration     2          0.597              1.971              4.296
 Vibration     3          0.600              1.962              3.857
 Vibration     4          0.605              1.945              3.354
 Vibration     5          0.609              1.934              3.127
 Vibration     6          0.633              1.856              2.243
 Vibration     7          0.637              1.842              2.149
 Vibration     8          0.644              1.821              2.016
 Vibration     9          0.651              1.800              1.903
 Vibration    10          0.662              1.765              1.742
 Vibration    11          0.682              1.704              1.512
 Vibration    12          0.695              1.665              1.392
 Vibration    13          0.702              1.645              1.335
 Vibration    14          0.719              1.597              1.215
 Vibration    15          0.735              1.553              1.118
 Vibration    16          0.772              1.455              0.936
 Vibration    17          0.806              1.368              0.806
 Vibration    18          0.829              1.311              0.730
 Vibration    19          0.838              1.291              0.706
 Vibration    20          0.876              1.203              0.607
 Vibration    21          0.919              1.112              0.518
 Vibration    22          0.925              1.099              0.507
 Vibration    23          0.968              1.014              0.435

                           ! Non-Optimized Parameters !
 Normal termination of Gaussian 16 at Fri Dec 11 01:35:23 2020.

 ----------------------------------------------------------------------
 # B3LYP/6-311++G(d,p) empiricaldispersion=gd3bj scf=xqc pop=npa geom=c
 heck
 ----------------------------------------------------------------------

 --------------------------------------
 CID_63100914_JID_6976_Energie_neutraal
 --------------------------------------
 Structure from the checkpoint file:  "JID_6976.chk"
 Charge =  0 Multiplicity = 1

 SCF Done:  E(RB3LYP) =  -691.207826475     A.U. after   15 cycles
 Normal termination of Gaussian 16 at Fri Dec 11 01:40:42 2020.

 ----------------------------------------------------------------------
 # B3LYP/6-311++G(d,p) empiricaldispersion=gd3bj scf=xqc pop=npa geom=c
 heck
 ----------------------------------------------------------------------

 ------------------------------------
 CID_63100914_JID_6976_Energie_kation
 ------------------------------------
 Structure from the checkpoint file:  "JID_6976.chk"
 Charge =  1 Multiplicity = 2

 SCF Done:  E(UB3LYP) =  -690.912704900     A.U. after   29 cycles
 Normal termination of Gaussian 16 at Fri Dec 11 01:54:11 2020.
 Gaussian 16:  ES64L-G16RevA.03 25-Dec-2016

 ----------------------------------------------------------------------
 # B3LYP/6-311++G(d,p) empiricaldispersion=gd3bj scf=xqc pop=npa geom=c
 heck
 ----------------------------------------------------------------------

 -----------------------------------
 CID_63100914_JID_6976_Energie_anion
 -----------------------------------
 Structure from the checkpoint file:  "JID_6976.chk"
 Charge = -1 Multiplicity = 2

                         Standard orientation:
 ---------------------------------------------------------------------
 Center     Atomic      Atomic             Coordinates (Angstroms)
 Number     Number       Type             X           Y           Z
 ---------------------------------------------------------------------
      1          6           0        3.453870    0.611365   -0.701347
      2          6           0        2.845963   -0.764988   -0.384447
      3          6           0        3.337579   -1.340419    0.955889
      4          6           0        1.320818   -0.907508   -0.550091
      5          8           0        0.897325   -1.749879   -1.333004
      6          7           0        0.440957   -0.147951    0.205862
      7          6           0        0.800410    0.937927    1.121830
      8          6           0        0.638233    2.339873    0.526511
      9          7           0       -0.760803    2.679777    0.295206
     10          6           0       -1.377672    1.889301   -0.780773
     11          6           0       -1.861375    0.535465   -0.312376
     12          6           0       -3.226736    0.230036   -0.317946
     13          6           0       -3.688895   -1.026260    0.067058
     14          6           0       -2.778049   -2.002703    0.472950
     15          6           0       -1.417626   -1.710835    0.500838
     16          6           0       -0.959825   -0.449937    0.112251
     17          1           0        3.319651    1.341622    0.100997
     18          1           0        3.027187    1.032310   -1.617996
     19          1           0        4.532844    0.499142   -0.857481
     20          1           0        3.196205   -1.446501   -1.165102
     21          1           0        3.061103   -0.721081    1.815213
     22          1           0        2.928842   -2.343116    1.118615
     23          1           0        4.430683   -1.418914    0.946435
     24          1           0        1.829749    0.804164    1.447159
     25          1           0        0.160562    0.852911    2.005724
     26          1           0        1.048656    3.061583    1.243531
     27          1           0        1.247198    2.398364   -0.394300
     28          1           0       -0.813280    3.663101    0.040239
     29          1           0       -0.683453    1.747685   -1.630821
     30          1           0       -2.237041    2.452798   -1.156017
     31          1           0       -3.933503    0.991530   -0.638097
     32          1           0       -4.753220   -1.242574    0.049417
     33          1           0       -3.125481   -2.986931    0.773382
     34          1           0       -0.696560   -2.457746    0.813588
 ---------------------------------------------------------------------

 SCF Done:  E(UB3LYP) =  -691.197005127     A.U. after   33 cycles
 SCF Done:  E(UB3LYP) =  -691.197005127     a.u. after    1 cycles

 The electronic state is 2-A.
 Alpha  occ. eigenvalues --  -18.98897 -14.25170 -14.19973 -10.17532 -10.11869
 Alpha  occ. eigenvalues --  -10.11172 -10.10050 -10.09449 -10.09209 -10.08872
 Alpha  occ. eigenvalues --  -10.08699 -10.08631 -10.08478 -10.08418 -10.07430
 Alpha  occ. eigenvalues --  -10.07078  -0.94419  -0.85314  -0.80512  -0.76469
 Alpha  occ. eigenvalues --   -0.70829  -0.68086  -0.66163  -0.63404  -0.59993
 Alpha  occ. eigenvalues --   -0.58450  -0.55165  -0.52358  -0.51547  -0.48942
 Alpha  occ. eigenvalues --   -0.46203  -0.42074  -0.40733  -0.39323  -0.37879
 Alpha  occ. eigenvalues --   -0.37441  -0.36351  -0.35896  -0.34483  -0.34337
 Alpha  occ. eigenvalues --   -0.33395  -0.32978  -0.31515  -0.31212  -0.29838
 Alpha  occ. eigenvalues --   -0.29182  -0.27788  -0.27646  -0.27182  -0.26421
 Alpha  occ. eigenvalues --   -0.25537  -0.25211  -0.25010  -0.23861  -0.17996
 Alpha  occ. eigenvalues --   -0.16344  -0.15460  -0.14247  -0.13415   0.04171
 Alpha virt. eigenvalues --    0.06033   0.06445   0.06869   0.07493   0.07810
 Alpha virt. eigenvalues --    0.08144   0.08456   0.09564   0.10052   0.10108
 Alpha virt. eigenvalues --    0.10579   0.11022   0.11801   0.12124   0.12602

  Beta  occ. eigenvalues --  -18.98882 -14.25175 -14.19936 -10.17521 -10.11857
  Beta  occ. eigenvalues --  -10.11161 -10.10030 -10.09418 -10.09205 -10.08859
  Beta  occ. eigenvalues --  -10.08696 -10.08617 -10.08476 -10.08408 -10.07396
  Beta  occ. eigenvalues --  -10.07050  -0.94396  -0.85297  -0.80458  -0.76444
  Beta  occ. eigenvalues --   -0.70802  -0.68045  -0.66134  -0.63362  -0.59932
  Beta  occ. eigenvalues --   -0.58402  -0.55126  -0.52316  -0.51488  -0.48893
  Beta  occ. eigenvalues --   -0.46176  -0.42033  -0.40668  -0.39289  -0.37848
  Beta  occ. eigenvalues --   -0.37412  -0.36308  -0.35857  -0.34443  -0.34299
  Beta  occ. eigenvalues --   -0.33359  -0.32952  -0.31479  -0.31165  -0.29802
  Beta  occ. eigenvalues --   -0.29151  -0.27751  -0.27598  -0.27148  -0.26375
  Beta  occ. eigenvalues --   -0.25499  -0.25168  -0.24970  -0.23829  -0.17956
  Beta  occ. eigenvalues --   -0.16280  -0.15428  -0.14199  -0.13360
  Beta virt. eigenvalues --    0.06239   0.06758   0.06914   0.07116   0.07900
  Beta virt. eigenvalues --    0.08227   0.08641   0.08919   0.10167   0.10344
  Beta virt. eigenvalues --    0.10466   0.10785   0.11377   0.12011   0.12597

 Mulliken charges and spin densities:
               1          2
     1  C    0.691437  -1.261912
     2  C   -1.248642   1.313386
     3  C    0.549141  -1.086040
     4  C    0.483058  -0.719565
     5  O   -0.247202   0.005619
     6  N    0.427464   0.012784
     7  C   -0.620674   0.403515
     8  C    1.370669  -1.716540
     9  N   -0.305053   0.225246
    10  C    0.711013  -1.242113
    11  C   -1.000061   1.388243
    12  C    0.573484  -0.780750
    13  C    0.152170  -0.541784
    14  C   -0.214818   0.041784
    15  C    0.684962  -0.274854
    16  C   -1.370173   0.613812
    17  H   -0.330776   0.497180
    18  H   -0.014940   0.165408
    19  H   -0.219689   0.380463
    20  H    0.074220   0.153547
    21  H   -0.486259   0.633491
    22  H    0.031886   0.111967
    23  H   -0.327907   0.490912
    24  H    0.715901  -0.602880
    25  H    0.148827   0.029986
    26  H   -0.793246   0.974434
    27  H    0.015805   0.125944
    28  H   -0.261492   0.545272
    29  H    0.040005   0.084859
    30  H   -0.445311   0.646848
    31  H   -0.065513   0.198361
    32  H    0.054334   0.087200
    33  H    0.061198   0.090452
    34  H    0.166185   0.005724
 Sum of Mulliken charges =  -1.00000   1.00000

 Dipole moment (field-independent basis, Debye):
    X=             -4.0212    Y=             -5.7957    Z=              0.5374  Tot=              7.0745
 Quadrupole moment (field-independent basis, Debye-Ang):
   XX=           -161.0589   YY=           -160.8769   ZZ=           -130.3108
   XY=              4.8564   XZ=             -5.6913   YZ=             -5.6293

 Summary of Natural Population Analysis:

                                       Natural Population
                Natural  -----------------------------------------------
    Atom  No    Charge         Core      Valence    Rydberg      Total
 -----------------------------------------------------------------------
      C    1   -0.28422      0.99964     2.27846    0.00612     3.28422
      C    2   -0.15212      0.99957     2.14247    0.01008     3.15212
      C    3   -0.28130      0.99964     2.27610    0.00556     3.28130
      C    4    0.35706      0.99961     1.61984    0.02349     2.64294
      O    5   -0.31895      0.99988     3.31399    0.00507     4.31895
      N    6   -0.26409      0.99961     2.75308    0.01139     3.76409
      C    7   -0.08911      0.99959     2.07918    0.01034     3.08911
      C    8   -0.09203      0.99961     2.08052    0.01190     3.09203
      N    9   -0.33681      0.99973     2.82430    0.01278     3.83681
      C   10   -0.09640      0.99958     2.08370    0.01312     3.09640
      C   11   -0.01668      0.99945     2.00691    0.01032     3.01668
      C   12   -0.09540      0.99952     2.08627    0.00961     3.09540
      C   13   -0.10517      0.99957     2.09632    0.00928     3.10517
      C   14   -0.10337      0.99957     2.09419    0.00961     3.10337
      C   15   -0.09067      0.99951     2.08293    0.00823     3.09067
      C   16    0.09244      0.99941     1.89610    0.01205     2.90756
      H   17    0.09872      0.00000     0.39986    0.00142     0.40128
      H   18    0.10281      0.00000     0.39586    0.00133     0.39719
      H   19    0.10176      0.00000     0.39720    0.00104     0.39824
      H   20    0.10880      0.00000     0.38934    0.00186     0.39120
      H   21    0.09676      0.00000     0.40213    0.00110     0.40324
      H   22    0.10112      0.00000     0.39791    0.00097     0.39888
      H   23    0.10282      0.00000     0.39597    0.00122     0.39718
      H   24    0.10395      0.00000     0.39440    0.00165     0.39605
      H   25    0.10120      0.00000     0.39733    0.00147     0.39880
      H   26    0.10116      0.00000     0.39650    0.00234     0.39884
      H   27    0.08232      0.00000     0.41537    0.00231     0.41768
      H   28    0.18309      0.00000     0.30898    0.00793     0.31691
      H   29    0.08839      0.00000     0.40958    0.00203     0.41161
      H   30    0.10061      0.00000     0.39777    0.00162     0.39939
      H   31    0.10057      0.00000     0.39839    0.00104     0.39943
      H   32    0.09830      0.00000     0.40094    0.00076     0.40170
      H   33    0.09850      0.00000     0.40072    0.00077     0.40150
      H   34    0.10591      0.00000     0.39292    0.00117     0.39409
 =======================================================================
   * Total *    0.00000     15.99348    42.80556    0.20096    59.00000

 Normal termination of Gaussian 16 at Fri Dec 11 02:08:58 2020.
