 Gaussian 16, Revision A.03,

 -----------------------------------------------------------
 # opt freq B3LYP/6-31G(d) empiricaldispersion=gd3bj scf=xqc
 -----------------------------------------------------------

 -------------------------------
 CID_115586438_JID_7177_neutraal
 -------------------------------
 Symbolic Z-matrix:
 Charge =  0 Multiplicity = 1

 SCF Done:  E(RB3LYP) =  -1412.15216646     A.U. after   15 cycles
 SCF Done:  E(RB3LYP) =  -1412.15734102     A.U. after   12 cycles
 SCF Done:  E(RB3LYP) =  -1412.15820468     A.U. after   12 cycles
 SCF Done:  E(RB3LYP) =  -1412.15837184     A.U. after   12 cycles
 SCF Done:  E(RB3LYP) =  -1412.15863138     A.U. after   11 cycles
 SCF Done:  E(RB3LYP) =  -1412.15896621     A.U. after   12 cycles
 SCF Done:  E(RB3LYP) =  -1412.15911259     A.U. after   15 cycles
 SCF Done:  E(RB3LYP) =  -1412.15966374     A.U. after   12 cycles
 SCF Done:  E(RB3LYP) =  -1412.16004326     A.U. after   11 cycles
 SCF Done:  E(RB3LYP) =  -1412.16034336     A.U. after   12 cycles
 SCF Done:  E(RB3LYP) =  -1412.16047039     A.U. after    9 cycles
 SCF Done:  E(RB3LYP) =  -1412.16047051     A.U. after    9 cycles
 SCF Done:  E(RB3LYP) =  -1412.16047061     A.U. after    9 cycles
 SCF Done:  E(RB3LYP) =  -1412.16047066     A.U. after    8 cycles
 SCF Done:  E(RB3LYP) =  -1412.16047067     A.U. after    6 cycles
 Optimization completed.
    -- Stationary point found.
 Normal termination of Gaussian 16 at Sun Dec 13 20:21:51 2020.

 --------------------------------------------------------------------
 #N Geom=AllCheck Guess=TCheck SCRF=Check GenChk RB3LYP/6-31G(d) Freq
 --------------------------------------------------------------------

 Structure from the checkpoint file:  "JID_7177.chk"
 -------------------------------
 CID_115586438_JID_7177_neutraal
 -------------------------------
 Charge =  0 Multiplicity = 1

 SCF Done:  E(RB3LYP) =  -1412.16047067     A.U. after    1 cycles

  Exact polarizability: 200.209  -4.130 187.434 -13.705   5.191 135.597
 Approx polarizability: 281.246  -2.760 314.335 -24.420  17.379 223.528

                      1                      2                      3
                      A                      A                      A
 Frequencies --      5.8921                14.2053                16.6094
 Red. masses --      2.9227                 6.0138                 5.9757
 Frc consts  --      0.0001                 0.0007                 0.0010
 IR Inten    --      0.0252                 0.0875                 0.0682

                      4                      5                      6
                      A                      A                      A
 Frequencies --     34.1380                69.9601                82.3252
 Red. masses --      6.1455                 4.5819                 5.5130
 Frc consts  --      0.0042                 0.0132                 0.0220
 IR Inten    --      0.4559                 0.1341                 0.9087

                      7                      8                      9
                      A                      A                      A
 Frequencies --    136.1467               175.5277               195.4696
 Red. masses --      3.2228                 4.0771                 2.8937
 Frc consts  --      0.0352                 0.0740                 0.0651
 IR Inten    --      0.2157                 2.3603                 1.6785

                     10                     11                     12
                      A                      A                      A
 Frequencies --    218.4797               236.4683               276.1795
 Red. masses --      5.5071                 1.0374                 1.6814
 Frc consts  --      0.1549                 0.0342                 0.0756
 IR Inten    --      1.8835                 0.0020                 0.5286

                     13                     14                     15
                      A                      A                      A
 Frequencies --    290.1954               292.6839               297.4919
 Red. masses --      1.3435                 1.1533                 3.1494
 Frc consts  --      0.0667                 0.0582                 0.1642
 IR Inten    --      0.1208                 0.0411                 1.4020

                     16                     17                     18
                      A                      A                      A
 Frequencies --    319.9819               325.8326               331.0044
 Red. masses --      2.7140                 2.3741                 3.4853
 Frc consts  --      0.1637                 0.1485                 0.2250
 IR Inten    --      0.9737                 2.5169                 1.4953

                     19                     20                     21
                      A                      A                      A
 Frequencies --    379.9934               400.7963               407.6255
 Red. masses --      2.8025                 2.8651                 5.3651
 Frc consts  --      0.2384                 0.2712                 0.5252
 IR Inten    --      1.5013                 0.3450                 0.8081

                     22                     23                     24
                      A                      A                      A
 Frequencies --    445.7282               505.1800               562.0212
 Red. masses --      3.3787                 5.3531                 3.2419
 Frc consts  --      0.3955                 0.8049                 0.6033
 IR Inten    --      1.9192                 7.8818                 0.8094

                     25                     26                     27
                      A                      A                      A
 Frequencies --    567.8873               591.2571               627.9221
 Red. masses --      3.4847                 4.3603                 5.0723
 Frc consts  --      0.6621                 0.8981                 1.1783
 IR Inten    --      2.6580                 5.7315                 3.1492

                     28                     29                     30
                      A                      A                      A
 Frequencies --    654.4555               659.7316               691.6946
 Red. masses --      6.7464                 3.5563                 7.2485
 Frc consts  --      1.7025                 0.9120                 2.0433
 IR Inten    --      6.1474                12.8773                 2.7088

                     31                     32                     33
                      A                      A                      A
 Frequencies --    705.8918               740.1636               752.0996
 Red. masses --      1.1944                 1.5809                 4.8187
 Frc consts  --      0.3506                 0.5103                 1.6059
 IR Inten    --     62.1470                25.1941                 5.1152

                     34                     35                     36
                      A                      A                      A
 Frequencies --    762.7010               809.8728               826.5899
 Red. masses --      3.8580                 1.6387                 2.5630
 Frc consts  --      1.3223                 0.6333                 1.0317
 IR Inten    --     13.1139                95.2357                11.2943

                     37                     38                     39
                      A                      A                      A
 Frequencies --    836.2869               862.6703               865.8772
 Red. masses --      1.3697                 3.5873                 3.9630
 Frc consts  --      0.5644                 1.5729                 1.7506
 IR Inten    --     10.1472                17.0287                11.6486

                     40                     41                     42
                      A                      A                      A
 Frequencies --    906.0214               934.2434               945.4272
 Red. masses --      1.3404                 2.1830                 1.7899
 Frc consts  --      0.6483                 1.1226                 0.9426
 IR Inten    --      0.5166                 3.9320                 0.6214

                     43                     44                     45
                      A                      A                      A
 Frequencies --    956.2719               980.8349               991.3645
 Red. masses --      1.7068                 1.1995                 3.6900
 Frc consts  --      0.9196                 0.6799                 2.1367
 IR Inten    --      1.3461                 0.0400                 7.9745

                     46                     47                     48
                      A                      A                      A
 Frequencies --   1020.2235              1048.9280              1059.9030
 Red. masses --      1.9057                 1.8177                 1.7830
 Frc consts  --      1.1687                 1.1783                 1.1801
 IR Inten    --      6.4107                21.5612                 3.2179

                     49                     50                     51
                      A                      A                      A
 Frequencies --   1061.7651              1093.0158              1094.6473
 Red. masses --      1.3888                 1.9248                 1.9763
 Frc consts  --      0.9225                 1.3549                 1.3953
 IR Inten    --      0.0004                38.0915                30.5189

                     52                     53                     54
                      A                      A                      A
 Frequencies --   1115.5074              1134.4048              1166.0381
 Red. masses --      1.3642                 3.3787                 1.8052
 Frc consts  --      1.0002                 2.5617                 1.4461
 IR Inten    --      3.5941                45.6125                 9.3227

                     55                     56                     57
                      A                      A                      A
 Frequencies --   1180.9809              1225.9175              1240.9135
 Red. masses --      2.3839                 1.3173                 2.6425
 Frc consts  --      1.9590                 1.1664                 2.3975
 IR Inten    --     11.8503                13.7803                 3.0569

                     58                     59                     60
                      A                      A                      A
 Frequencies --   1265.6244              1272.6037              1297.5171
 Red. masses --      2.8310                 1.3864                 3.0316
 Frc consts  --      2.6718                 1.3229                 3.0071
 IR Inten    --      6.3832                 5.6812                26.0459

                     61                     62                     63
                      A                      A                      A
 Frequencies --   1319.6987              1362.8844              1379.6669
 Red. masses --      1.2302                 3.3258                 1.3745
 Frc consts  --      1.2624                 3.6397                 1.5415
 IR Inten    --      2.4625                29.7341                23.9434

                     64                     65                     66
                      A                      A                      A
 Frequencies --   1394.3620              1411.4494              1420.3987
 Red. masses --      1.6519                 1.6610                 1.2126
 Frc consts  --      1.8923                 1.9496                 1.4414
 IR Inten    --      5.2022                 1.8035                 4.6882

                     67                     68                     69
                      A                      A                      A
 Frequencies --   1425.6978              1454.6223              1495.2949
 Red. masses --      1.2295                 1.2447                 1.1490
 Frc consts  --      1.4724                 1.5518                 1.5137
 IR Inten    --     12.1085                 2.4993                 1.5912

                     70                     71                     72
                      A                      A                      A
 Frequencies --   1503.6144              1507.2593              1518.9196
 Red. masses --      4.7721                 1.0477                 1.0745
 Frc consts  --      6.3567                 1.4024                 1.4606
 IR Inten    --      6.7794                 0.0043                 5.8149

                     73                     74                     75
                      A                      A                      A
 Frequencies --   1520.2959              1523.0805              1528.5986
 Red. masses --      1.0466                 1.2052                 1.2720
 Frc consts  --      1.4252                 1.6473                 1.7511
 IR Inten    --      0.6571                75.8143                 1.4438

                     76                     77                     78
                      A                      A                      A
 Frequencies --   1532.9111              1534.5156              1538.8303
 Red. masses --      1.5826                 1.0483                 1.2034
 Frc consts  --      2.1911                 1.4544                 1.6789
 IR Inten    --     23.7232                 7.2271                 2.1530

                     79                     80                     81
                      A                      A                      A
 Frequencies --   1557.6644              1594.6054              1602.3276
 Red. masses --      1.4397                 6.7492                 5.3480
 Frc consts  --      2.0581                10.1113                 8.0899
 IR Inten    --     24.2457                18.0593                 0.7072

                     82                     83                     84
                      A                      A                      A
 Frequencies --   2965.6594              3046.4273              3047.8541
 Red. masses --      1.0712                 1.0596                 1.0350
 Frc consts  --      5.5511                 5.7940                 5.6647
 IR Inten    --     31.8955                42.7781                15.8690

                     85                     86                     87
                      A                      A                      A
 Frequencies --   3049.2791              3055.5814              3065.5347
 Red. masses --      1.0354                 1.0365                 1.0887
 Frc consts  --      5.6724                 5.7017                 6.0282
 IR Inten    --     26.1708                25.2257                31.3440

                     88                     89                     90
                      A                      A                      A
 Frequencies --   3088.6117              3114.4857              3117.0310
 Red. masses --      1.1053                 1.1032                 1.1026
 Frc consts  --      6.2125                 6.3048                 6.3119
 IR Inten    --     16.8515                 0.8928                 7.7661

                     91                     92                     93
                      A                      A                      A
 Frequencies --   3118.6491              3123.9139              3142.4157
 Red. masses --      1.1025                 1.1016                 1.1020
 Frc consts  --      6.3177                 6.3341                 6.4117
 IR Inten    --     36.0249                63.8963                 3.1753

                     94                     95                     96
                      A                      A                      A
 Frequencies --   3146.3587              3208.2796              3225.8193
 Red. masses --      1.1012                 1.0895                 1.0941
 Frc consts  --      6.4229                 6.6074                 6.7081
 IR Inten    --     29.9173                 8.0737                10.1284

                     97                     98                     99
                      A                      A                      A
 Frequencies --   3270.9013              3276.7086              3489.0310
 Red. masses --      1.0970                 1.0948                 1.0738
 Frc consts  --      6.9152                 6.9255                 7.7017
 IR Inten    --      1.6577                 1.3759                 6.8367

 - Thermochemistry -
 -------------------
 Temperature   298.150 Kelvin.  Pressure   1.00000 Atm.
 Atom     1 has atomic number  6 and mass  12.00000

 Molecular mass:   266.09114 amu.
 Principal axes and moments of inertia in atomic units:
                           1         2         3
     Eigenvalues --  2610.799809702.22483**********
           X            0.99961  -0.02750  -0.00547
           Y            0.02745   0.99959  -0.00842
           Z            0.00570   0.00826   0.99995
 This molecule is an asymmetric top.
 Rotational symmetry number  1.
 Warning -- assumption of classical behavior for rotation
           may cause significant error
 Rotational temperatures (Kelvin)      0.03318     0.00893     0.00788
 Rotational constants (GHZ):           0.69126     0.18601     0.16411
 Zero-point vibrational energy     763495.2 (Joules/Mol)
                                  182.47973 (Kcal/Mol)
 Warning -- explicit consideration of  26 degrees of freedom as
           vibrations may cause significant error
 Vibrational temperatures:      8.48    20.44    23.90    49.12   100.66
          (Kelvin)            118.45   195.88   252.55   281.24   314.34
                              340.23   397.36   417.53   421.11   428.02
                              460.38   468.80   476.24   546.73   576.66
                              586.48   641.30   726.84   808.62   817.06
                              850.69   903.44   941.62   949.21   995.19
                             1015.62  1064.93  1082.10  1097.36  1165.23
                             1189.28  1203.23  1241.19  1245.80  1303.56
                             1344.17  1360.26  1375.86  1411.20  1426.35
                             1467.87  1509.17  1524.96  1527.64  1572.61
                             1574.95  1604.97  1632.16  1677.67  1699.17
                             1763.82  1785.40  1820.95  1830.99  1866.84
                             1898.75  1960.89  1985.03  2006.18  2030.76
                             2043.64  2051.26  2092.88  2151.40  2163.37
                             2168.61  2185.39  2187.37  2191.37  2199.31
                             2205.52  2207.83  2214.03  2241.13  2294.28
                             2305.39  4266.92  4383.13  4385.18  4387.23
                             4396.30  4410.62  4443.82  4481.05  4484.71
                             4487.04  4494.62  4521.24  4526.91  4616.00
                             4641.23  4706.10  4714.45  5019.94

 Zero-point correction=                           0.290800 (Hartree/Particle)
 Thermal correction to Energy=                    0.308504
 Thermal correction to Enthalpy=                  0.309448
 Thermal correction to Gibbs Free Energy=         0.240283
 Sum of electronic and zero-point Energies=          -1411.869671
 Sum of electronic and thermal Energies=             -1411.851967
 Sum of electronic and thermal Enthalpies=           -1411.851023
 Sum of electronic and thermal Free Energies=        -1411.920188

                     E (Thermal)             CV                S
                      KCal/Mol        Cal/Mol-Kelvin    Cal/Mol-Kelvin
 Total                  193.589             66.651            145.569
 Electronic               0.000              0.000              0.000
 Translational            0.889              2.981             42.635
 Rotational               0.889              2.981             33.987
 Vibrational            191.812             60.690             68.947
 Vibration     1          0.593              1.987              9.062
 Vibration     2          0.593              1.986              7.314
 Vibration     3          0.593              1.986              7.003
 Vibration     4          0.594              1.983              5.573
 Vibration     5          0.598              1.968              4.154
 Vibration     6          0.600              1.961              3.835
 Vibration     7          0.614              1.917              2.857
 Vibration     8          0.627              1.873              2.375
 Vibration     9          0.636              1.846              2.175
 Vibration    10          0.646              1.813              1.972
 Vibration    11          0.655              1.785              1.829
 Vibration    12          0.678              1.717              1.557
 Vibration    13          0.686              1.692              1.473
 Vibration    14          0.688              1.687              1.458
 Vibration    15          0.691              1.678              1.431
 Vibration    16          0.706              1.635              1.310
 Vibration    17          0.710              1.624              1.281
 Vibration    18          0.713              1.614              1.255
 Vibration    19          0.750              1.513              1.039
 Vibration    20          0.767              1.468              0.960
 Vibration    21          0.772              1.454              0.935
 Vibration    22          0.805              1.370              0.809
 Vibration    23          0.860              1.239              0.645
 Vibration    24          0.918              1.113              0.520
 Vibration    25          0.924              1.101              0.508
 Vibration    26          0.949              1.050              0.465

 Optimization completed.
    -- Stationary point found.
 Normal termination of Gaussian 16 at Sun Dec 13 20:33:48 2020.

 ----------------------------------------------------------------------
 # B3LYP/6-311++G(d,p) empiricaldispersion=gd3bj scf=xqc pop=npa geom=c
 heck
 ----------------------------------------------------------------------

 ---------------------------------------
 CID_115586438_JID_7177_Energie_neutraal
 ---------------------------------------
 Structure from the checkpoint file:  "JID_7177.chk"
 Charge =  0 Multiplicity = 1

 SCF Done:  E(RB3LYP) =  -1412.38122724     A.U. after   16 cycles
 Normal termination of Gaussian 16 at Sun Dec 13 20:40:46 2020.

 ----------------------------------------------------------------------
 # B3LYP/6-311++G(d,p) empiricaldispersion=gd3bj scf=xqc pop=npa geom=c
 heck
 ----------------------------------------------------------------------

 -------------------------------------
 CID_115586438_JID_7177_Energie_kation
 -------------------------------------
 Structure from the checkpoint file:  "JID_7177.chk"
 Charge =  1 Multiplicity = 2

 SCF Done:  E(UB3LYP) =  -1412.09283860     A.U. after   30 cycles
 Normal termination of Gaussian 16 at Sun Dec 13 21:00:05 2020.
 Gaussian 16:  ES64L-G16RevA.03 25-Dec-2016

 ----------------------------------------------------------------------
 # B3LYP/6-311++G(d,p) empiricaldispersion=gd3bj scf=xqc pop=npa geom=c
 heck
 ----------------------------------------------------------------------

 ------------------------------------
 CID_115586438_JID_7177_Energie_anion
 ------------------------------------
 Structure from the checkpoint file:  "JID_7177.chk"
 Charge = -1 Multiplicity = 2

                         Standard orientation:
 ---------------------------------------------------------------------
 Center     Atomic      Atomic             Coordinates (Angstroms)
 Number     Number       Type             X           Y           Z
 ---------------------------------------------------------------------
      1          6           0       -4.715547    1.066548   -0.192331
      2          6           0       -3.215853    1.251199    0.081730
      3          6           0       -2.632459    2.296822   -0.891613
      4          6           0       -3.006738    1.723613    1.535767
      5          6           0       -2.448485   -0.044034   -0.105541
      6          7           0       -1.161438   -0.143003    0.065575
      7          6           0       -0.695439   -1.423272   -0.161580
      8          6           0       -1.653593   -2.328416   -0.515149
      9         16           0       -3.209960   -1.562732   -0.580059
     10          6           0        0.776852   -1.670345   -0.011927
     11          7           0        1.223050   -1.217353    1.306979
     12          6           0        2.679006   -1.154294    1.446512
     13          6           0        3.406833   -0.293232    0.443574
     14          6           0        4.235019   -0.680469   -0.576604
     15          6           0        4.703095    0.405912   -1.379685
     16          6           0        4.214956    1.613297   -0.966693
     17         16           0        3.178372    1.441380    0.416885
     18          1           0       -5.237799    2.018267   -0.049008
     19          1           0       -5.162264    0.334477    0.489840
     20          1           0       -4.899006    0.736826   -1.221171
     21          1           0       -3.127446    3.263976   -0.746112
     22          1           0       -1.559516    2.419114   -0.721709
     23          1           0       -2.781163    1.987510   -1.932053
     24          1           0       -3.418792    0.998179    2.245752
     25          1           0       -1.941109    1.842783    1.748638
     26          1           0       -3.508740    2.684922    1.695031
     27          1           0       -1.534590   -3.380932   -0.730066
     28          1           0        0.989099   -2.741930   -0.112362
     29          1           0        1.306820   -1.158720   -0.835073
     30          1           0        0.820109   -0.294156    1.464571
     31          1           0        2.892602   -0.816318    2.467353
     32          1           0        3.076690   -2.173441    1.360673
     33          1           0        4.502746   -1.718480   -0.746680
     34          1           0        5.369734    0.289535   -2.227201
     35          1           0        4.400868    2.592528   -1.386268
 ---------------------------------------------------------------------

 SCF Done:  E(UB3LYP) =  -1412.36795241     A.U. after   33 cycles
 SCF Done:  E(UB3LYP) =  -1412.36795241     a.u. after    2 cycles

 The electronic state is 2-A.
 Alpha  occ. eigenvalues --  -88.78066 -88.77425 -14.21055 -14.20369 -10.13448
 Alpha  occ. eigenvalues --  -10.11136 -10.10918 -10.10637 -10.10158 -10.10046
 Alpha  occ. eigenvalues --  -10.09857 -10.09737 -10.07985 -10.07655 -10.07212
 Alpha  occ. eigenvalues --  -10.06829 -10.06574  -7.86700  -7.86058  -5.82966
 Alpha  occ. eigenvalues --   -5.82615  -5.82341  -5.82323  -5.81978  -5.81667
 Alpha  occ. eigenvalues --   -0.86832  -0.81676  -0.77834  -0.73557  -0.69857
 Alpha  occ. eigenvalues --   -0.67076  -0.63844  -0.63619  -0.60024  -0.59550
 Alpha  occ. eigenvalues --   -0.58492  -0.54322  -0.51361  -0.47349  -0.46336
 Alpha  occ. eigenvalues --   -0.44487  -0.42694  -0.41431  -0.40327  -0.37646
 Alpha  occ. eigenvalues --   -0.36830  -0.35464  -0.35229  -0.33568  -0.33146
 Alpha  occ. eigenvalues --   -0.31828  -0.31175  -0.30951  -0.30447  -0.29676
 Alpha  occ. eigenvalues --   -0.28766  -0.28226  -0.27688  -0.27488  -0.26626
 Alpha  occ. eigenvalues --   -0.25849  -0.24969  -0.24666  -0.24400  -0.24342
 Alpha  occ. eigenvalues --   -0.18520  -0.17901  -0.15899  -0.15191  -0.13760
 Alpha  occ. eigenvalues --   -0.13326   0.04276
 Alpha virt. eigenvalues --    0.05597   0.06221   0.06632   0.06716   0.07527
 Alpha virt. eigenvalues --    0.07900   0.08236   0.08618   0.08838   0.09356
 Alpha virt. eigenvalues --    0.10133   0.10634   0.11108   0.11194   0.11590

  Beta  occ. eigenvalues --  -88.78052 -88.77412 -14.21049 -14.20357 -10.13342
  Beta  occ. eigenvalues --  -10.11129 -10.10913 -10.10643 -10.10154 -10.09974
  Beta  occ. eigenvalues --  -10.09771 -10.09665 -10.07978 -10.07633 -10.07187
  Beta  occ. eigenvalues --  -10.06813 -10.06541  -7.86686  -7.86045  -5.82960
  Beta  occ. eigenvalues --   -5.82609  -5.82334  -5.82279  -5.81972  -5.81627
  Beta  occ. eigenvalues --   -0.86758  -0.81633  -0.77750  -0.73510  -0.69776
  Beta  occ. eigenvalues --   -0.67002  -0.63723  -0.63542  -0.59975  -0.59499
  Beta  occ. eigenvalues --   -0.58410  -0.54251  -0.51244  -0.47287  -0.46235
  Beta  occ. eigenvalues --   -0.44384  -0.42624  -0.41373  -0.40273  -0.37610
  Beta  occ. eigenvalues --   -0.36755  -0.35396  -0.35179  -0.33519  -0.33096
  Beta  occ. eigenvalues --   -0.31726  -0.31097  -0.30883  -0.30394  -0.29620
  Beta  occ. eigenvalues --   -0.28686  -0.28140  -0.27649  -0.27324  -0.26556
  Beta  occ. eigenvalues --   -0.25777  -0.24912  -0.24609  -0.24371  -0.24271
  Beta  occ. eigenvalues --   -0.18316  -0.17866  -0.15714  -0.14881  -0.13450
  Beta  occ. eigenvalues --   -0.13129
  Beta virt. eigenvalues --    0.06179   0.06538   0.06900   0.06973   0.07219
  Beta virt. eigenvalues --    0.07944   0.08234   0.08603   0.08843   0.09077
  Beta virt. eigenvalues --    0.09731   0.10258   0.10738   0.11155   0.11268

 Mulliken charges and spin densities:
               1          2
     1  C    0.596441  -1.252793
     2  C   -1.877950   3.393687
     3  C    0.195941  -0.796082
     4  C   -0.171647  -0.429763
     5  C    1.074384  -1.210349
     6  N    0.292794  -0.006118
     7  C   -0.290214  -0.248826
     8  C    0.323348   0.861974
     9  S   -0.232159  -0.491375
    10  C   -0.201314  -1.721565
    11  N   -0.031862   0.030500
    12  C    0.312746  -1.209412
    13  C    0.387880   0.167537
    14  C   -1.008169   1.019248
    15  C    0.905810  -1.416849
    16  C   -0.386664   0.287083
    17  S    0.017005   0.012749
    18  H   -0.438128   0.608473
    19  H   -0.163004   0.302073
    20  H    0.011340   0.123500
    21  H   -0.211277   0.370373
    22  H    0.134205  -0.000028
    23  H   -0.051947   0.204121
    24  H    0.004488   0.149710
    25  H    0.111888   0.037750
    26  H   -0.060961   0.214634
    27  H   -0.088829   0.361897
    28  H    0.083955   0.056145
    29  H    0.239765  -0.043506
    30  H    0.274634  -0.006208
    31  H   -0.052984   0.238808
    32  H    0.045404   0.121058
    33  H   -0.460479   0.620695
    34  H   -0.208605   0.349168
    35  H   -0.075835   0.301690
 Sum of Mulliken charges =  -1.00000   1.00000

 Dipole moment (field-independent basis, Debye):
    X=              0.4521    Y=             -1.8754    Z=              0.2556  Tot=              1.9459
 Quadrupole moment (field-independent basis, Debye-Ang):
   XX=           -224.6704   YY=           -159.2853   ZZ=           -148.3093
   XY=             15.9510   XZ=              4.4999   YZ=              3.2002

 Summary of Natural Population Analysis:

                                       Natural Population
                Natural  -----------------------------------------------
    Atom  No    Charge         Core      Valence    Rydberg      Total
 -----------------------------------------------------------------------
      C    1   -0.28808      0.99964     2.28087    0.00757     3.28808
      C    2   -0.07132      0.99953     2.05936    0.01243     3.07132
      C    3   -0.27799      0.99963     2.27089    0.00747     3.27799
      C    4   -0.27697      0.99963     2.26996    0.00738     3.27697
      C    5    0.07423      0.99953     1.90691    0.01933     2.92577
      N    6   -0.25852      0.99962     2.74809    0.01081     3.75852
      C    7    0.06538      0.99949     1.92051    0.01461     2.93462
      C    8   -0.19918      0.99945     2.19001    0.00972     3.19918
      S    9    0.18786      4.99942     2.79353    0.01919     7.81214
      C   10   -0.09762      0.99957     2.08765    0.01039     3.09762
      N   11   -0.33359      0.99975     2.82248    0.01136     3.83359
      C   12   -0.10240      0.99956     2.09010    0.01275     3.10240
      C   13   -0.09859      0.99950     2.08571    0.01338     3.09859
      C   14   -0.13007      0.99945     2.11955    0.01107     3.13007
      C   15   -0.13130      0.99953     2.12025    0.01152     3.13130
      C   16   -0.18085      0.99954     2.17089    0.01043     3.18085
      S   17    0.20170      4.99939     2.77827    0.02064     7.79830
      H   18    0.10455      0.00000     0.39434    0.00111     0.39545
      H   19    0.10283      0.00000     0.39599    0.00118     0.39717
      H   20    0.10185      0.00000     0.39701    0.00113     0.39815
      H   21    0.09901      0.00000     0.39992    0.00107     0.40099
      H   22    0.10816      0.00000     0.39054    0.00130     0.39184
      H   23    0.10009      0.00000     0.39900    0.00091     0.39991
      H   24    0.10013      0.00000     0.39897    0.00091     0.39987
      H   25    0.10713      0.00000     0.39181    0.00106     0.39287
      H   26    0.09788      0.00000     0.40130    0.00082     0.40212
      H   27    0.11033      0.00000     0.38858    0.00109     0.38967
      H   28    0.09358      0.00000     0.40490    0.00152     0.40642
      H   29    0.09474      0.00000     0.40333    0.00193     0.40526
      H   30    0.17906      0.00000     0.31686    0.00408     0.32094
      H   31    0.10150      0.00000     0.39742    0.00109     0.39850
      H   32    0.09807      0.00000     0.40065    0.00128     0.40193
      H   33    0.10604      0.00000     0.39251    0.00145     0.39396
      H   34    0.10532      0.00000     0.39362    0.00105     0.39468
      H   35    0.10702      0.00000     0.39209    0.00089     0.39298
 =======================================================================
   * Total *    0.00000     24.99224    45.77386    0.23390    71.00000

 Normal termination of Gaussian 16 at Sun Dec 13 22:14:48 2020.
