 Gaussian 16, Revision A.03,

 -----------------------------------------------------------
 # opt freq B3LYP/6-31G(d) empiricaldispersion=gd3bj scf=xqc
 -----------------------------------------------------------

 ------------------------------
 CID_90144630_JID_4688_neutraal
 ------------------------------
 Symbolic Z-matrix:
 Charge =  0 Multiplicity = 1

 SCF Done:  E(RB3LYP) =  -576.458904018     A.U. after   15 cycles
 SCF Done:  E(RB3LYP) =  -576.460930036     A.U. after   12 cycles
 SCF Done:  E(RB3LYP) =  -576.461090927     A.U. after   11 cycles
 SCF Done:  E(RB3LYP) =  -576.461198826     A.U. after   11 cycles
 SCF Done:  E(RB3LYP) =  -576.461266534     A.U. after   11 cycles
 SCF Done:  E(RB3LYP) =  -576.461356223     A.U. after   11 cycles
 SCF Done:  E(RB3LYP) =  -576.461507200     A.U. after   12 cycles
 SCF Done:  E(RB3LYP) =  -576.461445437     A.U. after   12 cycles
 SCF Done:  E(RB3LYP) =  -576.461600436     A.U. after   12 cycles
 SCF Done:  E(RB3LYP) =  -576.461573445     A.U. after   11 cycles
 SCF Done:  E(RB3LYP) =  -576.461610774     A.U. after   10 cycles
 SCF Done:  E(RB3LYP) =  -576.461617650     A.U. after   10 cycles
 SCF Done:  E(RB3LYP) =  -576.461615310     A.U. after   10 cycles
 SCF Done:  E(RB3LYP) =  -576.461617961     A.U. after   10 cycles
 SCF Done:  E(RB3LYP) =  -576.461617988     A.U. after    7 cycles
 Optimization completed.
    -- Stationary point found.
 Normal termination of Gaussian 16 at Thu Dec 10 10:26:28 2020.

 --------------------------------------------------------------------
 #N Geom=AllCheck Guess=TCheck SCRF=Check GenChk RB3LYP/6-31G(d) Freq
 --------------------------------------------------------------------

 Structure from the checkpoint file:  "JID_4688.chk"
 ------------------------------
 CID_90144630_JID_4688_neutraal
 ------------------------------
 Charge =  0 Multiplicity = 1

 SCF Done:  E(RB3LYP) =  -576.461617988     A.U. after    1 cycles

  Exact polarizability: 163.969   3.327 141.694 -10.393  -2.156  87.166
 Approx polarizability: 231.104  13.051 234.370 -23.585 -10.128 136.361

                      1                      2                      3
                      A                      A                      A
 Frequencies --     32.2810                62.2903               101.3019
 Red. masses --      3.3355                 2.7725                 4.2253
 Frc consts  --      0.0020                 0.0063                 0.0255
 IR Inten    --      0.4491                 0.5855                 0.7202

                      4                      5                      6
                      A                      A                      A
 Frequencies --    136.5229               169.9220               227.4427
 Red. masses --      3.5906                 3.3894                 2.4710
 Frc consts  --      0.0394                 0.0577                 0.0753
 IR Inten    --      1.2047                 0.3140                 0.6693

                      7                      8                      9
                      A                      A                      A
 Frequencies --    232.2031               254.0463               293.6765
 Red. masses --      1.1285                 1.1411                 3.2106
 Frc consts  --      0.0358                 0.0434                 0.1631
 IR Inten    --      0.0719                 0.3518                 0.1555

                     10                     11                     12
                      A                      A                      A
 Frequencies --    344.3782               364.6225               369.8824
 Red. masses --      3.0962                 2.8572                 2.3102
 Frc consts  --      0.2163                 0.2238                 0.1862
 IR Inten    --      1.1753                 0.3722                 0.2176

                     13                     14                     15
                      A                      A                      A
 Frequencies --    393.7888               434.3610               472.0211
 Red. masses --      2.5439                 3.9843                 3.3103
 Frc consts  --      0.2324                 0.4429                 0.4346
 IR Inten    --      1.1518                 3.0993                 3.3901

                     16                     17                     18
                      A                      A                      A
 Frequencies --    501.6853               515.0617               529.2516
 Red. masses --      3.7328                 2.9933                 4.0355
 Frc consts  --      0.5535                 0.4679                 0.6660
 IR Inten    --      3.1846                 4.9820                 8.3144

                     19                     20                     21
                      A                      A                      A
 Frequencies --    610.3893               621.8501               676.3899
 Red. masses --      3.4100                 4.7793                 4.0024
 Frc consts  --      0.7486                 1.0889                 1.0789
 IR Inten    --      7.0776                11.2205                10.8630

                     22                     23                     24
                      A                      A                      A
 Frequencies --    755.9513               764.7032               790.3489
 Red. masses --      2.6688                 1.7323                 3.0289
 Frc consts  --      0.8986                 0.5968                 1.1147
 IR Inten    --     16.9670                24.2183                 8.6560

                     25                     26                     27
                      A                      A                      A
 Frequencies --    861.6752               873.9616               901.0055
 Red. masses --      2.1221                 2.6723                 2.2086
 Frc consts  --      0.9283                 1.2026                 1.0564
 IR Inten    --      0.9841                 4.6365                 0.8293

                     28                     29                     30
                      A                      A                      A
 Frequencies --    906.0026               937.8973               947.3262
 Red. masses --      2.7064                 1.2711                 1.4384
 Frc consts  --      1.3089                 0.6588                 0.7605
 IR Inten    --      2.1047                 0.5099                 1.4565

                     31                     32                     33
                      A                      A                      A
 Frequencies --    949.2543               953.6683               967.7560
 Red. masses --      1.8131                 1.4001                 2.4482
 Frc consts  --      0.9626                 0.7503                 1.3509
 IR Inten    --     14.3014                 0.8648                26.9891

                     34                     35                     36
                      A                      A                      A
 Frequencies --    982.0078               985.4016              1011.6309
 Red. masses --      1.5826                 1.8458                 1.8069
 Frc consts  --      0.8992                 1.0560                 1.0895
 IR Inten    --      1.4701                 3.6795                 1.9138

                     37                     38                     39
                      A                      A                      A
 Frequencies --   1075.2662              1087.7415              1142.8250
 Red. masses --      2.2126                 1.9136                 1.9103
 Frc consts  --      1.5072                 1.3340                 1.4700
 IR Inten    --      0.7642                11.5858                22.4938

                     40                     41                     42
                      A                      A                      A
 Frequencies --   1151.0232              1159.8425              1195.6312
 Red. masses --      2.1200                 1.9943                 1.0992
 Frc consts  --      1.6548                 1.5807                 0.9258
 IR Inten    --      7.7315                76.1263                 0.1322

                     43                     44                     45
                      A                      A                      A
 Frequencies --   1207.6958              1215.9174              1254.7733
 Red. masses --      2.0028                 2.1396                 1.9255
 Frc consts  --      1.7211                 1.8638                 1.7862
 IR Inten    --      6.5974                60.2256                 2.5716

                     46                     47                     48
                      A                      A                      A
 Frequencies --   1256.6474              1306.0707              1321.0392
 Red. masses --      1.5005                 2.0650                 1.8964
 Frc consts  --      1.3961                 2.0754                 1.9499
 IR Inten    --      1.1622                14.5457                48.9791

                     49                     50                     51
                      A                      A                      A
 Frequencies --   1335.4685              1361.7518              1365.9602
 Red. masses --      1.7359                 1.3880                 2.2536
 Frc consts  --      1.8241                 1.5165                 2.4774
 IR Inten    --     10.7918                 8.8355                 4.4948

                     52                     53                     54
                      A                      A                      A
 Frequencies --   1389.0277              1405.4206              1428.4511
 Red. masses --      1.4124                 1.3686                 1.2609
 Frc consts  --      1.6055                 1.5927                 1.5158
 IR Inten    --     16.4488                 6.3867                 7.1450

                     55                     56                     57
                      A                      A                      A
 Frequencies --   1439.4781              1454.7847              1491.3579
 Red. masses --      1.3727                 1.4114                 1.1897
 Frc consts  --      1.6758                 1.7599                 1.5590
 IR Inten    --     14.8062                50.8083                10.0457

                     58                     59                     60
                      A                      A                      A
 Frequencies --   1503.9696              1512.3403              1513.3918
 Red. masses --      2.2857                 1.0500                 1.0895
 Frc consts  --      3.0461                 1.4150                 1.4702
 IR Inten    --      5.8119                 0.6162                 1.1768

                     61                     62                     63
                      A                      A                      A
 Frequencies --   1522.3852              1529.9682              1536.6488
 Red. masses --      1.0654                 1.0797                 1.0597
 Frc consts  --      1.4549                 1.4890                 1.4743
 IR Inten    --      0.7964                 8.0931                 2.4374

                     64                     65                     66
                      A                      A                      A
 Frequencies --   1541.1378              1547.0870              1644.7763
 Red. masses --      1.7078                 1.3345                 6.0601
 Frc consts  --      2.3899                 1.8819                 9.6592
 IR Inten    --      8.3695                10.1649                 0.8405

                     67                     68                     69
                      A                      A                      A
 Frequencies --   1668.1059              1735.7703              2989.7813
 Red. masses --      6.0196                 8.0804                 1.0730
 Frc consts  --      9.8688                14.3438                 5.6510
 IR Inten    --      1.0951               322.0969                43.9074

                     70                     71                     72
                      A                      A                      A
 Frequencies --   3047.4384              3051.7582              3056.6034
 Red. masses --      1.0688                 1.0369                 1.0409
 Frc consts  --      5.8479                 5.6897                 5.7299
 IR Inten    --     33.2863                25.5885                13.2886

                     73                     74                     75
                      A                      A                      A
 Frequencies --   3061.6345              3076.5207              3103.4532
 Red. masses --      1.0806                 1.0896                 1.0872
 Frc consts  --      5.9677                 6.0762                 6.1698
 IR Inten    --      7.5607                45.1697                36.6466

                     76                     77                     78
                      A                      A                      A
 Frequencies --   3114.8584              3123.0337              3133.4424
 Red. masses --      1.1015                 1.0999                 1.1025
 Frc consts  --      6.2968                 6.3207                 6.3780
 IR Inten    --      4.7123                98.5426                17.5045

                     79                     80                     81
                      A                      A                      A
 Frequencies --   3135.7268              3139.6768              3172.8314
 Red. masses --      1.1001                 1.0959                 1.0868
 Frc consts  --      6.3732                 6.3647                 6.4462
 IR Inten    --      6.2392                34.1160                13.5224

                     82                     83                     84
                      A                      A                      A
 Frequencies --   3181.6460              3193.8839              3208.0900
 Red. masses --      1.0875                 1.0919                 1.0973
 Frc consts  --      6.4862                 6.5623                 6.6539
 IR Inten    --      2.3826                30.7688                28.6228

 - Thermochemistry -
 -------------------
 Temperature   298.150 Kelvin.  Pressure   1.00000 Atm.
 Atom     1 has atomic number  6 and mass  12.00000

 Molecular mass:   188.13135 amu.
 Principal axes and moments of inertia in atomic units:
                           1         2         3
     Eigenvalues --  1558.801643287.455284269.35934
           X            0.99964   0.02659  -0.00330
           Y           -0.02654   0.99955   0.01430
           Z            0.00368  -0.01421   0.99989
 This molecule is an asymmetric top.
 Rotational symmetry number  1.
 Warning -- assumption of classical behavior for rotation
           may cause significant error
 Rotational temperatures (Kelvin)      0.05556     0.02635     0.02029
 Rotational constants (GHZ):           1.15777     0.54898     0.42272
 Zero-point vibrational energy     687996.9 (Joules/Mol)
                                  164.43520 (Kcal/Mol)
 Warning -- explicit consideration of  19 degrees of freedom as
           vibrations may cause significant error
 Vibrational temperatures:     46.45    89.62   145.75   196.43   244.48
          (Kelvin)            327.24   334.09   365.52   422.53   495.48
                              524.61   532.18   566.57   624.95   679.13
                              721.81   741.06   761.48   878.21   894.70
                              973.17  1087.65  1100.24  1137.14  1239.76
                             1257.44  1296.35  1303.54  1349.43  1362.99
                             1365.77  1372.12  1392.39  1412.89  1417.77
                             1455.51  1547.07  1565.02  1644.27  1656.07
                             1668.75  1720.25  1737.60  1749.43  1805.34
                             1808.04  1879.14  1900.68  1921.44  1959.26
                             1965.31  1998.50  2022.09  2055.22  2071.09
                             2093.11  2145.73  2163.88  2175.92  2177.43
                             2190.37  2201.28  2210.89  2217.35  2225.91
                             2366.47  2400.03  2497.39  4301.63  4384.58
                             4390.80  4397.77  4405.01  4426.43  4465.18
                             4481.59  4493.35  4508.32  4511.61  4517.29
                             4565.00  4577.68  4595.29  4615.73

 Zero-point correction=                           0.262044 (Hartree/Particle)
 Thermal correction to Energy=                    0.274610
 Thermal correction to Enthalpy=                  0.275554
 Thermal correction to Gibbs Free Energy=         0.222967
 Sum of electronic and zero-point Energies=           -576.199574
 Sum of electronic and thermal Energies=              -576.187008
 Sum of electronic and thermal Enthalpies=            -576.186064
 Sum of electronic and thermal Free Energies=         -576.238651

                     E (Thermal)             CV                S
                      KCal/Mol        Cal/Mol-Kelvin    Cal/Mol-Kelvin
 Total                  172.320             49.723            110.680
 Electronic               0.000              0.000              0.000
 Translational            0.889              2.981             41.602
 Rotational               0.889              2.981             31.459
 Vibrational            170.543             43.762             37.618
 Vibration     1          0.594              1.983              5.684
 Vibration     2          0.597              1.972              4.383
 Vibration     3          0.604              1.948              3.429
 Vibration     4          0.614              1.917              2.852
 Vibration     5          0.625              1.880              2.436
 Vibration     6          0.651              1.799              1.899
 Vibration     7          0.653              1.792              1.862
 Vibration     8          0.665              1.756              1.702
 Vibration     9          0.688              1.686              1.453
 Vibration    10          0.723              1.587              1.192
 Vibration    11          0.738              1.545              1.102
 Vibration    12          0.742              1.534              1.080
 Vibration    13          0.761              1.483              0.986
 Vibration    14          0.795              1.395              0.845
 Vibration    15          0.829              1.312              0.732
 Vibration    16          0.857              1.246              0.654
 Vibration    17          0.870              1.217              0.622
 Vibration    18          0.884              1.185              0.589
 Vibration    19          0.969              1.010              0.432

 Optimization completed.
    -- Stationary point found.
 Normal termination of Gaussian 16 at Thu Dec 10 10:36:25 2020.

 ----------------------------------------------------------------------
 # B3LYP/6-311++G(d,p) empiricaldispersion=gd3bj scf=xqc pop=npa geom=c
 heck
 ----------------------------------------------------------------------

 --------------------------------------
 CID_90144630_JID_4688_Energie_neutraal
 --------------------------------------
 Structure from the checkpoint file:  "JID_4688.chk"
 Charge =  0 Multiplicity = 1

 SCF Done:  E(RB3LYP) =  -576.612200038     A.U. after   15 cycles
 Normal termination of Gaussian 16 at Thu Dec 10 10:41:32 2020.

 ----------------------------------------------------------------------
 # B3LYP/6-311++G(d,p) empiricaldispersion=gd3bj scf=xqc pop=npa geom=c
 heck
 ----------------------------------------------------------------------

 ------------------------------------
 CID_90144630_JID_4688_Energie_kation
 ------------------------------------
 Structure from the checkpoint file:  "JID_4688.chk"
 Charge =  1 Multiplicity = 2

 SCF Done:  E(UB3LYP) =  -576.330987427     A.U. after   26 cycles
 Normal termination of Gaussian 16 at Thu Dec 10 10:51:23 2020.
 Gaussian 16:  ES64L-G16RevA.03 25-Dec-2016

 ----------------------------------------------------------------------
 # B3LYP/6-311++G(d,p) empiricaldispersion=gd3bj scf=xqc pop=npa geom=c
 heck
 ----------------------------------------------------------------------

 -----------------------------------
 CID_90144630_JID_4688_Energie_anion
 -----------------------------------
 Structure from the checkpoint file:  "JID_4688.chk"
 Charge = -1 Multiplicity = 2

                         Standard orientation:
 ---------------------------------------------------------------------
 Center     Atomic      Atomic             Coordinates (Angstroms)
 Number     Number       Type             X           Y           Z
 ---------------------------------------------------------------------
      1          6           0       -2.082277   -1.556288   -1.164001
      2          6           0       -2.581788   -0.298832   -0.439328
      3          6           0       -3.618434   -0.628996    0.640751
      4          7           0       -1.476746    0.510115    0.092975
      5          6           0       -0.596758   -0.081621    1.110998
      6          6           0        0.789914   -0.373860    0.593427
      7          6           0        1.267667   -1.678044    0.466590
      8          6           0        2.545330   -1.922254   -0.040996
      9          6           0        3.347661   -0.851431   -0.430778
     10          6           0        2.872499    0.455816   -0.305884
     11          6           0        1.601467    0.710341    0.211450
     12          6           0        1.068815    2.120503    0.346116
     13          7           0       -0.089247    2.424323   -0.498315
     14          6           0       -1.115210    1.664300   -0.570814
     15          1           0       -1.601893   -2.253992   -0.469419
     16          1           0       -1.351334   -1.292835   -1.934322
     17          1           0       -2.918712   -2.082667   -1.637438
     18          1           0       -3.073133    0.340332   -1.181614
     19          1           0       -3.209854   -1.296576    1.407944
     20          1           0       -3.967057    0.284445    1.132312
     21          1           0       -4.480596   -1.136028    0.193890
     22          1           0       -1.065620   -1.001061    1.464977
     23          1           0       -0.553346    0.595141    1.973308
     24          1           0        0.636779   -2.510801    0.769312
     25          1           0        2.908114   -2.942099   -0.132818
     26          1           0        4.341290   -1.030981   -0.831894
     27          1           0        3.496304    1.291865   -0.612107
     28          1           0        1.860193    2.824135    0.066408
     29          1           0        0.837991    2.337442    1.401479
     30          1           0       -1.890498    1.974815   -1.277822
 ---------------------------------------------------------------------

 SCF Done:  E(UB3LYP) =  -576.599221368     A.U. after   33 cycles
 SCF Done:  E(UB3LYP) =  -576.599221368     a.u. after    1 cycles

 The electronic state is 2-A.
 Alpha  occ. eigenvalues --  -14.23639 -14.18092 -10.13290 -10.11575 -10.11217
 Alpha  occ. eigenvalues --  -10.10006 -10.08665 -10.08596 -10.08252 -10.08106
 Alpha  occ. eigenvalues --  -10.08015 -10.07942 -10.06114 -10.06051  -0.86742
 Alpha  occ. eigenvalues --   -0.78962  -0.76668  -0.69146  -0.67916  -0.65976
 Alpha  occ. eigenvalues --   -0.60242  -0.59224  -0.59130  -0.51838  -0.50349
 Alpha  occ. eigenvalues --   -0.48539  -0.46616  -0.41566  -0.41316  -0.38447
 Alpha  occ. eigenvalues --   -0.36764  -0.36057  -0.34874  -0.34451  -0.33471
 Alpha  occ. eigenvalues --   -0.32724  -0.31792  -0.30148  -0.28928  -0.28767
 Alpha  occ. eigenvalues --   -0.28383  -0.26545  -0.26127  -0.25680  -0.24762
 Alpha  occ. eigenvalues --   -0.24310  -0.22875  -0.16680  -0.16048  -0.13677
 Alpha  occ. eigenvalues --   -0.11746   0.04334
 Alpha virt. eigenvalues --    0.06210   0.07128   0.07309   0.07565   0.08283
 Alpha virt. eigenvalues --    0.08605   0.08717   0.09679   0.09939   0.10592
 Alpha virt. eigenvalues --    0.11088   0.11530   0.12239   0.12610   0.13107

  Beta  occ. eigenvalues --  -14.23641 -14.18090 -10.13279 -10.11563 -10.11187
  Beta  occ. eigenvalues --  -10.09999 -10.08666 -10.08591 -10.08245 -10.08098
  Beta  occ. eigenvalues --  -10.07998 -10.07920 -10.06081 -10.06003  -0.86726
  Beta  occ. eigenvalues --   -0.78947  -0.76647  -0.69114  -0.67885  -0.65947
  Beta  occ. eigenvalues --   -0.60196  -0.59188  -0.59065  -0.51794  -0.50296
  Beta  occ. eigenvalues --   -0.48503  -0.46578  -0.41533  -0.41268  -0.38420
  Beta  occ. eigenvalues --   -0.36739  -0.36014  -0.34839  -0.34407  -0.33446
  Beta  occ. eigenvalues --   -0.32690  -0.31740  -0.30112  -0.28888  -0.28730
  Beta  occ. eigenvalues --   -0.28354  -0.26515  -0.26095  -0.25643  -0.24719
  Beta  occ. eigenvalues --   -0.24261  -0.22842  -0.16653  -0.16023  -0.13663
  Beta  occ. eigenvalues --   -0.11734
  Beta virt. eigenvalues --    0.06457   0.07092   0.07484   0.07596   0.07981
  Beta virt. eigenvalues --    0.08612   0.09166   0.09263   0.10139   0.10443
  Beta virt. eigenvalues --    0.10959   0.11307   0.11814   0.12662   0.12990

 Mulliken charges and spin densities:
               1          2
     1  C    1.241791  -1.775195
     2  C   -2.503068   2.320470
     3  C    1.653019  -2.103285
     4  N    0.163104   0.001594
     5  C    2.356427  -2.948867
     6  C   -1.076197   1.830926
     7  C    0.282187  -0.689277
     8  C    0.657568  -1.026089
     9  C    0.458040  -0.747279
    10  C   -0.816482   0.323359
    11  C   -0.734548   1.394004
    12  C   -0.016736  -0.571611
    13  N   -0.098468   0.033887
    14  C    0.170302  -0.317680
    15  H   -0.137330   0.298043
    16  H    0.082564   0.065817
    17  H   -0.251949   0.400283
    18  H   -0.317660   0.463231
    19  H   -0.518707   0.671142
    20  H   -0.195432   0.351019
    21  H   -0.391574   0.537641
    22  H    0.063812   0.111603
    23  H    0.044812   0.174473
    24  H   -0.574865   0.712009
    25  H   -0.482564   0.660923
    26  H   -0.195004   0.348360
    27  H    0.005199   0.122303
    28  H    0.134831   0.056236
    29  H   -0.024616   0.162594
    30  H    0.021545   0.139366
 Sum of Mulliken charges =  -1.00000   1.00000

 Dipole moment (field-independent basis, Debye):
    X=              4.1658    Y=              3.8752    Z=             -0.4484  Tot=              5.7072
 Quadrupole moment (field-independent basis, Debye-Ang):
   XX=           -155.8721   YY=           -139.4925   ZZ=           -118.4951
   XY=             -1.8810   XZ=              1.8753   YZ=              3.5187

 Summary of Natural Population Analysis:

                                       Natural Population
                Natural  -----------------------------------------------
    Atom  No    Charge         Core      Valence    Rydberg      Total
 -----------------------------------------------------------------------
      C    1   -0.29111      0.99964     2.28587    0.00560     3.29111
      C    2   -0.00024      0.99959     1.98886    0.01179     3.00024
      C    3   -0.28945      0.99964     2.28396    0.00584     3.28945
      N    4   -0.25800      0.99966     2.74587    0.01247     3.75800
      C    5   -0.09658      0.99956     2.08447    0.01254     3.09658
      C    6   -0.02224      0.99946     2.01182    0.01097     3.02224
      C    7   -0.09232      0.99951     2.08276    0.01005     3.09232
      C    8   -0.09987      0.99956     2.09023    0.01008     3.09987
      C    9   -0.10207      0.99956     2.09188    0.01063     3.10207
      C   10   -0.09810      0.99951     2.08957    0.00902     3.09810
      C   11   -0.01539      0.99946     2.00542    0.01052     3.01539
      C   12   -0.10692      0.99956     2.09629    0.01107     3.10692
      N   13   -0.28250      0.99970     2.77141    0.01139     3.78250
      C   14    0.16488      0.99958     1.81873    0.01681     2.83512
      H   15    0.09985      0.00000     0.39856    0.00159     0.40015
      H   16    0.10232      0.00000     0.39661    0.00106     0.39768
      H   17    0.10352      0.00000     0.39526    0.00122     0.39648
      H   18    0.09546      0.00000     0.40216    0.00238     0.40454
      H   19    0.09945      0.00000     0.39855    0.00200     0.40055
      H   20    0.10232      0.00000     0.39622    0.00145     0.39768
      H   21    0.10473      0.00000     0.39354    0.00173     0.39527
      H   22    0.10888      0.00000     0.38916    0.00196     0.39112
      H   23    0.10155      0.00000     0.39681    0.00163     0.39845
      H   24    0.10337      0.00000     0.39436    0.00227     0.39663
      H   25    0.10225      0.00000     0.39642    0.00133     0.39775
      H   26    0.09969      0.00000     0.39941    0.00090     0.40031
      H   27    0.09855      0.00000     0.40042    0.00103     0.40145
      H   28    0.09388      0.00000     0.40440    0.00172     0.40612
      H   29    0.09374      0.00000     0.40492    0.00135     0.40626
      H   30    0.08034      0.00000     0.41764    0.00202     0.41966
 =======================================================================
   * Total *   -0.00000     13.99399    36.83159    0.17441    51.00000

 Normal termination of Gaussian 16 at Thu Dec 10 11:06:07 2020.
