 Gaussian 16, Revision A.03,

 -----------------------------------------------------------
 # opt freq B3LYP/6-31G(d) empiricaldispersion=gd3bj scf=xqc
 -----------------------------------------------------------

 ------------------------------
 CID_61061717_JID_8628_neutraal
 ------------------------------
 Symbolic Z-matrix:
 Charge =  0 Multiplicity = 1

 SCF Done:  E(RB3LYP) =  -1237.38650560     A.U. after   15 cycles
 SCF Done:  E(RB3LYP) =  -1237.39420851     A.U. after   13 cycles
 SCF Done:  E(RB3LYP) =  -1237.39466618     A.U. after   13 cycles
 SCF Done:  E(RB3LYP) =  -1237.39763862     A.U. after   14 cycles
 SCF Done:  E(RB3LYP) =  -1237.39831411     A.U. after   13 cycles
 SCF Done:  E(RB3LYP) =  -1237.39932073     A.U. after   13 cycles
 SCF Done:  E(RB3LYP) =  -1237.39976533     A.U. after   13 cycles
 SCF Done:  E(RB3LYP) =  -1237.39992750     A.U. after   12 cycles
 SCF Done:  E(RB3LYP) =  -1237.40001017     A.U. after   11 cycles
 SCF Done:  E(RB3LYP) =  -1237.40008764     A.U. after   11 cycles
 SCF Done:  E(RB3LYP) =  -1237.40026357     A.U. after   10 cycles
 SCF Done:  E(RB3LYP) =  -1237.40026421     A.U. after    8 cycles
 SCF Done:  E(RB3LYP) =  -1237.40026451     A.U. after    8 cycles
 SCF Done:  E(RB3LYP) =  -1237.40026463     A.U. after    7 cycles
 SCF Done:  E(RB3LYP) =  -1237.40026467     A.U. after    7 cycles
 Optimization completed.
    -- Stationary point found.
 Normal termination of Gaussian 16 at Fri Dec 11 21:33:43 2020.

 --------------------------------------------------------------------
 #N Geom=AllCheck Guess=TCheck SCRF=Check GenChk RB3LYP/6-31G(d) Freq
 --------------------------------------------------------------------

 Structure from the checkpoint file:  "JID_8628.chk"
 ------------------------------
 CID_61061717_JID_8628_neutraal
 ------------------------------
 Charge =  0 Multiplicity = 1

 SCF Done:  E(RB3LYP) =  -1237.40026467     A.U. after    1 cycles

  Exact polarizability: 220.181  -8.441 129.789   0.830  11.915 126.582
 Approx polarizability: 307.176 -24.200 201.918   3.159  40.575 208.303

                      1                      2                      3
                      A                      A                      A
 Frequencies --     22.8173                33.1858                43.4949
 Red. masses --      5.1737                 4.4474                 8.3914
 Frc consts  --      0.0016                 0.0029                 0.0094
 IR Inten    --      4.0023                 2.0544                 1.6304

                      4                      5                      6
                      A                      A                      A
 Frequencies --     59.7611                71.0316                77.8842
 Red. masses --      3.2377                 2.6240                 2.3919
 Frc consts  --      0.0068                 0.0078                 0.0085
 IR Inten    --      1.4437                 4.2297                 0.6981

                      7                      8                      9
                      A                      A                      A
 Frequencies --     96.4502               121.0159               142.7826
 Red. masses --      3.0152                 4.3550                 1.3175
 Frc consts  --      0.0165                 0.0376                 0.0158
 IR Inten    --      0.4268                 3.0174                 0.3177

                     10                     11                     12
                      A                      A                      A
 Frequencies --    153.1236               179.8959               194.9992
 Red. masses --      1.1880                 2.8435                 4.4508
 Frc consts  --      0.0164                 0.0542                 0.0997
 IR Inten    --      0.9019                 4.5573                 0.6750

                     13                     14                     15
                      A                      A                      A
 Frequencies --    214.9733               226.4238               256.3737
 Red. masses --      4.0174                 1.5306                 6.3929
 Frc consts  --      0.1094                 0.0462                 0.2476
 IR Inten    --      3.6544                 0.5949                 1.2897

                     16                     17                     18
                      A                      A                      A
 Frequencies --    264.7223               290.4485               313.8223
 Red. masses --      2.8496                 5.3020                 4.0327
 Frc consts  --      0.1177                 0.2635                 0.2340
 IR Inten    --      1.3809                 2.0515                 5.5936

                     19                     20                     21
                      A                      A                      A
 Frequencies --    338.6334               371.8702               397.3241
 Red. masses --      3.9717                 4.9562                 4.7431
 Frc consts  --      0.2683                 0.4038                 0.4412
 IR Inten    --      7.8862                 2.8999                 3.4948

                     22                     23                     24
                      A                      A                      A
 Frequencies --    411.7715               466.2709               484.2216
 Red. masses --      6.2339                 4.0010                 3.0796
 Frc consts  --      0.6228                 0.5125                 0.4254
 IR Inten    --      5.9655                27.4249                 4.1998

                     25                     26                     27
                      A                      A                      A
 Frequencies --    491.3369               507.7159               518.1883
 Red. masses --      1.3288                 2.9281                 3.2770
 Frc consts  --      0.1890                 0.4447                 0.5184
 IR Inten    --     57.9276                26.9081                19.0151

                     28                     29                     30
                      A                      A                      A
 Frequencies --    526.6748               547.9737               583.5447
 Red. masses --      2.5752                 5.0026                 4.1004
 Frc consts  --      0.4209                 0.8850                 0.8227
 IR Inten    --    115.9571                17.7864                 1.4885

                     31                     32                     33
                      A                      A                      A
 Frequencies --    613.9562               645.3036               671.1111
 Red. masses --      2.3531                 5.0597                 4.5953
 Frc consts  --      0.5226                 1.2414                 1.2194
 IR Inten    --     43.5535                16.0230                10.8605

                     34                     35                     36
                      A                      A                      A
 Frequencies --    709.4459               740.8423               775.6790
 Red. masses --      4.7557                 4.1597                 5.3807
 Frc consts  --      1.4103                 1.3451                 1.9074
 IR Inten    --    103.6828                24.6143                12.0058

                     37                     38                     39
                      A                      A                      A
 Frequencies --    782.7330               800.6580               831.5475
 Red. masses --      1.3535                 3.0456                 2.2589
 Frc consts  --      0.4886                 1.1503                 0.9203
 IR Inten    --      4.7523                 6.5986                66.0571

                     40                     41                     42
                      A                      A                      A
 Frequencies --    860.7909               878.4163               924.0217
 Red. masses --      1.8847                 1.6478                 3.6894
 Frc consts  --      0.8228                 0.7491                 1.8560
 IR Inten    --     25.0843                38.8539                44.9256

                     43                     44                     45
                      A                      A                      A
 Frequencies --    964.9723               972.5400               996.4507
 Red. masses --      1.3669                 3.7391                 1.7702
 Frc consts  --      0.7499                 2.0837                 1.0356
 IR Inten    --      2.5334                20.0786                 2.5557

                     46                     47                     48
                      A                      A                      A
 Frequencies --   1039.0046              1056.9304              1074.3887
 Red. masses --      1.5963                 4.0072                 1.7059
 Frc consts  --      1.0153                 2.6374                 1.1602
 IR Inten    --     32.9063                96.7817                 5.6031

                     49                     50                     51
                      A                      A                      A
 Frequencies --   1074.8888              1092.2743              1133.0806
 Red. masses --      1.4387                 1.9949                 6.4356
 Frc consts  --      0.9794                 1.4023                 4.8681
 IR Inten    --     17.0450                 1.2547               308.7020

                     52                     53                     54
                      A                      A                      A
 Frequencies --   1156.7774              1183.7217              1201.1478
 Red. masses --      1.7936                 1.2508                 1.5467
 Frc consts  --      1.4141                 1.0326                 1.3148
 IR Inten    --     28.3624                 4.2103                71.7016

                     55                     56                     57
                      A                      A                      A
 Frequencies --   1222.7908              1260.1205              1278.6439
 Red. masses --      1.4724                 2.5376                 1.8097
 Frc consts  --      1.2971                 2.3741                 1.7432
 IR Inten    --     42.2652                31.9452                36.7149

                     58                     59                     60
                      A                      A                      A
 Frequencies --   1280.7942              1300.6129              1324.7191
 Red. masses --      1.2346                 3.5979                 2.5460
 Frc consts  --      1.1933                 3.5858                 2.6324
 IR Inten    --     15.8907                56.7348                56.2170

                     61                     62                     63
                      A                      A                      A
 Frequencies --   1328.2769              1344.8206              1355.7041
 Red. masses --      1.9618                 2.5998                 3.8487
 Frc consts  --      2.0393                 2.7703                 4.1677
 IR Inten    --     61.2660               104.6234               173.4801

                     64                     65                     66
                      A                      A                      A
 Frequencies --   1410.4625              1425.4549              1442.8385
 Red. masses --      2.2439                 1.4106                 1.2584
 Frc consts  --      2.6302                 1.6887                 1.5436
 IR Inten    --     99.3783                70.1459                 1.1813

                     67                     68                     69
                      A                      A                      A
 Frequencies --   1454.2328              1486.4946              1488.0616
 Red. masses --      1.8459                 1.3420                 1.0947
 Frc consts  --      2.3000                 1.7471                 1.4282
 IR Inten    --     40.5495                16.2185                 2.3813

                     70                     71                     72
                      A                      A                      A
 Frequencies --   1505.5477              1510.4183              1515.1785
 Red. masses --      1.0623                 1.2128                 1.0643
 Frc consts  --      1.4187                 1.6301                 1.4396
 IR Inten    --     17.0909                 2.8042                 1.9798

                     73                     74                     75
                      A                      A                      A
 Frequencies --   1518.7323              1525.9851              1533.5779
 Red. masses --      1.5706                 1.0434                 1.0506
 Frc consts  --      2.1345                 1.4316                 1.4557
 IR Inten    --     57.3337                 7.9213                 7.9191

                     76                     77                     78
                      A                      A                      A
 Frequencies --   1537.8930              1555.1105              1631.8988
 Red. masses --      1.0575                 3.0831                 6.2797
 Frc consts  --      1.4735                 4.3930                 9.8531
 IR Inten    --      7.3748               224.2229                14.7029

                     79                     80                     81
                      A                      A                      A
 Frequencies --   1667.2246              1803.0228              3046.1529
 Red. masses --      6.3275                 8.2728                 1.0358
 Frc consts  --     10.3627                15.8454                 5.6625
 IR Inten    --     41.5580               445.7845                60.6042

                     82                     83                     84
                      A                      A                      A
 Frequencies --   3071.5287              3073.7614              3081.9867
 Red. masses --      1.0377                 1.0380                 1.0595
 Frc consts  --      5.7682                 5.7784                 5.9294
 IR Inten    --      4.5883                14.5770                 4.7057

                     85                     86                     87
                      A                      A                      A
 Frequencies --   3122.7353              3133.2001              3139.6735
 Red. masses --      1.1013                 1.1065                 1.0989
 Frc consts  --      6.3276                 6.3997                 6.3826
 IR Inten    --     24.5118                 1.3844                 6.7973

                     88                     89                     90
                      A                      A                      A
 Frequencies --   3143.6944              3166.1771              3169.2358
 Red. masses --      1.0989                 1.1046                 1.1041
 Frc consts  --      6.3987                 6.5239                 6.5339
 IR Inten    --     11.9392                19.9082                 9.0298

                     91                     92                     93
                      A                      A                      A
 Frequencies --   3181.8641              3199.9916              3201.8258
 Red. masses --      1.1032                 1.0906                 1.0913
 Frc consts  --      6.5805                 6.5797                 6.5914
 IR Inten    --      8.5087                11.7772                 0.1693

                     94                     95                     96
                      A                      A                      A
 Frequencies --   3255.9705              3566.5672              3577.9178
 Red. masses --      1.0929                 1.0759                 1.0754
 Frc consts  --      6.8265                 8.0632                 8.1114
 IR Inten    --      1.3175                31.9826                24.0308

 - Thermochemistry -
 -------------------
 Temperature   298.150 Kelvin.  Pressure   1.00000 Atm.
 Atom     1 has atomic number  6 and mass  12.00000

 Molecular mass:   272.08308 amu.
 Principal axes and moments of inertia in atomic units:
                           1         2         3
     Eigenvalues --  2168.391409714.68991**********
           X            0.99993   0.01110  -0.00399
           Y           -0.01131   0.99833  -0.05666
           Z            0.00335   0.05670   0.99839
 This molecule is an asymmetric top.
 Rotational symmetry number  1.
 Warning -- assumption of classical behavior for rotation
           may cause significant error
 Rotational temperatures (Kelvin)      0.03994     0.00892     0.00848
 Rotational constants (GHZ):           0.83229     0.18577     0.17676
 Zero-point vibrational energy     714351.9 (Joules/Mol)
                                  170.73421 (Kcal/Mol)
 Warning -- explicit consideration of  31 degrees of freedom as
           vibrations may cause significant error
 Vibrational temperatures:     32.83    47.75    62.58    85.98   102.20
          (Kelvin)            112.06   138.77   174.11   205.43   220.31
                              258.83   280.56   309.30   325.77   368.86
                              380.88   417.89   451.52   487.22   535.04
                              571.66   592.45   670.86   696.69   706.92
                              730.49   745.56   757.77   788.41   839.59
                              883.35   928.45   965.58  1020.73  1065.91
                             1116.03  1126.18  1151.97  1196.41  1238.49
                             1263.85  1329.46  1388.38  1399.27  1433.67
                             1494.90  1520.69  1545.81  1546.53  1571.54
                             1630.25  1664.34  1703.11  1728.18  1759.32
                             1813.03  1839.68  1842.78  1871.29  1905.98
                             1911.09  1934.90  1950.56  2029.34  2050.91
                             2075.92  2092.32  2138.73  2140.99  2166.15
                             2173.15  2180.00  2185.12  2195.55  2206.48
                             2212.69  2237.46  2347.94  2398.76  2594.15
                             4382.73  4419.24  4422.46  4434.29  4492.92
                             4507.98  4517.29  4523.08  4555.42  4559.82
                             4577.99  4604.07  4606.71  4684.62  5131.49
                             5147.83

 Zero-point correction=                           0.272082 (Hartree/Particle)
 Thermal correction to Energy=                    0.291301
 Thermal correction to Enthalpy=                  0.292245
 Thermal correction to Gibbs Free Energy=         0.222840
 Sum of electronic and zero-point Energies=          -1237.128182
 Sum of electronic and thermal Energies=             -1237.108963
 Sum of electronic and thermal Enthalpies=           -1237.108019
 Sum of electronic and thermal Free Energies=        -1237.177425

                     E (Thermal)             CV                S
                      KCal/Mol        Cal/Mol-Kelvin    Cal/Mol-Kelvin
 Total                  182.794             70.211            146.077
 Electronic               0.000              0.000              0.000
 Translational            0.889              2.981             42.702
 Rotational               0.889              2.981             33.730
 Vibrational            181.017             64.250             69.645
 Vibration     1          0.593              1.985              6.373
 Vibration     2          0.594              1.983              5.629
 Vibration     3          0.595              1.980              5.093
 Vibration     4          0.597              1.973              4.465
 Vibration     5          0.598              1.968              4.125
 Vibration     6          0.599              1.964              3.943
 Vibration     7          0.603              1.952              3.525
 Vibration     8          0.609              1.932              3.084
 Vibration     9          0.616              1.910              2.766
 Vibration    10          0.619              1.899              2.633
 Vibration    11          0.629              1.867              2.329
 Vibration    12          0.636              1.847              2.180
 Vibration    13          0.645              1.818              2.001
 Vibration    14          0.650              1.801              1.907
 Vibration    15          0.666              1.752              1.686
 Vibration    16          0.671              1.738              1.630
 Vibration    17          0.686              1.692              1.471
 Vibration    18          0.702              1.647              1.342
 Vibration    19          0.719              1.598              1.219
 Vibration    20          0.744              1.530              1.072
 Vibration    21          0.764              1.476              0.973
 Vibration    22          0.776              1.445              0.920
 Vibration    23          0.824              1.325              0.748
 Vibration    24          0.840              1.285              0.699
 Vibration    25          0.847              1.269              0.680
 Vibration    26          0.863              1.233              0.639
 Vibration    27          0.873              1.210              0.614
 Vibration    28          0.882              1.191              0.595
 Vibration    29          0.903              1.144              0.548
 Vibration    30          0.940              1.067              0.479
 Vibration    31          0.973              1.002              0.426

                           ! Non-Optimized Parameters !
 Normal termination of Gaussian 16 at Fri Dec 11 21:51:00 2020.

 ----------------------------------------------------------------------
 # B3LYP/6-311++G(d,p) empiricaldispersion=gd3bj scf=xqc pop=npa geom=c
 heck
 ----------------------------------------------------------------------

 --------------------------------------
 CID_61061717_JID_8628_Energie_neutraal
 --------------------------------------
 Structure from the checkpoint file:  "JID_8628.chk"
 Charge =  0 Multiplicity = 1

 SCF Done:  E(RB3LYP) =  -1237.67379217     A.U. after   17 cycles
 Normal termination of Gaussian 16 at Fri Dec 11 21:59:16 2020.

 ----------------------------------------------------------------------
 # B3LYP/6-311++G(d,p) empiricaldispersion=gd3bj scf=xqc pop=npa geom=c
 heck
 ----------------------------------------------------------------------

 ------------------------------------
 CID_61061717_JID_8628_Energie_kation
 ------------------------------------
 Structure from the checkpoint file:  "JID_8628.chk"
 Charge =  1 Multiplicity = 2

 SCF Done:  E(UB3LYP) =  -1237.37057987     A.U. after   25 cycles
 Normal termination of Gaussian 16 at Fri Dec 11 22:17:50 2020.
 Gaussian 16:  ES64L-G16RevA.03 25-Dec-2016

 ----------------------------------------------------------------------
 # B3LYP/6-311++G(d,p) empiricaldispersion=gd3bj scf=xqc pop=npa geom=c
 heck
 ----------------------------------------------------------------------

 -----------------------------------
 CID_61061717_JID_8628_Energie_anion
 -----------------------------------
 Structure from the checkpoint file:  "JID_8628.chk"
 Charge = -1 Multiplicity = 2

                         Standard orientation:
 ---------------------------------------------------------------------
 Center     Atomic      Atomic             Coordinates (Angstroms)
 Number     Number       Type             X           Y           Z
 ---------------------------------------------------------------------
      1          6           0       -2.013781   -1.856790    1.359007
      2          6           0       -3.205243   -0.907627    1.431183
      3         16           0       -3.530651    0.010076   -0.106770
      4          8           0       -3.465360   -0.939291   -1.217205
      5          8           0       -4.699580    0.855771    0.131634
      6          7           0       -2.256691    1.115028   -0.297512
      7          6           0       -0.902491    0.732188   -0.469104
      8          6           0        0.077465    1.288951    0.358318
      9          6           0        1.420616    0.954036    0.193901
     10          6           0        1.797018   -0.000756   -0.769326
     11          6           0        0.802759   -0.539447   -1.594875
     12          6           0       -0.531156   -0.167579   -1.476433
     13          7           0        3.148863   -0.392941   -0.929670
     14          6           0        3.951615   -1.076023   -0.027034
     15          8           0        5.092079   -1.380941   -0.338452
     16          6           0        3.336190   -1.409673    1.315580
     17          8           0        2.329837    1.530329    1.046742
     18          6           0        3.240266    2.451412    0.432647
     19          1           0       -2.106722   -2.524166    0.498757
     20          1           0       -1.985013   -2.464468    2.269395
     21          1           0       -1.068309   -1.316270    1.278449
     22          1           0       -4.143395   -1.445799    1.602749
     23          1           0       -3.103969   -0.151544    2.215427
     24          1           0       -2.413911    1.929725    0.287818
     25          1           0       -0.182108    1.996970    1.139859
     26          1           0        1.094301   -1.267475   -2.346417
     27          1           0       -1.287961   -0.585466   -2.127151
     28          1           0        3.558774   -0.331275   -1.854633
     29          1           0        3.219179   -0.500924    1.912894
     30          1           0        2.344019   -1.858011    1.197972
     31          1           0        4.001168   -2.105445    1.827874
     32          1           0        3.865044    1.955479   -0.315999
     33          1           0        2.690530    3.279121   -0.032034
     34          1           0        3.868225    2.834641    1.238684
 ---------------------------------------------------------------------

 SCF Done:  E(UB3LYP) =  -1237.67288184     A.U. after   33 cycles
 SCF Done:  E(UB3LYP) =  -1237.67288184     a.u. after    1 cycles

 The electronic state is 2-A.
 Alpha  occ. eigenvalues --  -88.96091 -19.04741 -19.02086 -19.01969 -18.98854
 Alpha  occ. eigenvalues --  -14.24860 -14.23718 -10.17319 -10.13095 -10.12643
 Alpha  occ. eigenvalues --  -10.11216 -10.10010 -10.09324 -10.07320 -10.06988
 Alpha  occ. eigenvalues --  -10.06236 -10.06056 -10.05966  -8.02333  -5.98629
 Alpha  occ. eigenvalues --   -5.98577  -5.98380  -1.02267  -0.96343  -0.94034
 Alpha  occ. eigenvalues --   -0.91519  -0.83730  -0.82573  -0.73409  -0.69945
 Alpha  occ. eigenvalues --   -0.65384  -0.64397  -0.63184  -0.59592  -0.57945
 Alpha  occ. eigenvalues --   -0.53375  -0.51981  -0.49548  -0.47018  -0.44031
 Alpha  occ. eigenvalues --   -0.42859  -0.42781  -0.39889  -0.39143  -0.38380
 Alpha  occ. eigenvalues --   -0.37804  -0.36803  -0.36685  -0.35499  -0.34191
 Alpha  occ. eigenvalues --   -0.33505  -0.32907  -0.31921  -0.31404  -0.30313
 Alpha  occ. eigenvalues --   -0.29472  -0.29290  -0.28824  -0.27448  -0.26712
 Alpha  occ. eigenvalues --   -0.26502  -0.25745  -0.24622  -0.22917  -0.22152
 Alpha  occ. eigenvalues --   -0.21486  -0.20677  -0.18805  -0.16923  -0.16165
 Alpha  occ. eigenvalues --   -0.14536  -0.11846   0.04216
 Alpha virt. eigenvalues --    0.06090   0.07053   0.07869   0.08551   0.08686
 Alpha virt. eigenvalues --    0.09156   0.09638   0.10030   0.10586   0.11110
 Alpha virt. eigenvalues --    0.11455   0.11666   0.12306   0.12453   0.13371

  Beta  occ. eigenvalues --  -88.96065 -19.04742 -19.02086 -19.01963 -18.98812
  Beta  occ. eigenvalues --  -14.24847 -14.23745 -10.17271 -10.13092 -10.12698
  Beta  occ. eigenvalues --  -10.11165 -10.09746 -10.09120 -10.07295 -10.06990
  Beta  occ. eigenvalues --  -10.06306 -10.05871 -10.05823  -8.02304  -5.98581
  Beta  occ. eigenvalues --   -5.98556  -5.98359  -1.02226  -0.96343  -0.93956
  Beta  occ. eigenvalues --   -0.91506  -0.83552  -0.82440  -0.73201  -0.69864
  Beta  occ. eigenvalues --   -0.65247  -0.64241  -0.62932  -0.59504  -0.57816
  Beta  occ. eigenvalues --   -0.53158  -0.51663  -0.49445  -0.46928  -0.43922
  Beta  occ. eigenvalues --   -0.42792  -0.42664  -0.39829  -0.39067  -0.38295
  Beta  occ. eigenvalues --   -0.37709  -0.36773  -0.36630  -0.35465  -0.34100
  Beta  occ. eigenvalues --   -0.33404  -0.32770  -0.31845  -0.31322  -0.30278
  Beta  occ. eigenvalues --   -0.29403  -0.29193  -0.28495  -0.27366  -0.26617
  Beta  occ. eigenvalues --   -0.26212  -0.25630  -0.24504  -0.22890  -0.21810
  Beta  occ. eigenvalues --   -0.21420  -0.20625  -0.18621  -0.16767  -0.16116
  Beta  occ. eigenvalues --   -0.13841  -0.11045
  Beta virt. eigenvalues --    0.06532   0.07131   0.07964   0.08090   0.08866
  Beta virt. eigenvalues --    0.09234   0.09324   0.09831   0.10291   0.10604
  Beta virt. eigenvalues --    0.11369   0.11620   0.11695   0.12498   0.12632

 Mulliken charges and spin densities:
               1          2
     1  C    0.023621  -0.404032
     2  C   -0.154506  -0.430063
     3  S    0.488331  -0.126513
     4  O   -0.213804   0.006100
     5  O   -0.231195   0.013561
     6  N   -0.317379   0.057759
     7  C    0.676951  -0.174940
     8  C    0.300743  -0.117763
     9  C   -1.430362   0.280965
    10  C    0.413360  -0.034230
    11  C   -0.398217   0.256766
    12  C   -0.382240   0.058050
    13  N   -0.185355  -0.010554
    14  C    0.052161  -0.018092
    15  O   -0.363430   0.017293
    16  C   -0.256299  -0.114767
    17  O   -0.108939   0.006923
    18  C   -0.182457  -0.064175
    19  H    0.079781   0.076324
    20  H   -0.479160   0.638359
    21  H    0.492399  -0.303077
    22  H   -0.113839   0.338503
    23  H   -0.292857   0.541718
    24  H    0.313561  -0.029998
    25  H    0.008116   0.143320
    26  H    0.146614  -0.010381
    27  H    0.236145   0.003114
    28  H    0.198048   0.110462
    29  H    0.097273   0.102055
    30  H    0.061979   0.095411
    31  H    0.168012   0.011058
    32  H    0.128293   0.038601
    33  H    0.080985   0.045051
    34  H    0.143666  -0.002805
 Sum of Mulliken charges =  -1.00000   1.00000

 Dipole moment (field-independent basis, Debye):
    X=              2.1907    Y=              3.2777    Z=             -1.2178  Tot=              4.1262
 Quadrupole moment (field-independent basis, Debye-Ang):
   XX=           -211.7288   YY=           -133.8444   ZZ=           -146.0950
   XY=              8.7779   XZ=              5.4913   YZ=              3.6835

 Summary of Natural Population Analysis:

                                       Natural Population
                Natural  -----------------------------------------------
    Atom  No    Charge         Core      Valence    Rydberg      Total
 -----------------------------------------------------------------------
      C    1   -0.29894      0.99965     2.29210    0.00720     3.29894
      C    2   -0.28373      0.99959     2.27253    0.01160     3.28373
      S    3    1.10342      4.99929     1.79682    0.10048     6.89658
      O    4   -0.46441      0.99990     3.45882    0.00569     4.46441
      O    5   -0.46934      0.99991     3.46382    0.00562     4.46934
      N    6   -0.42313      0.99968     2.91092    0.01253     3.92313
      C    7    0.10264      0.99947     1.88470    0.01319     2.89736
      C    8   -0.10978      0.99947     2.09942    0.01089     3.10978
      C    9    0.14497      0.99933     1.84143    0.01427     2.85503
      C   10    0.06250      0.99941     1.92717    0.01091     2.93750
      C   11   -0.06229      0.99954     2.05360    0.00915     3.06229
      C   12   -0.12828      0.99952     2.11986    0.00890     3.12828
      N   13   -0.32564      0.99965     2.81619    0.00980     3.82564
      C   14    0.35134      0.99970     1.62579    0.02317     2.64866
      O   15   -0.32476      0.99987     3.31902    0.00587     4.32476
      C   16   -0.34003      0.99962     2.33596    0.00446     3.34003
      O   17   -0.29405      0.99986     3.28382    0.01036     4.29405
      C   18   -0.09650      0.99959     2.08943    0.00747     3.09650
      H   19    0.10769      0.00000     0.39119    0.00112     0.39231
      H   20    0.10515      0.00000     0.39367    0.00118     0.39485
      H   21    0.11098      0.00000     0.38712    0.00190     0.38902
      H   22    0.11435      0.00000     0.38418    0.00148     0.38565
      H   23    0.11331      0.00000     0.38512    0.00157     0.38669
      H   24    0.19822      0.00000     0.29973    0.00205     0.30178
      H   25    0.10189      0.00000     0.39680    0.00131     0.39811
      H   26    0.09768      0.00000     0.40157    0.00075     0.40232
      H   27    0.11417      0.00000     0.38501    0.00082     0.38583
      H   28    0.19672      0.00000     0.30110    0.00218     0.30328
      H   29    0.12076      0.00000     0.37790    0.00135     0.37924
      H   30    0.11215      0.00000     0.38700    0.00085     0.38785
      H   31    0.10670      0.00000     0.39254    0.00076     0.39330
      H   32    0.08841      0.00000     0.41044    0.00115     0.41159
      H   33    0.08119      0.00000     0.41791    0.00090     0.41881
      H   34    0.08664      0.00000     0.41269    0.00067     0.41336
 =======================================================================
   * Total *    0.00000     21.99305    49.71537    0.29158    72.00000

 Normal termination of Gaussian 16 at Fri Dec 11 22:41:33 2020.
