 Gaussian 16, Revision A.03,

 -----------------------------------------------------------
 # opt freq B3LYP/6-31G(d) empiricaldispersion=gd3bj scf=xqc
 -----------------------------------------------------------

 ------------------------------
 CID_61952732_JID_5194_neutraal
 ------------------------------
 Symbolic Z-matrix:
 Charge =  0 Multiplicity = 1

 SCF Done:  E(RB3LYP) =  -712.308561902     A.U. after   14 cycles
 SCF Done:  E(RB3LYP) =  -712.314176724     A.U. after   12 cycles
 SCF Done:  E(RB3LYP) =  -712.315138530     A.U. after   12 cycles
 SCF Done:  E(RB3LYP) =  -712.314775759     A.U. after   12 cycles
 SCF Done:  E(RB3LYP) =  -712.316090939     A.U. after   12 cycles
 SCF Done:  E(RB3LYP) =  -712.317245451     A.U. after   14 cycles
 SCF Done:  E(RB3LYP) =  -712.317793413     A.U. after   12 cycles
 SCF Done:  E(RB3LYP) =  -712.317588876     A.U. after   14 cycles
 SCF Done:  E(RB3LYP) =  -712.318129420     A.U. after   13 cycles
 SCF Done:  E(RB3LYP) =  -712.318017007     A.U. after   13 cycles
 SCF Done:  E(RB3LYP) =  -712.318370938     A.U. after   10 cycles
 SCF Done:  E(RB3LYP) =  -712.318376461     A.U. after   10 cycles
 SCF Done:  E(RB3LYP) =  -712.318384422     A.U. after   10 cycles
 SCF Done:  E(RB3LYP) =  -712.318385054     A.U. after    8 cycles
 SCF Done:  E(RB3LYP) =  -712.318385140     A.U. after    7 cycles
 Optimization completed.
    -- Stationary point found.
 Normal termination of Gaussian 16 at Sat Feb 27 18:40:16 2021.

 --------------------------------------------------------------------
 #N Geom=AllCheck Guess=TCheck SCRF=Check GenChk RB3LYP/6-31G(d) Freq
 --------------------------------------------------------------------

 Structure from the checkpoint file:  "JID_5194.chk"
 ------------------------------
 CID_61952732_JID_5194_neutraal
 ------------------------------
 Charge =  0 Multiplicity = 1

 SCF Done:  E(RB3LYP) =  -712.318385140     A.U. after    1 cycles

  Exact polarizability: 142.190  -4.532 127.080   2.799   0.847 115.093
 Approx polarizability: 171.493  -4.247 177.824   0.689   4.706 183.603

                      1                      2                      3
                      A                      A                      A
 Frequencies --     20.6426                32.1021                44.4859
 Red. masses --      4.0486                 4.6437                 8.7747
 Frc consts  --      0.0010                 0.0028                 0.0102
 IR Inten    --      0.3563                 0.5452                 3.4819

                      4                      5                      6
                      A                      A                      A
 Frequencies --     69.6021               107.1335               123.1557
 Red. masses --      3.1580                 4.8503                 3.0588
 Frc consts  --      0.0090                 0.0328                 0.0273
 IR Inten    --      0.0446                 0.1264                 0.6990

                      7                      8                      9
                      A                      A                      A
 Frequencies --    175.4880               213.8538               228.4652
 Red. masses --      2.4018                 1.9477                 1.2668
 Frc consts  --      0.0436                 0.0525                 0.0390
 IR Inten    --      0.0734                 0.2755                 0.4126

                     10                     11                     12
                      A                      A                      A
 Frequencies --    245.7154               256.7497               269.4596
 Red. masses --      2.8842                 1.2816                 3.1151
 Frc consts  --      0.1026                 0.0498                 0.1333
 IR Inten    --      1.7643                 0.5751                 2.1346

                     13                     14                     15
                      A                      A                      A
 Frequencies --    302.9304               327.8235               330.7098
 Red. masses --      2.4636                 1.5824                 1.2364
 Frc consts  --      0.1332                 0.1002                 0.0797
 IR Inten    --      8.4111                10.4114                27.3565

                     16                     17                     18
                      A                      A                      A
 Frequencies --    348.2296               365.6996               369.3843
 Red. masses --      2.2777                 2.7510                 3.0540
 Frc consts  --      0.1627                 0.2168                 0.2455
 IR Inten    --     12.8689                 1.0983                10.8489

                     19                     20                     21
                      A                      A                      A
 Frequencies --    399.4810               424.5559               454.9787
 Red. masses --      3.0045                 2.9676                 3.8142
 Frc consts  --      0.2825                 0.3152                 0.4652
 IR Inten    --      1.5762                 1.1405                 3.7543

                     22                     23                     24
                      A                      A                      A
 Frequencies --    468.2008               521.2986               534.1596
 Red. masses --      3.0066                 3.3154                 2.5955
 Frc consts  --      0.3883                 0.5308                 0.4363
 IR Inten    --      1.6940                12.2464                 5.6450

                     25                     26                     27
                      A                      A                      A
 Frequencies --    569.6414               593.7482               658.8960
 Red. masses --      2.4420                 3.1786                 1.3228
 Frc consts  --      0.4669                 0.6602                 0.3383
 IR Inten    --      3.9266                10.9425               113.1499

                     28                     29                     30
                      A                      A                      A
 Frequencies --    738.6617               787.8540               806.6192
 Red. masses --      3.5362                 2.2447                 3.5905
 Frc consts  --      1.1368                 0.8209                 1.3764
 IR Inten    --     25.6866                 8.8592                23.5564

                     31                     32                     33
                      A                      A                      A
 Frequencies --    843.9478               861.6081               882.3730
 Red. masses --      1.7497                 1.7062                 2.2840
 Frc consts  --      0.7342                 0.7463                 1.0477
 IR Inten    --      0.8972                 1.9108                 1.5624

                     34                     35                     36
                      A                      A                      A
 Frequencies --    915.0334               917.2217               931.3879
 Red. masses --      1.9424                 1.6873                 1.6830
 Frc consts  --      0.9582                 0.8364                 0.8602
 IR Inten    --     76.6100                50.6632                15.7409

                     37                     38                     39
                      A                      A                      A
 Frequencies --    950.0762               986.3237               997.6614
 Red. masses --      2.0355                 1.5446                 1.3501
 Frc consts  --      1.0825                 0.8853                 0.7917
 IR Inten    --     12.1033                 8.7853                 3.7905

                     40                     41                     42
                      A                      A                      A
 Frequencies --   1007.5035              1029.4549              1046.7197
 Red. masses --      1.5894                 1.7247                 2.7734
 Frc consts  --      0.9506                 1.0769                 1.7903
 IR Inten    --      8.1324                25.0685                24.4682

                     43                     44                     45
                      A                      A                      A
 Frequencies --   1070.4709              1087.5509              1090.1877
 Red. masses --      1.4680                 1.5289                 1.7666
 Frc consts  --      0.9911                 1.0655                 1.2371
 IR Inten    --      1.8119                 1.5356                38.7293

                     46                     47                     48
                      A                      A                      A
 Frequencies --   1112.8731              1127.8190              1150.5137
 Red. masses --      2.4832                 2.0799                 4.4410
 Frc consts  --      1.8120                 1.5587                 3.4635
 IR Inten    --      1.3083                 1.4037               201.4509

                     49                     50                     51
                      A                      A                      A
 Frequencies --   1164.6766              1189.9055              1196.2221
 Red. masses --      3.1873                 1.7987                 2.2873
 Frc consts  --      2.5473                 1.5005                 1.9284
 IR Inten    --    204.5722                 1.4587                 7.8916

                     52                     53                     54
                      A                      A                      A
 Frequencies --   1228.3170              1237.5438              1255.6794
 Red. masses --      1.8280                 2.4841                 1.4768
 Frc consts  --      1.6250                 2.2415                 1.3719
 IR Inten    --     53.7827                35.6963                 0.4956

                     55                     56                     57
                      A                      A                      A
 Frequencies --   1286.1173              1292.4629              1293.3595
 Red. masses --      1.3048                 1.2739                 1.3608
 Frc consts  --      1.2716                 1.2537                 1.3411
 IR Inten    --      4.0173                 3.8272                 8.6853

                     58                     59                     60
                      A                      A                      A
 Frequencies --   1340.5513              1356.8690              1361.9267
 Red. masses --      1.3061                 1.3112                 1.2319
 Frc consts  --      1.3830                 1.4223                 1.3463
 IR Inten    --      1.6063                 8.3249                 4.9579

                     61                     62                     63
                      A                      A                      A
 Frequencies --   1367.3410              1386.7519              1393.4018
 Red. masses --      1.8898                 1.4257                 1.3776
 Frc consts  --      2.0817                 1.6154                 1.5759
 IR Inten    --     18.1265                 0.8493                 4.8863

                     64                     65                     66
                      A                      A                      A
 Frequencies --   1399.3012              1404.1026              1408.0941
 Red. masses --      1.4874                 1.8405                 1.6428
 Frc consts  --      1.7160                 2.1379                 1.9191
 IR Inten    --     10.3701                 7.5110                12.8476

                     67                     68                     69
                      A                      A                      A
 Frequencies --   1417.7283              1430.4544              1436.0500
 Red. masses --      1.5228                 1.3104                 1.3235
 Frc consts  --      1.8033                 1.5798                 1.6081
 IR Inten    --      3.0491                 8.1000                10.9532

                     70                     71                     72
                      A                      A                      A
 Frequencies --   1455.2692              1512.8817              1516.3161
 Red. masses --      1.3745                 1.0921                 1.0958
 Frc consts  --      1.7151                 1.4727                 1.4845
 IR Inten    --      4.4145                 0.8547                 2.4890

                     73                     74                     75
                      A                      A                      A
 Frequencies --   1518.7983              1521.5191              1525.1886
 Red. masses --      1.0794                 1.0597                 1.0555
 Frc consts  --      1.4670                 1.4454                 1.4466
 IR Inten    --      5.4269                 6.4664                 4.5905

                     76                     77                     78
                      A                      A                      A
 Frequencies --   1527.6832              1533.1016              1536.8712
 Red. masses --      1.0551                 1.0952                 1.0595
 Frc consts  --      1.4508                 1.5166                 1.4744
 IR Inten    --     10.5539                 2.0041                 6.2176

                     79                     80                     81
                      A                      A                      A
 Frequencies --   1540.4034              1699.5717              1820.0041
 Red. masses --      1.0774                 1.0924                 9.8161
 Frc consts  --      1.5062                 1.8592                19.1572
 IR Inten    --      6.0834                36.7127               204.8618

                     82                     83                     84
                      A                      A                      A
 Frequencies --   2973.0699              3011.5256              3020.9161
 Red. masses --      1.0817                 1.0754                 1.0729
 Frc consts  --      5.6333                 5.7462                 5.7690
 IR Inten    --     16.6474                 2.9300                20.6182

                     85                     86                     87
                      A                      A                      A
 Frequencies --   3024.0582              3024.8136              3029.7902
 Red. masses --      1.0685                 1.0581                 1.0618
 Frc consts  --      5.7568                 5.7039                 5.7426
 IR Inten    --     18.7435                37.0013                37.7524

                     88                     89                     90
                      A                      A                      A
 Frequencies --   3042.7798              3044.9762              3066.7610
 Red. masses --      1.0414                 1.0638                 1.0384
 Frc consts  --      5.6808                 5.8113                 5.7539
 IR Inten    --     35.4820                37.8523                16.9318

                     91                     92                     93
                      A                      A                      A
 Frequencies --   3069.7370              3070.5000              3075.7828
 Red. masses --      1.0968                 1.1057                 1.0962
 Frc consts  --      6.0897                 6.1419                 6.1102
 IR Inten    --     41.2975                38.2056                59.1374

                     94                     95                     96
                      A                      A                      A
 Frequencies --   3080.7977              3094.6099              3103.1026
 Red. masses --      1.0992                 1.1004                 1.0996
 Frc consts  --      6.1470                 6.2091                 6.2384
 IR Inten    --     60.5362                33.9727                51.9719

                     97                     98                     99
                      A                      A                      A
 Frequencies --   3131.9595              3140.9207              3169.5160
 Red. masses --      1.1027                 1.0995                 1.1007
 Frc consts  --      6.3728                 6.3910                 6.5149
 IR Inten    --     24.8446                22.8913                 9.7118

                    100                    101                    102
                      A                      A                      A
 Frequencies --   3461.0336              3547.5949              3667.9753
 Red. masses --      1.0494                 1.0925                 1.0638
 Frc consts  --      7.4061                 8.1007                 8.4326
 IR Inten    --      1.0567                 1.1489                34.7397

 - Thermochemistry -
 -------------------
 Temperature   298.150 Kelvin.  Pressure   1.00000 Atm.
 Atom     1 has atomic number  8 and mass  15.99491

 Molecular mass:   215.15214 amu.
 Principal axes and moments of inertia in atomic units:
                           1         2         3
     Eigenvalues --  1761.931575307.778646043.90854
           X            0.99992  -0.01202   0.00294
           Y            0.01197   0.99980   0.01579
           Z           -0.00312  -0.01575   0.99987
 This molecule is an asymmetric top.
 Rotational symmetry number  1.
 Warning -- assumption of classical behavior for rotation
           may cause significant error
 Rotational temperatures (Kelvin)      0.04916     0.01632     0.01433
 Rotational constants (GHZ):           1.02430     0.34002     0.29860
 Zero-point vibrational energy     844594.3 (Joules/Mol)
                                  201.86288 (Kcal/Mol)
 Warning -- explicit consideration of  26 degrees of freedom as
           vibrations may cause significant error
 Vibrational temperatures:     29.70    46.19    64.01   100.14   154.14
          (Kelvin)            177.19   252.49   307.69   328.71   353.53
                              369.41   387.69   435.85   471.66   475.82
                              501.02   526.16   531.46   574.76   610.84
                              654.61   673.64   750.03   768.54   819.59
                              854.27   948.00  1062.77  1133.55  1160.55
                             1214.25  1239.66  1269.54  1316.53  1319.68
                             1340.06  1366.95  1419.10  1435.41  1449.57
                             1481.16  1506.00  1540.17  1564.74  1568.54
                             1601.18  1622.68  1655.33  1675.71  1712.01
                             1721.10  1767.27  1780.55  1806.64  1850.44
                             1859.57  1860.86  1928.75  1952.23  1959.51
                             1967.30  1995.23  2004.79  2013.28  2020.19
                             2025.93  2039.79  2058.10  2066.16  2093.81
                             2176.70  2181.64  2185.21  2189.13  2194.41
                             2198.00  2205.79  2211.21  2216.30  2445.30
                             2618.58  4277.58  4332.91  4346.42  4350.95
                             4352.03  4359.19  4377.88  4381.04  4412.39
                             4416.67  4417.76  4425.37  4432.58  4452.45
                             4464.67  4506.19  4519.08  4560.23  4979.66
                             5104.20  5277.40

 Zero-point correction=                           0.321689 (Hartree/Particle)
 Thermal correction to Energy=                    0.337883
 Thermal correction to Enthalpy=                  0.338827
 Thermal correction to Gibbs Free Energy=         0.277118
 Sum of electronic and zero-point Energies=           -711.996696
 Sum of electronic and thermal Energies=              -711.980502
 Sum of electronic and thermal Enthalpies=            -711.979558
 Sum of electronic and thermal Free Energies=         -712.041267

                     E (Thermal)             CV                S
                      KCal/Mol        Cal/Mol-Kelvin    Cal/Mol-Kelvin
 Total                  212.025             61.809            129.877
 Electronic               0.000              0.000              0.000
 Translational            0.889              2.981             42.002
 Rotational               0.889              2.981             32.402
 Vibrational            210.247             55.847             55.473
 Vibration     1          0.593              1.986              6.571
 Vibration     2          0.594              1.983              5.695
 Vibration     3          0.595              1.980              5.049
 Vibration     4          0.598              1.969              4.165
 Vibration     5          0.606              1.944              3.320
 Vibration     6          0.610              1.930              3.050
 Vibration     7          0.627              1.873              2.376
 Vibration     8          0.644              1.820              2.011
 Vibration     9          0.651              1.798              1.891
 Vibration    10          0.660              1.770              1.761
 Vibration    11          0.666              1.751              1.684
 Vibration    12          0.674              1.729              1.600
 Vibration    13          0.694              1.668              1.401
 Vibration    14          0.711              1.620              1.271
 Vibration    15          0.713              1.614              1.257
 Vibration    16          0.726              1.579              1.174
 Vibration    17          0.739              1.543              1.098
 Vibration    18          0.742              1.535              1.082
 Vibration    19          0.766              1.471              0.965
 Vibration    20          0.787              1.417              0.877
 Vibration    21          0.813              1.350              0.781
 Vibration    22          0.825              1.321              0.743
 Vibration    23          0.876              1.203              0.607
 Vibration    24          0.889              1.174              0.578
 Vibration    25          0.926              1.097              0.505
 Vibration    26          0.951              1.045              0.461

 Optimization completed.
    -- Stationary point found.
 Normal termination of Gaussian 16 at Sat Feb 27 18:51:18 2021.

 ----------------------------------------------------------------------
 # B3LYP/6-311++G(d,p) empiricaldispersion=gd3bj scf=xqc pop=npa geom=c
 heck
 ----------------------------------------------------------------------

 --------------------------------------
 CID_61952732_JID_5194_Energie_neutraal
 --------------------------------------
 Structure from the checkpoint file:  "JID_5194.chk"
 Charge =  0 Multiplicity = 1

 SCF Done:  E(RB3LYP) =  -712.537557178     A.U. after   14 cycles
 Normal termination of Gaussian 16 at Sat Feb 27 18:55:52 2021.

 ----------------------------------------------------------------------
 # B3LYP/6-311++G(d,p) empiricaldispersion=gd3bj scf=xqc pop=npa geom=c
 heck
 ----------------------------------------------------------------------

 ------------------------------------
 CID_61952732_JID_5194_Energie_kation
 ------------------------------------
 Structure from the checkpoint file:  "JID_5194.chk"
 Charge =  1 Multiplicity = 2

 SCF Done:  E(UB3LYP) =  -712.213508240     A.U. after   23 cycles
 Normal termination of Gaussian 16 at Sat Feb 27 19:05:45 2021.
 Gaussian 16:  ES64L-G16RevA.03 25-Dec-2016

 ----------------------------------------------------------------------
 # B3LYP/6-311++G(d,p) empiricaldispersion=gd3bj scf=xqc pop=npa geom=c
 heck
 ----------------------------------------------------------------------

 -----------------------------------
 CID_61952732_JID_5194_Energie_anion
 -----------------------------------
 Structure from the checkpoint file:  "JID_5194.chk"
 Charge = -1 Multiplicity = 2

                         Standard orientation:
 ---------------------------------------------------------------------
 Center     Atomic      Atomic             Coordinates (Angstroms)
 Number     Number       Type             X           Y           Z
 ---------------------------------------------------------------------
      1          8           0       -0.110610    0.616236   -0.009664
      2          8           0       -2.487723   -0.685808    1.853628
      3          8           0       -2.209777   -2.003246    0.055431
      4          7           0       -3.452413    0.174172   -1.411699
      5          6           0        2.219857    0.970121    0.431092
      6          6           0        1.197257    0.191730   -0.404601
      7          6           0        3.642019    0.480200    0.105892
      8          6           0        1.341402   -1.322073   -0.220288
      9          6           0        3.798763   -1.035404    0.278226
     10          6           0        2.760461   -1.794867   -0.556917
     11          6           0        2.080788    2.480244    0.226668
     12          6           0       -1.096994    0.522082   -1.018900
     13          6           0       -2.467490    0.372957   -0.340405
     14          6           0       -2.816257    1.626308    0.459285
     15          6           0       -2.365589   -0.893874    0.526343
     16          1           0        2.006684    0.738359    1.485733
     17          1           0        1.353265    0.450378   -1.466138
     18          1           0        4.362659    1.014708    0.737609
     19          1           0        3.880782    0.753191   -0.933366
     20          1           0        0.595886   -1.848730   -0.826645
     21          1           0        1.108772   -1.552224    0.828110
     22          1           0        3.667556   -1.295136    1.338497
     23          1           0        4.814320   -1.344678    0.001880
     24          1           0        2.959485   -1.624459   -1.625156
     25          1           0        2.847324   -2.875484   -0.392084
     26          1           0        2.291944    2.751841   -0.816022
     27          1           0        2.785972    3.028170    0.862101
     28          1           0        1.067145    2.812806    0.464814
     29          1           0       -1.107569    1.419544   -1.653543
     30          1           0       -0.927322   -0.353878   -1.658455
     31          1           0       -2.910599    2.470773   -0.230184
     32          1           0       -2.034688    1.843136    1.189297
     33          1           0       -3.763206    1.503727    0.995421
     34          1           0       -4.392744    0.220297   -1.021026
     35          1           0       -3.340604   -0.769213   -1.783225
     36          1           0       -2.398593   -1.564324    2.270737
 ---------------------------------------------------------------------

 SCF Done:  E(UB3LYP) =  -712.523198697     A.U. after   33 cycles
 SCF Done:  E(UB3LYP) =  -712.523198697     a.u. after    1 cycles

 The electronic state is 2-A.
 Alpha  occ. eigenvalues --  -19.07097 -19.02937 -19.01573 -14.20679 -10.20488
 Alpha  occ. eigenvalues --  -10.12796 -10.12552 -10.12512 -10.07869 -10.07273
 Alpha  occ. eigenvalues --  -10.07210 -10.07015 -10.06563 -10.06528 -10.06507
 Alpha  occ. eigenvalues --   -1.01221  -0.94589  -0.92153  -0.80942  -0.74339
 Alpha  occ. eigenvalues --   -0.67877  -0.67054  -0.64088  -0.59774  -0.57881
 Alpha  occ. eigenvalues --   -0.55923  -0.51471  -0.49607  -0.47765  -0.46545
 Alpha  occ. eigenvalues --   -0.42048  -0.41364  -0.39538  -0.39078  -0.37159
 Alpha  occ. eigenvalues --   -0.36694  -0.36067  -0.35436  -0.34602  -0.32961
 Alpha  occ. eigenvalues --   -0.32098  -0.31036  -0.30802  -0.29932  -0.29167
 Alpha  occ. eigenvalues --   -0.28438  -0.27763  -0.27607  -0.26464  -0.25286
 Alpha  occ. eigenvalues --   -0.24159  -0.23501  -0.22920  -0.22621  -0.21818
 Alpha  occ. eigenvalues --   -0.21068  -0.19124  -0.16404  -0.16140   0.04364
 Alpha virt. eigenvalues --    0.05848   0.06831   0.07146   0.07827   0.08567
 Alpha virt. eigenvalues --    0.08767   0.09155   0.09840   0.09981   0.10460
 Alpha virt. eigenvalues --    0.11009   0.11543   0.11657   0.12630   0.13242

  Beta  occ. eigenvalues --  -19.07043 -19.02927 -19.01547 -14.20644 -10.20480
  Beta  occ. eigenvalues --  -10.12789 -10.12552 -10.12507 -10.07865 -10.07259
  Beta  occ. eigenvalues --  -10.07198 -10.06994 -10.06553 -10.06518 -10.06484
  Beta  occ. eigenvalues --   -1.01147  -0.94568  -0.92087  -0.80893  -0.74319
  Beta  occ. eigenvalues --   -0.67843  -0.67021  -0.64054  -0.59745  -0.57849
  Beta  occ. eigenvalues --   -0.55844  -0.51431  -0.49570  -0.47702  -0.46498
  Beta  occ. eigenvalues --   -0.42002  -0.41334  -0.39504  -0.39028  -0.37124
  Beta  occ. eigenvalues --   -0.36650  -0.36027  -0.35415  -0.34569  -0.32919
  Beta  occ. eigenvalues --   -0.32058  -0.31002  -0.30779  -0.29902  -0.29140
  Beta  occ. eigenvalues --   -0.28405  -0.27735  -0.27578  -0.26443  -0.25253
  Beta  occ. eigenvalues --   -0.24132  -0.23472  -0.22882  -0.22553  -0.21782
  Beta  occ. eigenvalues --   -0.21043  -0.19087  -0.16391  -0.16093
  Beta virt. eigenvalues --    0.06345   0.07046   0.07326   0.07461   0.08643
  Beta virt. eigenvalues --    0.09026   0.09061   0.09312   0.09993   0.10179
  Beta virt. eigenvalues --    0.10910   0.11287   0.11724   0.11804   0.12699

 Mulliken charges and spin densities:
               1          2
     1  O    0.134400   0.019481
     2  O   -0.107778   0.054716
     3  O   -0.246984   0.034181
     4  N   -0.169259  -0.049289
     5  C    0.051091   0.451847
     6  C   -0.386947  -0.291230
     7  C    0.088515  -0.421195
     8  C    0.436768  -0.460408
     9  C    0.207368  -0.630788
    10  C   -0.727001   0.175556
    11  C   -0.046072  -0.543976
    12  C    0.260508  -0.757796
    13  C   -0.529646   0.575778
    14  C    0.703327  -1.116275
    15  C   -0.015363  -0.408018
    16  H   -0.070306   0.262156
    17  H    0.111110   0.051884
    18  H   -0.123145   0.289045
    19  H    0.027193   0.102407
    20  H    0.204350  -0.039094
    21  H    0.073867   0.122437
    22  H    0.049083   0.076275
    23  H   -0.518673   0.698804
    24  H    0.089564   0.023181
    25  H   -0.244961   0.427987
    26  H    0.037287   0.081907
    27  H   -0.025333   0.173717
    28  H    0.146085  -0.007241
    29  H    0.213687  -0.025016
    30  H    0.036498   0.157066
    31  H    0.025763   0.122594
    32  H    0.147401   0.046648
    33  H   -0.256836   0.450073
    34  H   -0.222793   0.471523
    35  H    0.109869   0.134467
    36  H   -0.462636   0.746596
 Sum of Mulliken charges =  -1.00000   1.00000

 Dipole moment (field-independent basis, Debye):
    X=              1.6979    Y=              2.9054    Z=             -3.2112  Tot=              4.6515
 Quadrupole moment (field-independent basis, Debye-Ang):
   XX=           -187.9442   YY=           -133.6086   ZZ=           -128.8752
   XY=              2.2446   XZ=              0.8431   YZ=              3.2502

 Summary of Natural Population Analysis:

                                       Natural Population
                Natural  -----------------------------------------------
    Atom  No    Charge         Core      Valence    Rydberg      Total
 -----------------------------------------------------------------------
      O    1   -0.31000      0.99987     3.30073    0.00941     4.31000
      O    2   -0.33711      0.99987     3.32958    0.00766     4.33711
      O    3   -0.31657      0.99987     3.31012    0.00658     4.31657
      N    4   -0.41845      0.99976     2.90824    0.01044     3.91845
      C    5   -0.11985      0.99957     2.10967    0.01061     3.11985
      C    6    0.07744      0.99949     1.91135    0.01171     2.92256
      C    7   -0.18765      0.99961     2.17844    0.00959     3.18765
      C    8   -0.20356      0.99960     2.19448    0.00949     3.20356
      C    9   -0.18902      0.99963     2.18109    0.00831     3.18902
      C   10   -0.18925      0.99963     2.18130    0.00833     3.18925
      C   11   -0.28314      0.99965     2.27839    0.00510     3.28314
      C   12   -0.00183      0.99952     1.99093    0.01138     3.00183
      C   13    0.00405      0.99954     1.98073    0.01568     2.99595
      C   14   -0.29012      0.99963     2.28247    0.00802     3.29012
      C   15    0.41023      0.99964     1.56183    0.02829     2.58977
      H   16    0.09824      0.00000     0.39985    0.00191     0.40176
      H   17    0.07626      0.00000     0.42205    0.00169     0.42374
      H   18    0.10090      0.00000     0.39804    0.00107     0.39910
      H   19    0.09148      0.00000     0.40734    0.00118     0.40852
      H   20    0.10520      0.00000     0.39370    0.00110     0.39480
      H   21    0.10077      0.00000     0.39749    0.00175     0.39923
      H   22    0.09463      0.00000     0.40395    0.00142     0.40537
      H   23    0.09928      0.00000     0.39936    0.00136     0.40072
      H   24    0.09093      0.00000     0.40795    0.00112     0.40907
      H   25    0.10115      0.00000     0.39796    0.00090     0.39885
      H   26    0.09303      0.00000     0.40611    0.00086     0.40697
      H   27    0.09761      0.00000     0.40155    0.00084     0.40239
      H   28    0.10669      0.00000     0.39225    0.00106     0.39331
      H   29    0.08520      0.00000     0.41359    0.00121     0.41480
      H   30    0.08897      0.00000     0.40968    0.00135     0.41103
      H   31    0.10073      0.00000     0.39828    0.00099     0.39927
      H   32    0.11344      0.00000     0.38514    0.00142     0.38656
      H   33    0.10504      0.00000     0.39369    0.00127     0.39496
      H   34    0.17972      0.00000     0.31761    0.00266     0.32028
      H   35    0.18221      0.00000     0.31579    0.00200     0.31779
      H   36    0.24335      0.00000     0.24221    0.01444     0.25665
 =======================================================================
   * Total *   -0.00000     14.99487    43.80294    0.20219    59.00000

 Normal termination of Gaussian 16 at Sat Feb 27 19:20:02 2021.
