 Gaussian 16, Revision A.03,

 -----------------------------------------------------------
 # opt freq B3LYP/6-31G(d) empiricaldispersion=gd3bj scf=xqc
 -----------------------------------------------------------

 ------------------------------
 CID_65991367_JID_1038_neutraal
 ------------------------------
 Symbolic Z-matrix:
 Charge =  0 Multiplicity = 1

 SCF Done:  E(RB3LYP) =  -895.143453703     A.U. after   14 cycles
 SCF Done:  E(RB3LYP) =  -895.150602534     A.U. after   12 cycles
 SCF Done:  E(RB3LYP) =  -895.151639213     A.U. after   12 cycles
 SCF Done:  E(RB3LYP) =  -895.152018215     A.U. after   12 cycles
 SCF Done:  E(RB3LYP) =  -895.152159745     A.U. after   11 cycles
 SCF Done:  E(RB3LYP) =  -895.152246714     A.U. after   11 cycles
 SCF Done:  E(RB3LYP) =  -895.152319315     A.U. after   11 cycles
 SCF Done:  E(RB3LYP) =  -895.152367976     A.U. after   10 cycles
 SCF Done:  E(RB3LYP) =  -895.152380690     A.U. after   11 cycles
 SCF Done:  E(RB3LYP) =  -895.152398603     A.U. after   11 cycles
 SCF Done:  E(RB3LYP) =  -895.152448769     A.U. after    8 cycles
 SCF Done:  E(RB3LYP) =  -895.152452934     A.U. after   10 cycles
 SCF Done:  E(RB3LYP) =  -895.152453408     A.U. after    9 cycles
 SCF Done:  E(RB3LYP) =  -895.152453561     A.U. after    9 cycles
 SCF Done:  E(RB3LYP) =  -895.152453547     A.U. after    8 cycles
 Optimization completed.
    -- Stationary point found.
 Normal termination of Gaussian 16 at Tue Dec  8 19:14:01 2020.

 --------------------------------------------------------------------
 #N Geom=AllCheck Guess=TCheck SCRF=Check GenChk RB3LYP/6-31G(d) Freq
 --------------------------------------------------------------------

 Structure from the checkpoint file:  "JID_1038.chk"
 ------------------------------
 CID_65991367_JID_1038_neutraal
 ------------------------------
 Charge =  0 Multiplicity = 1

 SCF Done:  E(RB3LYP) =  -895.152453547     A.U. after    1 cycles

  Exact polarizability: 117.850   1.655  86.340   0.968  -3.517  86.674
 Approx polarizability: 138.445   0.251 134.301  -4.271  -8.016 137.633

                      1                      2                      3
                      A                      A                      A
 Frequencies --     13.6037                35.5938                87.7866
 Red. masses --      3.4352                 4.0065                 3.0372
 Frc consts  --      0.0004                 0.0030                 0.0138
 IR Inten    --      3.3017                 2.4368                 1.9643

                      4                      5                      6
                      A                      A                      A
 Frequencies --     96.2412               158.3434               202.6634
 Red. masses --      2.3191                 2.1514                 2.8853
 Frc consts  --      0.0127                 0.0318                 0.0698
 IR Inten    --      4.1461                 2.9735                 1.2890

                      7                      8                      9
                      A                      A                      A
 Frequencies --    208.8984               228.8058               239.4103
 Red. masses --      1.9713                 2.2944                 1.9337
 Frc consts  --      0.0507                 0.0708                 0.0653
 IR Inten    --     13.2791                 2.5581                 4.2127

                     10                     11                     12
                      A                      A                      A
 Frequencies --    276.2179               290.1178               364.1554
 Red. masses --      1.4898                 2.5419                 4.9543
 Frc consts  --      0.0670                 0.1261                 0.3871
 IR Inten    --     47.9186                 8.2123                 4.5624

                     13                     14                     15
                      A                      A                      A
 Frequencies --    367.0107               417.7345               445.6213
 Red. masses --      4.9943                 2.1420                 4.8761
 Frc consts  --      0.3964                 0.2202                 0.5705
 IR Inten    --      2.7939                 0.2957                27.6123

                     16                     17                     18
                      A                      A                      A
 Frequencies --    478.2044               519.5748               560.4229
 Red. masses --      4.4081                 4.5817                 6.0139
 Frc consts  --      0.5939                 0.7287                 1.1129
 IR Inten    --     12.2472                24.2130                31.4728

                     19                     20                     21
                      A                      A                      A
 Frequencies --    729.4176               763.3140               801.0537
 Red. masses --      4.4409                 2.4599                 1.3079
 Frc consts  --      1.3921                 0.8445                 0.4945
 IR Inten    --     53.2306                45.7166                45.8584

                     22                     23                     24
                      A                      A                      A
 Frequencies --    867.4359               892.9444               906.8110
 Red. masses --      1.2783                 3.4111                 1.2639
 Frc consts  --      0.5667                 1.6025                 0.6123
 IR Inten    --    115.1889                13.0063                 0.2323

                     25                     26                     27
                      A                      A                      A
 Frequencies --    945.4614               996.2189              1020.4158
 Red. masses --      1.4032                 1.7275                 2.5602
 Frc consts  --      0.7390                 1.0101                 1.5706
 IR Inten    --     57.8331                 2.4805                 8.8355

                     28                     29                     30
                      A                      A                      A
 Frequencies --   1023.4861              1064.8829              1077.7286
 Red. masses --      3.0697                 1.8650                 2.8526
 Frc consts  --      1.8946                 1.2460                 1.9522
 IR Inten    --     80.1746                38.2323                56.4182

                     31                     32                     33
                      A                      A                      A
 Frequencies --   1089.8339              1096.0149              1113.0828
 Red. masses --      2.8506                 2.8559                 2.8440
 Frc consts  --      1.9948                 2.0213                 2.0760
 IR Inten    --     15.8511                15.3866                24.5900

                     34                     35                     36
                      A                      A                      A
 Frequencies --   1124.5981              1155.0380              1177.1657
 Red. masses --      4.7974                 1.0817                 1.6761
 Frc consts  --      3.5748                 0.8503                 1.3684
 IR Inten    --    113.8631                 1.9030                14.7056

                     37                     38                     39
                      A                      A                      A
 Frequencies --   1193.8788              1231.5599              1279.0122
 Red. masses --      1.2433                 1.4074                 1.3438
 Frc consts  --      1.0441                 1.2577                 1.2952
 IR Inten    --      2.7822                 1.9066                20.8743

                     40                     41                     42
                      A                      A                      A
 Frequencies --   1292.1263              1298.2068              1310.9498
 Red. masses --      1.3651                 1.4414                 2.4886
 Frc consts  --      1.3429                 1.4312                 2.5198
 IR Inten    --      2.8165                17.6954               104.1554

                     43                     44                     45
                      A                      A                      A
 Frequencies --   1323.7835              1342.6525              1346.9482
 Red. masses --      1.4005                 1.8354                 1.2936
 Frc consts  --      1.4460                 1.9495                 1.3828
 IR Inten    --      5.8041                51.5646                 1.1424

                     46                     47                     48
                      A                      A                      A
 Frequencies --   1392.8190              1436.6805              1455.1822
 Red. masses --      1.3857                 1.2295                 1.5789
 Frc consts  --      1.5838                 1.4952                 1.9699
 IR Inten    --      3.4402                 3.8745                15.4440

                     49                     50                     51
                      A                      A                      A
 Frequencies --   1487.2733              1520.2985              1533.6905
 Red. masses --      1.0933                 1.0370                 1.0818
 Frc consts  --      1.4249                 1.4122                 1.4992
 IR Inten    --      3.9363                 5.7498                 1.4519

                     52                     53                     54
                      A                      A                      A
 Frequencies --   1538.1439              1539.6324              1557.7529
 Red. masses --      1.0538                 1.0776                 1.1052
 Frc consts  --      1.4689                 1.5050                 1.5801
 IR Inten    --      4.2907                 3.2820                 8.4466

                     55                     56                     57
                      A                      A                      A
 Frequencies --   1700.7887              2949.8464              3065.1453
 Red. masses --      1.0881                 1.0732                 1.0603
 Frc consts  --      1.8544                 5.5020                 5.8690
 IR Inten    --     31.5691                63.9228                24.1348

                     58                     59                     60
                      A                      A                      A
 Frequencies --   3066.5394              3069.9941              3077.6260
 Red. masses --      1.0842                 1.0356                 1.0582
 Frc consts  --      6.0070                 5.7505                 5.9055
 IR Inten    --     41.4368                18.2949                22.5344

                     61                     62                     63
                      A                      A                      A
 Frequencies --   3085.6823              3108.2655              3124.6271
 Red. masses --      1.0592                 1.0931                 1.1071
 Frc consts  --      5.9418                 6.2220                 6.3685
 IR Inten    --      5.2065                 7.7282                21.3238

                     64                     65                     66
                      A                      A                      A
 Frequencies --   3134.7847              3135.9697              3139.9294
 Red. masses --      1.1073                 1.1056                 1.1019
 Frc consts  --      6.4111                 6.4061                 6.4006
 IR Inten    --     39.1094                 2.0870                14.5527

                     67                     68                     69
                      A                      A                      A
 Frequencies --   3160.7662              3463.9096              3548.8530
 Red. masses --      1.1047                 1.0504                 1.0916
 Frc consts  --      6.5022                 7.4256                 8.1003
 IR Inten    --     12.0500                 1.2502                 0.4615

 - Thermochemistry -
 -------------------
 Temperature   298.150 Kelvin.  Pressure   1.00000 Atm.
 Atom     1 has atomic number  6 and mass  12.00000

 Molecular mass:   178.07760 amu.
 Principal axes and moments of inertia in atomic units:
                           1         2         3
     Eigenvalues --   877.337923542.709683688.89563
           X            0.99969   0.02100   0.01321
           Y           -0.02049   0.99910  -0.03723
           Z           -0.01398   0.03695   0.99922
 This molecule is an asymmetric top.
 Rotational symmetry number  1.
 Warning -- assumption of classical behavior for rotation
           may cause significant error
 Rotational temperatures (Kelvin)      0.09872     0.02445     0.02348
 Rotational constants (GHZ):           2.05707     0.50942     0.48924
 Zero-point vibrational energy     560741.3 (Joules/Mol)
                                  134.02039 (Kcal/Mol)
 Warning -- explicit consideration of  18 degrees of freedom as
           vibrations may cause significant error
 Vibrational temperatures:     19.57    51.21   126.31   138.47   227.82
          (Kelvin)            291.59   300.56   329.20   344.46   397.42
                              417.41   523.94   528.05   601.03   641.15
                              688.03   747.55   806.32  1049.47  1098.24
                             1152.54  1248.05  1284.75  1304.70  1360.31
                             1433.34  1468.15  1472.57  1532.13  1550.61
                             1568.03  1576.92  1601.48  1618.05  1661.84
                             1693.68  1717.73  1771.94  1840.21  1859.08
                             1867.83  1886.16  1904.63  1931.78  1937.96
                             2003.96  2067.06  2093.68  2139.85  2187.37
                             2206.64  2213.05  2215.19  2241.26  2447.06
                             4244.17  4410.06  4412.07  4417.04  4428.02
                             4439.61  4472.10  4495.64  4510.26  4511.96
                             4517.66  4547.64  4983.79  5106.01

 Zero-point correction=                           0.213575 (Hartree/Particle)
 Thermal correction to Energy=                    0.226139
 Thermal correction to Enthalpy=                  0.227083
 Thermal correction to Gibbs Free Energy=         0.172923
 Sum of electronic and zero-point Energies=           -894.938878
 Sum of electronic and thermal Energies=              -894.926314
 Sum of electronic and thermal Enthalpies=            -894.925370
 Sum of electronic and thermal Free Energies=         -894.979531

                     E (Thermal)             CV                S
                      KCal/Mol        Cal/Mol-Kelvin    Cal/Mol-Kelvin
 Total                  141.904             45.396            113.990
 Electronic               0.000              0.000              0.000
 Translational            0.889              2.981             41.438
 Rotational               0.889              2.981             30.817
 Vibrational            140.127             39.435             41.735
 Vibration     1          0.593              1.986              7.400
 Vibration     2          0.594              1.982              5.490
 Vibration     3          0.601              1.958              3.709
 Vibration     4          0.603              1.952              3.529
 Vibration     5          0.621              1.893              2.569
 Vibration     6          0.639              1.836              2.109
 Vibration     7          0.642              1.827              2.053
 Vibration     8          0.651              1.797              1.888
 Vibration     9          0.657              1.780              1.807
 Vibration    10          0.678              1.717              1.557
 Vibration    11          0.686              1.692              1.473
 Vibration    12          0.738              1.546              1.104
 Vibration    13          0.740              1.540              1.092
 Vibration    14          0.781              1.432              0.900
 Vibration    15          0.805              1.371              0.809
 Vibration    16          0.835              1.298              0.715
 Vibration    17          0.875              1.207              0.611
 Vibration    18          0.916              1.117              0.523

 Optimization completed.
    -- Stationary point found.
 Normal termination of Gaussian 16 at Tue Dec  8 19:18:49 2020.

 ----------------------------------------------------------------------
 # B3LYP/6-311++G(d,p) empiricaldispersion=gd3bj scf=xqc pop=npa geom=c
 heck
 ----------------------------------------------------------------------

 --------------------------------------
 CID_65991367_JID_1038_Energie_neutraal
 --------------------------------------
 Structure from the checkpoint file:  "JID_1038.chk"
 Charge =  0 Multiplicity = 1

 SCF Done:  E(RB3LYP) =  -895.331915673     A.U. after   15 cycles
 Normal termination of Gaussian 16 at Tue Dec  8 19:20:48 2020.

 ----------------------------------------------------------------------
 # B3LYP/6-311++G(d,p) empiricaldispersion=gd3bj scf=xqc pop=npa geom=c
 heck
 ----------------------------------------------------------------------

 ------------------------------------
 CID_65991367_JID_1038_Energie_kation
 ------------------------------------
 Structure from the checkpoint file:  "JID_1038.chk"
 Charge =  1 Multiplicity = 2

 SCF Done:  E(UB3LYP) =  -894.999342080     A.U. after   27 cycles
 Normal termination of Gaussian 16 at Tue Dec  8 19:25:29 2020.
 Gaussian 16:  ES64L-G16RevA.03 25-Dec-2016

 ----------------------------------------------------------------------
 # B3LYP/6-311++G(d,p) empiricaldispersion=gd3bj scf=xqc pop=npa geom=c
 heck
 ----------------------------------------------------------------------

 -----------------------------------
 CID_65991367_JID_1038_Energie_anion
 -----------------------------------
 Structure from the checkpoint file:  "JID_1038.chk"
 Charge = -1 Multiplicity = 2

                         Standard orientation:
 ---------------------------------------------------------------------
 Center     Atomic      Atomic             Coordinates (Angstroms)
 Number     Number       Type             X           Y           Z
 ---------------------------------------------------------------------
      1          6           0        3.096312    1.427569    0.521651
      2          6           0        2.704496   -0.014782    0.813477
      3         16           0        1.343137   -0.586941   -0.231182
      4          8           0        1.658480   -0.261686   -1.628716
      5          8           0        1.028641   -1.965502    0.172294
      6          7           0        0.079472    0.440523    0.238058
      7          6           0       -0.800402    1.038433   -0.808657
      8          6           0       -2.017967    0.781731    0.112858
      9          6           0       -1.089706   -0.102072    0.986930
     10          6           0       -3.222518    0.100804   -0.515857
     11          7           0       -4.225430   -0.197370    0.510242
     12          1           0        3.397159    1.540740   -0.522959
     13          1           0        3.935275    1.719074    1.161729
     14          1           0        2.257427    2.100445    0.719840
     15          1           0        3.518542   -0.718688    0.612782
     16          1           0        2.368428   -0.162297    1.843982
     17          1           0       -0.547108    2.076631   -1.037004
     18          1           0       -0.819782    0.459405   -1.737606
     19          1           0       -2.338569    1.680594    0.645088
     20          1           0       -1.224522   -1.178028    0.828925
     21          1           0       -1.051413    0.109942    2.058989
     22          1           0       -3.677215    0.783310   -1.244971
     23          1           0       -2.873978   -0.783018   -1.081997
     24          1           0       -5.060036   -0.585249    0.074300
     25          1           0       -3.870956   -0.926482    1.128684
 ---------------------------------------------------------------------

 SCF Done:  E(UB3LYP) =  -895.320044020     A.U. after   33 cycles
 SCF Done:  E(UB3LYP) =  -895.320044020     a.u. after    1 cycles

 The electronic state is 2-A.
 Alpha  occ. eigenvalues --  -88.95983 -19.02157 -19.02089 -14.24573 -14.19639
 Alpha  occ. eigenvalues --  -10.11662 -10.11591 -10.11210 -10.09963 -10.08905
 Alpha  occ. eigenvalues --  -10.07835  -8.02273  -5.98548  -5.98530  -5.98316
 Alpha  occ. eigenvalues --   -1.02020  -0.91183  -0.86112  -0.78784  -0.71442
 Alpha  occ. eigenvalues --   -0.67162  -0.60142  -0.59487  -0.55922  -0.49069
 Alpha  occ. eigenvalues --   -0.45982  -0.43252  -0.41907  -0.39804  -0.38826
 Alpha  occ. eigenvalues --   -0.37595  -0.36748  -0.34816  -0.33088  -0.32168
 Alpha  occ. eigenvalues --   -0.31810  -0.30665  -0.29383  -0.28502  -0.27260
 Alpha  occ. eigenvalues --   -0.25754  -0.24179  -0.23736  -0.22463  -0.21257
 Alpha  occ. eigenvalues --   -0.20444  -0.16651  -0.15037   0.04221
 Alpha virt. eigenvalues --    0.05679   0.07371   0.07868   0.08774   0.09337
 Alpha virt. eigenvalues --    0.09819   0.10701   0.11216   0.11362   0.12386
 Alpha virt. eigenvalues --    0.12922   0.13682   0.14268   0.14805   0.15670

  Beta  occ. eigenvalues --  -88.95983 -19.02151 -19.02085 -14.24568 -14.19586
  Beta  occ. eigenvalues --  -10.11652 -10.11566 -10.11183 -10.09939 -10.08897
  Beta  occ. eigenvalues --  -10.07796  -8.02272  -5.98547  -5.98530  -5.98315
  Beta  occ. eigenvalues --   -1.02009  -0.91171  -0.86096  -0.78704  -0.71406
  Beta  occ. eigenvalues --   -0.67120  -0.60097  -0.59422  -0.55840  -0.49012
  Beta  occ. eigenvalues --   -0.45933  -0.43221  -0.41868  -0.39767  -0.38781
  Beta  occ. eigenvalues --   -0.37555  -0.36727  -0.34746  -0.33059  -0.32111
  Beta  occ. eigenvalues --   -0.31780  -0.30621  -0.29334  -0.28467  -0.27224
  Beta  occ. eigenvalues --   -0.25721  -0.24156  -0.23708  -0.22447  -0.21248
  Beta  occ. eigenvalues --   -0.20420  -0.16636  -0.14983
  Beta virt. eigenvalues --    0.06645   0.07050   0.07908   0.08677   0.09209
  Beta virt. eigenvalues --    0.09767   0.10243   0.11515   0.11545   0.11671
  Beta virt. eigenvalues --    0.12520   0.13129   0.13921   0.14786   0.14905

 Mulliken charges and spin densities:
               1          2
     1  C    0.794627  -1.255770
     2  C   -0.484455   0.042624
     3  S    0.671583  -0.276252
     4  O   -0.267144   0.008467
     5  O   -0.183537   0.029672
     6  N   -0.290697   0.193852
     7  C    0.520275  -1.082984
     8  C   -0.906123   1.369640
     9  C    0.327305  -1.023491
    10  C    0.960994  -1.495421
    11  N   -0.408802   0.065109
    12  H    0.094804   0.067528
    13  H   -0.674479   0.840487
    14  H   -0.205955   0.385879
    15  H   -0.023167   0.239039
    16  H   -0.119933   0.350996
    17  H   -0.005474   0.202107
    18  H    0.209358  -0.041171
    19  H   -0.084295   0.279320
    20  H    0.138671   0.080135
    21  H   -0.303418   0.510266
    22  H   -0.279589   0.440391
    23  H   -0.108739   0.239696
    24  H   -0.322441   0.568875
    25  H   -0.049367   0.261006
 Sum of Mulliken charges =  -1.00000   1.00000

 Dipole moment (field-independent basis, Debye):
    X=              2.6121    Y=             -0.2239    Z=             -2.6190  Tot=              3.7057
 Quadrupole moment (field-independent basis, Debye-Ang):
   XX=           -164.4874   YY=           -110.4868   ZZ=           -111.7124
   XY=             -7.7964   XZ=             -2.9267   YZ=             -5.7988

 Summary of Natural Population Analysis:

                                       Natural Population
                Natural  -----------------------------------------------
    Atom  No    Charge         Core      Valence    Rydberg      Total
 -----------------------------------------------------------------------
      C    1   -0.29676      0.99965     2.29034    0.00677     3.29676
      C    2   -0.28344      0.99960     2.27182    0.01203     3.28344
      S    3    1.09508      4.99926     1.80754    0.09812     6.90492
      O    4   -0.46755      0.99991     3.46217    0.00548     4.46755
      O    5   -0.46566      0.99991     3.46050    0.00525     4.46566
      N    6   -0.38424      0.99974     2.86982    0.01467     3.88424
      C    7   -0.07122      0.99962     2.06050    0.01110     3.07122
      C    8   -0.12105      0.99957     2.10977    0.01171     3.12105
      C    9   -0.07587      0.99962     2.06482    0.01143     3.07587
      C   10   -0.08673      0.99961     2.07488    0.01224     3.08673
      N   11   -0.42056      0.99977     2.91039    0.01040     3.92056
      H   12    0.10572      0.00000     0.39313    0.00115     0.39428
      H   13    0.10751      0.00000     0.39019    0.00230     0.39249
      H   14    0.10815      0.00000     0.39011    0.00174     0.39185
      H   15    0.11241      0.00000     0.38656    0.00103     0.38759
      H   16    0.11631      0.00000     0.38188    0.00181     0.38369
      H   17    0.09675      0.00000     0.40230    0.00096     0.40325
      H   18    0.09946      0.00000     0.39923    0.00131     0.40054
      H   19    0.10589      0.00000     0.39266    0.00145     0.39411
      H   20    0.10202      0.00000     0.39653    0.00144     0.39798
      H   21    0.09914      0.00000     0.39924    0.00162     0.40086
      H   22    0.09322      0.00000     0.40543    0.00135     0.40678
      H   23    0.07882      0.00000     0.41912    0.00206     0.42118
      H   24    0.17933      0.00000     0.31635    0.00432     0.32067
      H   25    0.17328      0.00000     0.32398    0.00274     0.32672
 =======================================================================
   * Total *   -0.00000     14.99626    32.77925    0.22450    48.00000

 Normal termination of Gaussian 16 at Tue Dec  8 19:31:19 2020.
