 Gaussian 16, Revision A.03,

 -----------------------------------------------------------
 # opt freq B3LYP/6-31G(d) empiricaldispersion=gd3bj scf=xqc
 -----------------------------------------------------------

 -------------------------------
 CID_130697793_JID_2897_neutraal
 -------------------------------
 Symbolic Z-matrix:
 Charge =  0 Multiplicity = 1

 SCF Done:  E(RB3LYP) =  -573.287256937     A.U. after   14 cycles
 SCF Done:  E(RB3LYP) =  -573.291592218     A.U. after   12 cycles
 SCF Done:  E(RB3LYP) =  -573.292122313     A.U. after   11 cycles
 SCF Done:  E(RB3LYP) =  -573.292319000     A.U. after   11 cycles
 SCF Done:  E(RB3LYP) =  -573.292433258     A.U. after   10 cycles
 SCF Done:  E(RB3LYP) =  -573.292484277     A.U. after   10 cycles
 SCF Done:  E(RB3LYP) =  -573.292501700     A.U. after    9 cycles
 SCF Done:  E(RB3LYP) =  -573.292510236     A.U. after    8 cycles
 SCF Done:  E(RB3LYP) =  -573.292514783     A.U. after    9 cycles
 SCF Done:  E(RB3LYP) =  -573.292519537     A.U. after    9 cycles
 SCF Done:  E(RB3LYP) =  -573.292524364     A.U. after   10 cycles
 SCF Done:  E(RB3LYP) =  -573.292528821     A.U. after   10 cycles
 SCF Done:  E(RB3LYP) =  -573.292530096     A.U. after   10 cycles
 Optimization completed.
    -- Stationary point found.
 Normal termination of Gaussian 16 at Wed Dec  9 18:01:11 2020.

 --------------------------------------------------------------------
 #N Geom=AllCheck Guess=TCheck SCRF=Check GenChk RB3LYP/6-31G(d) Freq
 --------------------------------------------------------------------

 Structure from the checkpoint file:  "JID_2897.chk"
 -------------------------------
 CID_130697793_JID_2897_neutraal
 -------------------------------
 Charge =  0 Multiplicity = 1

 SCF Done:  E(RB3LYP) =  -573.292530096     A.U. after    1 cycles

  Exact polarizability: 103.424  -0.187  98.797   0.716  -0.295  83.260
 Approx polarizability: 138.811   7.071 147.213  -2.194   2.832 120.773

                      1                      2                      3
                      A                      A                      A
 Frequencies --     53.1421               111.2549               125.5032
 Red. masses --      2.6286                 3.8575                 4.8940
 Frc consts  --      0.0044                 0.0281                 0.0454
 IR Inten    --      8.0771                 1.5393                 1.9263

                      4                      5                      6
                      A                      A                      A
 Frequencies --    187.8604               201.4513               242.6182
 Red. masses --      2.3089                 2.9019                 1.6394
 Frc consts  --      0.0480                 0.0694                 0.0569
 IR Inten    --      0.9180                 0.9264                 0.9759

                      7                      8                      9
                      A                      A                      A
 Frequencies --    272.4710               303.8646               319.3305
 Red. masses --      1.1683                 1.4040                 2.5534
 Frc consts  --      0.0511                 0.0764                 0.1534
 IR Inten    --      0.4588                 0.5991                 0.3407

                     10                     11                     12
                      A                      A                      A
 Frequencies --    329.1478               370.3414               405.3865
 Red. masses --      2.4309                 2.3945                 4.1902
 Frc consts  --      0.1552                 0.1935                 0.4057
 IR Inten    --      0.9152                 0.9896                 0.8336

                     13                     14                     15
                      A                      A                      A
 Frequencies --    479.6745               503.4521               553.9287
 Red. masses --      4.3406                 2.9664                 1.7386
 Frc consts  --      0.5884                 0.4430                 0.3143
 IR Inten    --      8.3594                 3.3672                83.3121

                     16                     17                     18
                      A                      A                      A
 Frequencies --    579.4460               598.3000               626.6237
 Red. masses --      2.7726                 2.4831                 2.5635
 Frc consts  --      0.5485                 0.5237                 0.5931
 IR Inten    --      6.7948                40.9704                22.0455

                     19                     20                     21
                      A                      A                      A
 Frequencies --    680.0186               765.5474               771.9147
 Red. masses --      3.0945                 4.2185                 2.6430
 Frc consts  --      0.8431                 1.4566                 0.9279
 IR Inten    --     51.1170                17.8992                20.3125

                     22                     23                     24
                      A                      A                      A
 Frequencies --    821.3618               885.7946               904.2516
 Red. masses --      3.0425                 2.0268                 3.4008
 Frc consts  --      1.2093                 0.9370                 1.6383
 IR Inten    --     32.7400                 9.7362                10.2912

                     25                     26                     27
                      A                      A                      A
 Frequencies --    924.5831               948.2009               950.4583
 Red. masses --      2.4159                 2.3404                 1.6133
 Frc consts  --      1.2168                 1.2398                 0.8587
 IR Inten    --      7.1030                10.3213                 3.0916

                     28                     29                     30
                      A                      A                      A
 Frequencies --    981.8683               995.2637              1006.6677
 Red. masses --      2.3731                 1.9089                 2.7065
 Frc consts  --      1.3480                 1.1141                 1.6160
 IR Inten    --     23.5456                 3.7649                72.3068

                     31                     32                     33
                      A                      A                      A
 Frequencies --   1029.5354              1038.2363              1079.1923
 Red. masses --      1.3838                 1.6448                 2.9547
 Frc consts  --      0.8642                 1.0446                 2.0275
 IR Inten    --      3.9505                 2.8369                20.9390

                     34                     35                     36
                      A                      A                      A
 Frequencies --   1123.6253              1144.9279              1171.2710
 Red. masses --      1.8964                 3.3812                 2.6697
 Frc consts  --      1.4107                 2.6114                 2.1579
 IR Inten    --     35.2966                27.4932                24.4544

                     37                     38                     39
                      A                      A                      A
 Frequencies --   1214.8992              1228.4791              1243.9735
 Red. masses --      1.2183                 2.3609                 2.3802
 Frc consts  --      1.0595                 2.0993                 2.1702
 IR Inten    --      1.6830                 8.5864                18.2145

                     40                     41                     42
                      A                      A                      A
 Frequencies --   1255.7263              1273.1501              1288.2794
 Red. masses --      2.4460                 1.6325                 1.8992
 Frc consts  --      2.2725                 1.5591                 1.8571
 IR Inten    --     28.3635                57.7301                16.9204

                     43                     44                     45
                      A                      A                      A
 Frequencies --   1337.1245              1339.0700              1375.6239
 Red. masses --      2.4984                 1.5119                 1.4353
 Frc consts  --      2.6319                 1.5973                 1.6002
 IR Inten    --    104.3961                14.8189                26.1204

                     46                     47                     48
                      A                      A                      A
 Frequencies --   1413.5185              1420.7271              1430.6134
 Red. masses --      1.6674                 1.6568                 1.2621
 Frc consts  --      1.9629                 1.9703                 1.5219
 IR Inten    --     31.5809                14.4153                 7.9087

                     49                     50                     51
                      A                      A                      A
 Frequencies --   1450.0288              1461.2729              1508.0588
 Red. masses --      1.2315                 1.3033                 1.0958
 Frc consts  --      1.5256                 1.6396                 1.4683
 IR Inten    --      4.9385                13.0553                 4.1469

                     52                     53                     54
                      A                      A                      A
 Frequencies --   1514.6882              1519.2700              1532.4569
 Red. masses --      1.0549                 1.0526                 1.0784
 Frc consts  --      1.4259                 1.4315                 1.4921
 IR Inten    --      0.7206                 1.2233                 0.5130

                     55                     56                     57
                      A                      A                      A
 Frequencies --   1537.2351              1542.8976              1557.0750
 Red. masses --      1.0629                 1.0672                 1.0928
 Frc consts  --      1.4798                 1.4968                 1.5610
 IR Inten    --      2.0326                 8.1491                 2.7622

                     58                     59                     60
                      A                      A                      A
 Frequencies --   1894.1046              3019.4947              3024.5389
 Red. masses --     11.4386                 1.0682                 1.0694
 Frc consts  --     24.1787                 5.7381                 5.7639
 IR Inten    --    627.9320                96.9100                 6.5804

                     61                     62                     63
                      A                      A                      A
 Frequencies --   3054.3693              3060.0502              3076.8460
 Red. masses --      1.0363                 1.0374                 1.0810
 Frc consts  --      5.6961                 5.7234                 6.0296
 IR Inten    --     11.9207                20.8231                27.9977

                     64                     65                     66
                      A                      A                      A
 Frequencies --   3090.0795              3094.0170              3116.9793
 Red. masses --      1.0788                 1.0952                 1.1017
 Frc consts  --      6.0691                 6.1773                 6.3061
 IR Inten    --     42.3853                17.1202                 4.2885

                     67                     68                     69
                      A                      A                      A
 Frequencies --   3124.1586              3138.3629              3145.5066
 Red. masses --      1.1012                 1.1034                 1.1035
 Frc consts  --      6.3325                 6.4029                 6.4327
 IR Inten    --     41.0408                18.6470                20.4813

                     70                     71                     72
                      A                      A                      A
 Frequencies --   3153.5728              3551.1969              3611.1811
 Red. masses --      1.1014                 1.0758                 1.0771
 Frc consts  --      6.4535                 7.9937                 8.2761
 IR Inten    --     14.4547                 1.5759                21.3912

 - Thermochemistry -
 -------------------
 Temperature   298.150 Kelvin.  Pressure   1.00000 Atm.
 Atom     1 has atomic number  6 and mass  12.00000

 Molecular mass:   170.10553 amu.
 Principal axes and moments of inertia in atomic units:
                           1         2         3
     Eigenvalues --  1362.511862035.628802577.78532
           X            0.99568  -0.09243   0.00928
           Y            0.09253   0.99566  -0.01025
           Z           -0.00829   0.01106   0.99990
 This molecule is an asymmetric top.
 Rotational symmetry number  1.
 Warning -- assumption of classical behavior for rotation
           may cause significant error
 Rotational temperatures (Kelvin)      0.06357     0.04255     0.03360
 Rotational constants (GHZ):           1.32457     0.88658     0.70011
 Zero-point vibrational energy     592660.8 (Joules/Mol)
                                  141.64932 (Kcal/Mol)
 Warning -- explicit consideration of  17 degrees of freedom as
           vibrations may cause significant error
 Vibrational temperatures:     76.46   160.07   180.57   270.29   289.84
          (Kelvin)            349.07   392.02   437.19   459.45   473.57
                              532.84   583.26   690.14   724.36   796.98
                              833.69   860.82   901.57   978.40  1101.45
                             1110.61  1181.76  1274.46  1301.02  1330.27
                             1364.25  1367.50  1412.69  1431.96  1448.37
                             1481.27  1493.79  1552.72  1616.65  1647.30
                             1685.20  1747.97  1767.51  1789.80  1806.71
                             1831.78  1853.55  1923.82  1926.62  1979.22
                             2033.74  2044.11  2058.33  2086.27  2102.45
                             2169.76  2179.30  2185.89  2204.86  2211.74
                             2219.89  2240.28  2725.19  4344.38  4351.64
                             4394.56  4402.73  4426.90  4445.94  4451.60
                             4484.64  4494.97  4515.40  4525.68  4537.29
                             5109.38  5195.68

 Zero-point correction=                           0.225733 (Hartree/Particle)
 Thermal correction to Energy=                    0.236910
 Thermal correction to Enthalpy=                  0.237854
 Thermal correction to Gibbs Free Energy=         0.189248
 Sum of electronic and zero-point Energies=           -573.066798
 Sum of electronic and thermal Energies=              -573.055620
 Sum of electronic and thermal Enthalpies=            -573.054676
 Sum of electronic and thermal Free Energies=         -573.103282

                     E (Thermal)             CV                S
                      KCal/Mol        Cal/Mol-Kelvin    Cal/Mol-Kelvin
 Total                  148.663             44.156            102.301
 Electronic               0.000              0.000              0.000
 Translational            0.889              2.981             41.302
 Rotational               0.889              2.981             30.348
 Vibrational            146.886             38.194             30.652
 Vibration     1          0.596              1.976              4.697
 Vibration     2          0.607              1.940              3.247
 Vibration     3          0.610              1.928              3.014
 Vibration     4          0.633              1.857              2.249
 Vibration     5          0.638              1.838              2.120
 Vibration     6          0.659              1.775              1.784
 Vibration     7          0.675              1.724              1.580
 Vibration     8          0.695              1.666              1.396
 Vibration     9          0.705              1.637              1.314
 Vibration    10          0.712              1.617              1.264
 Vibration    11          0.742              1.533              1.078
 Vibration    12          0.770              1.458              0.943
 Vibration    13          0.836              1.295              0.711
 Vibration    14          0.859              1.242              0.650
 Vibration    15          0.909              1.131              0.536
 Vibration    16          0.936              1.076              0.486
 Vibration    17          0.956              1.035              0.453

                           ! Non-Optimized Parameters !
 Normal termination of Gaussian 16 at Wed Dec  9 18:08:45 2020.

 ----------------------------------------------------------------------
 # B3LYP/6-311++G(d,p) empiricaldispersion=gd3bj scf=xqc pop=npa geom=c
 heck
 ----------------------------------------------------------------------

 ---------------------------------------
 CID_130697793_JID_2897_Energie_neutraal
 ---------------------------------------
 Structure from the checkpoint file:  "JID_2897.chk"
 Charge =  0 Multiplicity = 1

 SCF Done:  E(RB3LYP) =  -573.463022500     A.U. after   14 cycles
 Normal termination of Gaussian 16 at Wed Dec  9 18:12:15 2020.

 ----------------------------------------------------------------------
 # B3LYP/6-311++G(d,p) empiricaldispersion=gd3bj scf=xqc pop=npa geom=c
 heck
 ----------------------------------------------------------------------

 -------------------------------------
 CID_130697793_JID_2897_Energie_kation
 -------------------------------------
 Structure from the checkpoint file:  "JID_2897.chk"
 Charge =  1 Multiplicity = 2

 SCF Done:  E(UB3LYP) =  -573.147607192     A.U. after   23 cycles
 Normal termination of Gaussian 16 at Wed Dec  9 18:19:01 2020.
 Gaussian 16:  ES64L-G16RevA.03 25-Dec-2016

 ----------------------------------------------------------------------
 # B3LYP/6-311++G(d,p) empiricaldispersion=gd3bj scf=xqc pop=npa geom=c
 heck
 ----------------------------------------------------------------------

 ------------------------------------
 CID_130697793_JID_2897_Energie_anion
 ------------------------------------
 Structure from the checkpoint file:  "JID_2897.chk"
 Charge = -1 Multiplicity = 2

                         Standard orientation:
 ---------------------------------------------------------------------
 Center     Atomic      Atomic             Coordinates (Angstroms)
 Number     Number       Type             X           Y           Z
 ---------------------------------------------------------------------
      1          6           0       -1.366659    1.511184   -1.267985
      2          6           0       -0.903153    0.953052    0.090044
      3          6           0        0.396857    0.109974   -0.044084
      4          6           0        1.253270   -0.085333    1.215043
      5          6           0        2.509824   -0.737672    0.636246
      6          7           0        2.726995    0.005374   -0.621537
      7          6           0        1.434655    0.550309   -1.079492
      8          8           0       -0.107397   -1.203144   -0.432633
      9          6           0       -1.400717   -1.334819   -0.004291
     10          8           0       -2.037155   -2.355700   -0.093561
     11          7           0       -1.797313   -0.124141    0.532620
     12          6           0       -0.821008    2.070576    1.128134
     13          1           0       -2.378527    1.921418   -1.174481
     14          1           0       -1.386347    0.724734   -2.028586
     15          1           0       -0.712055    2.316459   -1.615966
     16          1           0        0.748810   -0.689856    1.972152
     17          1           0        1.505420    0.887908    1.648136
     18          1           0        2.324904   -1.809078    0.473025
     19          1           0        3.375341   -0.636467    1.300280
     20          1           0        3.141450   -0.590946   -1.329381
     21          1           0        1.478053    1.648204   -1.114743
     22          1           0        1.151545    0.197794   -2.076348
     23          1           0       -2.796368    0.030667    0.579886
     24          1           0       -0.032847    2.785309    0.867561
     25          1           0       -1.767639    2.621461    1.164027
     26          1           0       -0.621522    1.670876    2.124723
 ---------------------------------------------------------------------

 SCF Done:  E(UB3LYP) =  -573.452846888     A.U. after   31 cycles

 The electronic state is 2-A.
 Alpha  occ. eigenvalues --  -19.05917 -18.99720 -14.23499 -14.20178 -10.21574
 Alpha  occ. eigenvalues --  -10.14555 -10.13186 -10.09875 -10.09721 -10.07567
 Alpha  occ. eigenvalues --  -10.06366 -10.06304  -1.01198  -0.92516  -0.83193
 Alpha  occ. eigenvalues --   -0.82123  -0.70513  -0.65900  -0.63026  -0.59680
 Alpha  occ. eigenvalues --   -0.53613  -0.52270  -0.49828  -0.48031  -0.42901
 Alpha  occ. eigenvalues --   -0.40534  -0.38901  -0.37237  -0.36376  -0.34141
 Alpha  occ. eigenvalues --   -0.32615  -0.32376  -0.31277  -0.30250  -0.29972
 Alpha  occ. eigenvalues --   -0.28979  -0.28722  -0.27552  -0.26757  -0.25854
 Alpha  occ. eigenvalues --   -0.25487  -0.23512  -0.19579  -0.18529  -0.16555
 Alpha  occ. eigenvalues --   -0.13068   0.04342
 Alpha virt. eigenvalues --    0.06795   0.07508   0.08280   0.09228   0.09607
 Alpha virt. eigenvalues --    0.10340   0.10703   0.11457   0.12107   0.12574
 Alpha virt. eigenvalues --    0.13368   0.13819   0.14240   0.14959   0.15506

  Beta  occ. eigenvalues --  -19.05910 -18.99718 -14.23470 -14.20169 -10.21571
  Beta  occ. eigenvalues --  -10.14554 -10.13183 -10.09848 -10.09709 -10.07548
  Beta  occ. eigenvalues --  -10.06315 -10.06249  -1.01185  -0.92508  -0.83159
  Beta  occ. eigenvalues --   -0.82100  -0.70482  -0.65862  -0.62979  -0.59591
  Beta  occ. eigenvalues --   -0.53554  -0.52224  -0.49775  -0.47983  -0.42857
  Beta  occ. eigenvalues --   -0.40490  -0.38870  -0.37195  -0.36341  -0.34120
  Beta  occ. eigenvalues --   -0.32590  -0.32329  -0.31233  -0.30220  -0.29931
  Beta  occ. eigenvalues --   -0.28925  -0.28680  -0.27514  -0.26725  -0.25813
  Beta  occ. eigenvalues --   -0.25453  -0.23477  -0.19568  -0.18518  -0.16528
  Beta  occ. eigenvalues --   -0.13050
  Beta virt. eigenvalues --    0.06713   0.07829   0.08218   0.09257   0.09889
  Beta virt. eigenvalues --    0.10152   0.10871   0.11259   0.11862   0.12761
  Beta virt. eigenvalues --    0.13121   0.13481   0.14141   0.14704   0.15286

 Mulliken charges and spin densities:
               1          2
     1  C    1.288164  -1.706276
     2  C   -2.831743   3.118415
     3  C    0.421407  -1.109091
     4  C   -0.445647   0.464835
     5  C    0.809159  -1.238551
     6  N   -0.284585   0.153964
     7  C    0.870573  -1.429733
     8  O   -0.011445   0.024905
     9  C    0.518745  -0.205963
    10  O   -0.385795   0.017337
    11  N    0.057171  -0.178902
    12  C    1.408644  -2.001544
    13  H   -0.603920   0.780343
    14  H   -0.073691   0.257826
    15  H   -0.222698   0.362606
    16  H   -0.024655   0.192850
    17  H   -0.063329   0.255862
    18  H    0.142240   0.013549
    19  H   -0.182885   0.358838
    20  H    0.042860   0.178163
    21  H   -0.118131   0.341786
    22  H   -0.097877   0.291343
    23  H    0.020164   0.305352
    24  H   -0.204923   0.374677
    25  H   -0.659595   0.831616
    26  H   -0.368207   0.545794
 Sum of Mulliken charges =  -1.00000   1.00000

 Dipole moment (field-independent basis, Debye):
    X=              3.3054    Y=             -3.6411    Z=             -0.2075  Tot=              4.9220
 Quadrupole moment (field-independent basis, Debye-Ang):
   XX=           -125.9348   YY=           -127.5571   ZZ=           -106.3670
   XY=              0.4024   XZ=              0.1574   YZ=             -1.8818

 Summary of Natural Population Analysis:

                                       Natural Population
                Natural  -----------------------------------------------
    Atom  No    Charge         Core      Valence    Rydberg      Total
 -----------------------------------------------------------------------
      C    1   -0.29383      0.99962     2.28673    0.00748     3.29383
      C    2    0.05096      0.99951     1.93364    0.01589     2.94904
      C    3    0.14152      0.99945     1.84030    0.01873     2.85848
      C    4   -0.20891      0.99956     2.19938    0.00997     3.20891
      C    5   -0.08536      0.99964     2.07639    0.00934     3.08536
      N    6   -0.34492      0.99976     2.83399    0.01118     3.84492
      C    7   -0.09655      0.99954     2.08544    0.01156     3.09655
      O    8   -0.29528      0.99986     3.28714    0.00828     4.29528
      C    9    0.46363      0.99969     1.51023    0.02646     2.53637
      O   10   -0.31674      0.99986     3.31115    0.00573     4.31674
      N   11   -0.33933      0.99965     2.82880    0.01089     3.83933
      C   12   -0.28945      0.99961     2.28194    0.00790     3.28945
      H   13    0.10770      0.00000     0.39020    0.00210     0.39230
      H   14    0.10289      0.00000     0.39557    0.00154     0.39711
      H   15    0.10698      0.00000     0.39132    0.00170     0.39302
      H   16    0.11016      0.00000     0.38872    0.00111     0.38984
      H   17    0.10826      0.00000     0.39030    0.00144     0.39174
      H   18    0.08642      0.00000     0.41182    0.00176     0.41358
      H   19    0.09229      0.00000     0.40627    0.00144     0.40771
      H   20    0.17705      0.00000     0.32083    0.00212     0.32295
      H   21    0.09740      0.00000     0.40035    0.00225     0.40260
      H   22    0.10218      0.00000     0.39643    0.00139     0.39782
      H   23    0.20147      0.00000     0.29571    0.00282     0.29853
      H   24    0.10672      0.00000     0.39130    0.00198     0.39328
      H   25    0.10872      0.00000     0.38851    0.00277     0.39128
      H   26    0.10605      0.00000     0.39227    0.00168     0.39395
 =======================================================================
   * Total *    0.00000     11.99576    33.83472    0.16952    46.00000

 Normal termination of Gaussian 16 at Wed Dec  9 18:25:51 2020.
