 Gaussian 16, Revision A.03,

 -----------------------------------------------------------
 # opt freq B3LYP/6-31G(d) empiricaldispersion=gd3bj scf=xqc
 -----------------------------------------------------------

 ------------------------------
 CID_10375181_JID_4770_neutraal
 ------------------------------
 Symbolic Z-matrix:
 Charge =  0 Multiplicity = 1

 SCF Done:  E(RB3LYP) =  -579.056294875     A.U. after   15 cycles
 SCF Done:  E(RB3LYP) =  -579.063250384     A.U. after   13 cycles
 SCF Done:  E(RB3LYP) =  -579.063724873     A.U. after   12 cycles
 SCF Done:  E(RB3LYP) =  -579.063470749     A.U. after   12 cycles
 SCF Done:  E(RB3LYP) =  -579.063955004     A.U. after   12 cycles
 SCF Done:  E(RB3LYP) =  -579.063987654     A.U. after   11 cycles
 SCF Done:  E(RB3LYP) =  -579.064001423     A.U. after   10 cycles
 SCF Done:  E(RB3LYP) =  -579.064002598     A.U. after    8 cycles
 SCF Done:  E(RB3LYP) =  -579.064002890     A.U. after    8 cycles
 SCF Done:  E(RB3LYP) =  -579.064002940     A.U. after    7 cycles
 Optimization completed.
    -- Stationary point found.
 Normal termination of Gaussian 16 at Thu Dec 10 10:33:33 2020.

 --------------------------------------------------------------------
 #N Geom=AllCheck Guess=TCheck SCRF=Check GenChk RB3LYP/6-31G(d) Freq
 --------------------------------------------------------------------

 Structure from the checkpoint file:  "JID_4770.chk"
 ------------------------------
 CID_10375181_JID_4770_neutraal
 ------------------------------
 Charge =  0 Multiplicity = 1

 SCF Done:  E(RB3LYP) =  -579.064002940     A.U. after    1 cycles

  Exact polarizability: 165.645  -2.611 131.915  13.309   0.161  84.268
 Approx polarizability: 219.600  -4.620 222.105  28.789  -5.389 141.443

                      1                      2                      3
                      A                      A                      A
 Frequencies --     60.0672                80.6302               103.1696
 Red. masses --      5.4847                 4.1098                 4.2244
 Frc consts  --      0.0117                 0.0157                 0.0265
 IR Inten    --      1.7514                 2.1995                 1.2390

                      4                      5                      6
                      A                      A                      A
 Frequencies --    146.6863               194.6210               273.4775
 Red. masses --      4.1649                 2.3604                 2.7508
 Frc consts  --      0.0528                 0.0527                 0.1212
 IR Inten    --      1.5253                 1.5481                 0.2829

                      7                      8                      9
                      A                      A                      A
 Frequencies --    296.2667               309.9327               343.9198
 Red. masses --      4.5017                 4.7721                 2.2532
 Frc consts  --      0.2328                 0.2701                 0.1570
 IR Inten    --      1.0320                 0.9032                 0.2168

                     10                     11                     12
                      A                      A                      A
 Frequencies --    371.2794               423.4159               451.7720
 Red. masses --      3.4491                 2.9443                 2.2895
 Frc consts  --      0.2801                 0.3110                 0.2753
 IR Inten    --      0.5259                 4.5353                 0.8999

                     13                     14                     15
                      A                      A                      A
 Frequencies --    514.2323               544.8846               562.4304
 Red. masses --      4.0280                 2.4778                 3.7967
 Frc consts  --      0.6276                 0.4334                 0.7076
 IR Inten    --      5.9203                 1.5335                10.9269

                     16                     17                     18
                      A                      A                      A
 Frequencies --    620.6059               638.0469               674.4895
 Red. masses --      4.3361                 4.3389                 4.1217
 Frc consts  --      0.9840                 1.0407                 1.1048
 IR Inten    --      3.6849                 1.0488                 0.1716

                     19                     20                     21
                      A                      A                      A
 Frequencies --    742.4032               755.2016               797.0674
 Red. masses --      4.1481                 1.3127                 2.2289
 Frc consts  --      1.3470                 0.4411                 0.8343
 IR Inten    --      0.1966                34.2989                 3.0426

                     22                     23                     24
                      A                      A                      A
 Frequencies --    823.1696               832.7068               862.5076
 Red. masses --      2.3118                 3.6560                 2.1687
 Frc consts  --      0.9229                 1.4936                 0.9506
 IR Inten    --      0.8524                 3.6767                 0.7354

                     25                     26                     27
                      A                      A                      A
 Frequencies --    878.6544               886.8504               922.9891
 Red. masses --      2.1776                 1.3804                 2.8040
 Frc consts  --      0.9905                 0.6397                 1.4074
 IR Inten    --      3.3598                 0.4166                 3.1697

                     28                     29                     30
                      A                      A                      A
 Frequencies --    937.2104               954.8123               981.6584
 Red. masses --      1.4114                 2.5293                 1.2519
 Frc consts  --      0.7304                 1.3586                 0.7108
 IR Inten    --      0.3871                 2.6758                 0.0449

                     31                     32                     33
                      A                      A                      A
 Frequencies --    988.2913               992.5102              1033.0998
 Red. masses --      2.3533                 2.4408                 2.1187
 Frc consts  --      1.3542                 1.4166                 1.3323
 IR Inten    --      5.0306                 3.1646                 3.0955

                     34                     35                     36
                      A                      A                      A
 Frequencies --   1053.8409              1069.9909              1102.7850
 Red. masses --      1.8114                 1.8486                 2.3398
 Frc consts  --      1.1853                 1.2470                 1.6765
 IR Inten    --      2.9736                11.0369                 5.2244

                     37                     38                     39
                      A                      A                      A
 Frequencies --   1118.5661              1128.3728              1165.7314
 Red. masses --      1.6700                 2.1101                 1.8785
 Frc consts  --      1.2311                 1.5829                 1.5040
 IR Inten    --     15.9761                14.1244                17.1533

                     40                     41                     42
                      A                      A                      A
 Frequencies --   1169.3376              1187.5865              1206.7180
 Red. masses --      1.5582                 1.1669                 1.4429
 Frc consts  --      1.2553                 0.9696                 1.2379
 IR Inten    --      3.2135                 0.0102                35.6610

                     43                     44                     45
                      A                      A                      A
 Frequencies --   1219.7843              1232.5315              1245.9103
 Red. masses --      1.2692                 2.7494                 1.4158
 Frc consts  --      1.1126                 2.4609                 1.2948
 IR Inten    --      2.7284                 0.7746                 2.4179

                     46                     47                     48
                      A                      A                      A
 Frequencies --   1279.7989              1297.6820              1315.0772
 Red. masses --      1.3898                 1.2489                 1.4962
 Frc consts  --      1.3412                 1.2391                 1.5246
 IR Inten    --      2.9648                 3.0454                 1.8890

                     49                     50                     51
                      A                      A                      A
 Frequencies --   1334.0261              1358.2324              1369.7016
 Red. masses --      1.7618                 1.3477                 1.4502
 Frc consts  --      1.8473                 1.4649                 1.6030
 IR Inten    --     11.2700                13.1070                16.6299

                     52                     53                     54
                      A                      A                      A
 Frequencies --   1391.0517              1403.2813              1405.7985
 Red. masses --      1.5979                 1.6170                 1.6278
 Frc consts  --      1.8217                 1.8761                 1.8953
 IR Inten    --      2.4559                 4.9845                 4.4870

                     55                     56                     57
                      A                      A                      A
 Frequencies --   1412.7346              1505.3647              1508.3774
 Red. masses --      2.3002                 1.1167                 2.3428
 Frc consts  --      2.7048                 1.4910                 3.1406
 IR Inten    --      1.3978                 3.3666                 5.2228

                     58                     59                     60
                      A                      A                      A
 Frequencies --   1511.1371              1513.8149              1518.5189
 Red. masses --      2.4703                 1.1024                 1.0917
 Frc consts  --      3.3236                 1.4885                 1.4831
 IR Inten    --     15.3977                 1.4970                 9.7202

                     61                     62                     63
                      A                      A                      A
 Frequencies --   1525.9782              1656.6720              1667.8694
 Red. masses --      1.0912                 6.7640                 7.1030
 Frc consts  --      1.4971                10.9377                11.6416
 IR Inten    --      4.8684                 0.1025                 0.5872

                     64                     65                     66
                      A                      A                      A
 Frequencies --   1808.1548              3024.6611              3034.8783
 Red. masses --     11.2373                 1.0661                 1.0628
 Frc consts  --     21.6462                 5.7465                 5.7675
 IR Inten    --    122.0295                22.1812                13.7621

                     67                     68                     69
                      A                      A                      A
 Frequencies --   3037.7584              3043.7693              3047.6831
 Red. masses --      1.0799                 1.0639                 1.0688
 Frc consts  --      5.8713                 5.8074                 5.8489
 IR Inten    --      3.6339                17.1403                 8.6783

                     70                     71                     72
                      A                      A                      A
 Frequencies --   3052.4296              3073.2042              3076.1374
 Red. masses --      1.0810                 1.0957                 1.1009
 Frc consts  --      5.9344                 6.0972                 6.1379
 IR Inten    --     50.4024                52.7379                45.0199

                     73                     74                     75
                      A                      A                      A
 Frequencies --   3087.9629              3113.0114              3179.8807
 Red. masses --      1.1026                 1.1016                 1.0856
 Frc consts  --      6.1943                 6.2898                 6.4673
 IR Inten    --     53.7305                23.7171                 0.3056

                     76                     77                     78
                      A                      A                      A
 Frequencies --   3191.8188              3202.6892              3213.9291
 Red. masses --      1.0897                 1.0946                 1.0952
 Frc consts  --      6.5407                 6.6148                 6.6652
 IR Inten    --     14.7694                35.9803                18.8828

 - Thermochemistry -
 -------------------
 Temperature   298.150 Kelvin.  Pressure   1.00000 Atm.
 Atom     1 has atomic number  6 and mass  12.00000

 Molecular mass:   186.10447 amu.
 Principal axes and moments of inertia in atomic units:
                           1         2         3
     Eigenvalues --  1232.824843496.570594340.97295
           X            0.99991  -0.01269   0.00431
           Y            0.01261   0.99973   0.01929
           Z           -0.00455  -0.01924   0.99980
 This molecule is an asymmetric top.
 Rotational symmetry number  1.
 Warning -- assumption of classical behavior for rotation
           may cause significant error
 Rotational temperatures (Kelvin)      0.07026     0.02477     0.01995
 Rotational constants (GHZ):           1.46391     0.51615     0.41575
 Zero-point vibrational energy     628418.1 (Joules/Mol)
                                  150.19553 (Kcal/Mol)
 Warning -- explicit consideration of  16 degrees of freedom as
           vibrations may cause significant error
 Vibrational temperatures:     86.42   116.01   148.44   211.05   280.02
          (Kelvin)            393.47   426.26   445.92   494.82   534.19
                              609.20   650.00   739.87   783.97   809.21
                              892.91   918.01   970.44  1068.15  1086.57
                             1146.80  1184.36  1198.08  1240.96  1264.19
                             1275.98  1327.98  1348.44  1373.76  1412.39
                             1421.93  1428.00  1486.40  1516.24  1539.48
                             1586.66  1609.37  1623.48  1677.23  1682.42
                             1708.67  1736.20  1755.00  1773.34  1792.59
                             1841.35  1867.07  1892.10  1919.37  1954.19
                             1970.70  2001.41  2019.01  2022.63  2032.61
                             2165.88  2170.22  2174.19  2178.04  2184.81
                             2195.54  2383.58  2399.69  2601.53  4351.81
                             4366.51  4370.66  4379.31  4384.94  4391.77
                             4421.66  4425.88  4442.89  4478.93  4575.14
                             4592.32  4607.96  4624.13

 Zero-point correction=                           0.239352 (Hartree/Particle)
 Thermal correction to Energy=                    0.250506
 Thermal correction to Enthalpy=                  0.251451
 Thermal correction to Gibbs Free Energy=         0.202111
 Sum of electronic and zero-point Energies=           -578.824651
 Sum of electronic and thermal Energies=              -578.813496
 Sum of electronic and thermal Enthalpies=            -578.812552
 Sum of electronic and thermal Free Energies=         -578.861892

                     E (Thermal)             CV                S
                      KCal/Mol        Cal/Mol-Kelvin    Cal/Mol-Kelvin
 Total                  157.195             45.290            103.843
 Electronic               0.000              0.000              0.000
 Translational            0.889              2.981             41.569
 Rotational               0.889              2.981             31.304
 Vibrational            155.418             39.328             30.970
 Vibration     1          0.597              1.973              4.455
 Vibration     2          0.600              1.962              3.875
 Vibration     3          0.605              1.947              3.394
 Vibration     4          0.617              1.906              2.715
 Vibration     5          0.635              1.847              2.183
 Vibration     6          0.676              1.722              1.574
 Vibration     7          0.690              1.681              1.438
 Vibration     8          0.699              1.655              1.363
 Vibration     9          0.723              1.588              1.194
 Vibration    10          0.743              1.531              1.074
 Vibration    11          0.786              1.419              0.880
 Vibration    12          0.810              1.357              0.790
 Vibration    13          0.869              1.218              0.623
 Vibration    14          0.900              1.151              0.555
 Vibration    15          0.918              1.113              0.519
 Vibration    16          0.981              0.988              0.416

 Optimization completed.
    -- Stationary point found.
 Normal termination of Gaussian 16 at Thu Dec 10 10:42:54 2020.

 ----------------------------------------------------------------------
 # B3LYP/6-311++G(d,p) empiricaldispersion=gd3bj scf=xqc pop=npa geom=c
 heck
 ----------------------------------------------------------------------

 --------------------------------------
 CID_10375181_JID_4770_Energie_neutraal
 --------------------------------------
 Structure from the checkpoint file:  "JID_4770.chk"
 Charge =  0 Multiplicity = 1

 SCF Done:  E(RB3LYP) =  -579.214850631     A.U. after   15 cycles
 Normal termination of Gaussian 16 at Thu Dec 10 10:47:07 2020.

 ----------------------------------------------------------------------
 # B3LYP/6-311++G(d,p) empiricaldispersion=gd3bj scf=xqc pop=npa geom=c
 heck
 ----------------------------------------------------------------------

 ------------------------------------
 CID_10375181_JID_4770_Energie_kation
 ------------------------------------
 Structure from the checkpoint file:  "JID_4770.chk"
 Charge =  1 Multiplicity = 2

 SCF Done:  E(UB3LYP) =  -578.908680354     A.U. after   22 cycles
 Normal termination of Gaussian 16 at Thu Dec 10 10:55:47 2020.
 Gaussian 16:  ES64L-G16RevA.03 25-Dec-2016

 ----------------------------------------------------------------------
 # B3LYP/6-311++G(d,p) empiricaldispersion=gd3bj scf=xqc pop=npa geom=c
 heck
 ----------------------------------------------------------------------

 -----------------------------------
 CID_10375181_JID_4770_Energie_anion
 -----------------------------------
 Structure from the checkpoint file:  "JID_4770.chk"
 Charge = -1 Multiplicity = 2

                         Standard orientation:
 ---------------------------------------------------------------------
 Center     Atomic      Atomic             Coordinates (Angstroms)
 Number     Number       Type             X           Y           Z
 ---------------------------------------------------------------------
      1          6           0        2.610060   -1.534667   -0.138234
      2          6           0        3.254477   -0.178218   -0.454981
      3          6           0        2.725487    1.009274    0.376695
      4          6           0        1.271412    1.313765    0.045456
      5          8           0        0.964468    2.070298   -0.856790
      6          6           0        0.243707    0.575077    0.874081
      7          6           0        0.211015   -1.018363    0.680161
      8          6           0        1.098899   -1.611149   -0.417307
      9          6           0       -1.253613   -0.818236    0.303985
     10          6           0       -2.402111   -1.486617   -0.093786
     11          6           0       -3.513544   -0.677270   -0.378739
     12          6           0       -3.456053    0.720049   -0.272011
     13          6           0       -2.286533    1.382332    0.132811
     14          6           0       -1.201676    0.569323    0.419305
     15          1           0        2.802094   -1.798199    0.912249
     16          1           0        3.118563   -2.296815   -0.741631
     17          1           0        4.336508   -0.251670   -0.291598
     18          1           0        3.112076    0.053816   -1.518382
     19          1           0        3.313699    1.903401    0.147911
     20          1           0        2.833473    0.782666    1.445386
     21          1           0        0.392042    0.845737    1.928556
     22          1           0        0.378973   -1.555610    1.622172
     23          1           0        0.873095   -1.113946   -1.370566
     24          1           0        0.804402   -2.660908   -0.543917
     25          1           0       -2.458830   -2.567591   -0.189906
     26          1           0       -4.443247   -1.142022   -0.696248
     27          1           0       -4.341209    1.301878   -0.514659
     28          1           0       -2.246539    2.465077    0.200339
 ---------------------------------------------------------------------

 SCF Done:  E(UB3LYP) =  -579.206225822     A.U. after   33 cycles
 SCF Done:  E(UB3LYP) =  -579.206225822     a.u. after    1 cycles

 The electronic state is 2-A.
 Alpha  occ. eigenvalues --  -18.97952 -10.12165 -10.07702 -10.07621 -10.07537
 Alpha  occ. eigenvalues --  -10.07308 -10.07154 -10.07150 -10.06648 -10.06563
 Alpha  occ. eigenvalues --  -10.06004 -10.05957 -10.05620 -10.05393  -0.91457
 Alpha  occ. eigenvalues --   -0.77843  -0.71814  -0.68750  -0.65053  -0.63536
 Alpha  occ. eigenvalues --   -0.59809  -0.55428  -0.53725  -0.48441  -0.47544
 Alpha  occ. eigenvalues --   -0.45032  -0.41466  -0.39677  -0.37145  -0.36713
 Alpha  occ. eigenvalues --   -0.35023  -0.34712  -0.32648  -0.31452  -0.30219
 Alpha  occ. eigenvalues --   -0.29635  -0.29414  -0.28845  -0.27219  -0.25794
 Alpha  occ. eigenvalues --   -0.25208  -0.23717  -0.22720  -0.22035  -0.20965
 Alpha  occ. eigenvalues --   -0.20399  -0.19649  -0.15240  -0.14285  -0.12172
 Alpha  occ. eigenvalues --    0.04618
 Alpha virt. eigenvalues --    0.07007   0.07607   0.07955   0.08707   0.09190
 Alpha virt. eigenvalues --    0.09444   0.09584   0.09822   0.10689   0.11325
 Alpha virt. eigenvalues --    0.11384   0.12168   0.12554   0.13623   0.14313

  Beta  occ. eigenvalues --  -18.97769 -10.11993 -10.07660 -10.07614 -10.07533
  Beta  occ. eigenvalues --  -10.07273 -10.07166 -10.07121 -10.06645 -10.06560
  Beta  occ. eigenvalues --  -10.05992 -10.05929 -10.05592 -10.05390  -0.91104
  Beta  occ. eigenvalues --   -0.77788  -0.71747  -0.68691  -0.64976  -0.63437
  Beta  occ. eigenvalues --   -0.59704  -0.55376  -0.53580  -0.48381  -0.47462
  Beta  occ. eigenvalues --   -0.44926  -0.41399  -0.39447  -0.37063  -0.36621
  Beta  occ. eigenvalues --   -0.34928  -0.34621  -0.32576  -0.31399  -0.30079
  Beta  occ. eigenvalues --   -0.29498  -0.29324  -0.28793  -0.26809  -0.25674
  Beta  occ. eigenvalues --   -0.25139  -0.23543  -0.22631  -0.21870  -0.20886
  Beta  occ. eigenvalues --   -0.20123  -0.19558  -0.15073  -0.14188  -0.12019
  Beta virt. eigenvalues --    0.06908   0.07630   0.08101   0.08392   0.09244
  Beta virt. eigenvalues --    0.09485   0.09577   0.10140   0.10836   0.11298
  Beta virt. eigenvalues --    0.11537   0.11968   0.12521   0.12845   0.13965

 Mulliken charges and spin densities:
               1          2
     1  C    0.652899  -0.980217
     2  C    0.036954  -0.450503
     3  C    0.087238  -0.247331
     4  C   -0.233454   0.015824
     5  O   -0.302887   0.064279
     6  C    0.108491   0.027499
     7  C    0.977949  -0.648587
     8  C   -0.637683   0.234743
     9  C    0.282334  -0.434299
    10  C   -0.182581  -0.021723
    11  C    0.169122  -0.365302
    12  C    0.083627  -0.159412
    13  C   -0.462837   0.226002
    14  C    0.117355  -0.290594
    15  H   -0.204462   0.348907
    16  H   -0.220470   0.375945
    17  H   -0.597672   0.772119
    18  H    0.226559  -0.079138
    19  H   -0.007677   0.198363
    20  H   -0.250758   0.401446
    21  H   -0.268527   0.521454
    22  H   -0.605034   0.846839
    23  H    0.077017   0.076925
    24  H    0.083486   0.068208
    25  H   -0.228845   0.371797
    26  H    0.124614   0.012427
    27  H    0.117635   0.019257
    28  H    0.057608   0.095071
 Sum of Mulliken charges =  -1.00000   1.00000

 Dipole moment (field-independent basis, Debye):
    X=             -5.8688    Y=              0.7038    Z=             -3.0899  Tot=              6.6698
 Quadrupole moment (field-independent basis, Debye-Ang):
   XX=           -137.7217   YY=           -118.3608   ZZ=           -115.9706
   XY=              1.3638   XZ=             -3.7572   YZ=              7.9146

 Summary of Natural Population Analysis:

                                       Natural Population
                Natural  -----------------------------------------------
    Atom  No    Charge         Core      Valence    Rydberg      Total
 -----------------------------------------------------------------------
      C    1   -0.18949      0.99962     2.18100    0.00886     3.18949
      C    2   -0.18144      0.99962     2.17297    0.00885     3.18144
      C    3   -0.23451      0.99958     2.22549    0.00943     3.23451
      C    4    0.31240      0.99963     1.66627    0.02170     2.68760
      O    5   -0.27762      0.99987     3.27188    0.00587     4.27762
      C    6   -0.14965      0.99952     2.13878    0.01135     3.14965
      C    7   -0.09372      0.99957     2.08226    0.01189     3.09372
      C    8   -0.19234      0.99960     2.18361    0.00913     3.19234
      C    9   -0.00508      0.99944     1.99426    0.01138     3.00508
      C   10   -0.10095      0.99950     2.09212    0.00933     3.10095
      C   11   -0.10622      0.99958     2.09752    0.00912     3.10622
      C   12   -0.10755      0.99958     2.09856    0.00941     3.10755
      C   13   -0.09310      0.99950     2.08442    0.00918     3.09310
      C   14   -0.00130      0.99944     1.98970    0.01217     3.00130
      H   15    0.09835      0.00000     0.39898    0.00267     0.40165
      H   16    0.09694      0.00000     0.40209    0.00097     0.40306
      H   17    0.10130      0.00000     0.39678    0.00192     0.39870
      H   18    0.09382      0.00000     0.40495    0.00123     0.40618
      H   19    0.10763      0.00000     0.39130    0.00107     0.39237
      H   20    0.10332      0.00000     0.39422    0.00246     0.39668
      H   21    0.11942      0.00000     0.37791    0.00267     0.38058
      H   22    0.10641      0.00000     0.38968    0.00391     0.39359
      H   23    0.09821      0.00000     0.40048    0.00132     0.40179
      H   24    0.10090      0.00000     0.39801    0.00109     0.39910
      H   25    0.10095      0.00000     0.39813    0.00093     0.39905
      H   26    0.09510      0.00000     0.40414    0.00075     0.40490
      H   27    0.09517      0.00000     0.40407    0.00076     0.40483
      H   28    0.10303      0.00000     0.39612    0.00085     0.39697
 =======================================================================
   * Total *   -0.00000     13.99405    35.83569    0.17026    50.00000

 Normal termination of Gaussian 16 at Thu Dec 10 11:09:31 2020.
