 Gaussian 16, Revision A.03,

 -----------------------------------------------------------
 # opt freq B3LYP/6-31G(d) empiricaldispersion=gd3bj scf=xqc
 -----------------------------------------------------------

 -------------------------------
 CID_122361153_JID_7043_neutraal
 -------------------------------
 Symbolic Z-matrix:
 Charge =  0 Multiplicity = 1

 SCF Done:  E(RB3LYP) =  -856.611677048     A.U. after   15 cycles
 SCF Done:  E(RB3LYP) =  -856.633234047     A.U. after   12 cycles
 SCF Done:  E(RB3LYP) =  -856.637132736     A.U. after   12 cycles
 SCF Done:  E(RB3LYP) =  -856.637920777     A.U. after   12 cycles
 SCF Done:  E(RB3LYP) =  -856.638042563     A.U. after   11 cycles
 SCF Done:  E(RB3LYP) =  -856.638082333     A.U. after   11 cycles
 SCF Done:  E(RB3LYP) =  -856.638122744     A.U. after   10 cycles
 SCF Done:  E(RB3LYP) =  -856.638169681     A.U. after   11 cycles
 SCF Done:  E(RB3LYP) =  -856.638237731     A.U. after   11 cycles
 SCF Done:  E(RB3LYP) =  -856.638284718     A.U. after   12 cycles
 SCF Done:  E(RB3LYP) =  -856.639044741     A.U. after    9 cycles
 SCF Done:  E(RB3LYP) =  -856.639045876     A.U. after    9 cycles
 SCF Done:  E(RB3LYP) =  -856.639046886     A.U. after    9 cycles
 SCF Done:  E(RB3LYP) =  -856.639046938     A.U. after    7 cycles
 SCF Done:  E(RB3LYP) =  -856.639046969     A.U. after    7 cycles
 Optimization completed.
    -- Stationary point found.
 Normal termination of Gaussian 16 at Fri Dec 11 12:01:13 2020.

 --------------------------------------------------------------------
 #N Geom=AllCheck Guess=TCheck SCRF=Check GenChk RB3LYP/6-31G(d) Freq
 --------------------------------------------------------------------

 Structure from the checkpoint file:  "JID_7043.chk"
 -------------------------------
 CID_122361153_JID_7043_neutraal
 -------------------------------
 Charge =  0 Multiplicity = 1

 SCF Done:  E(RB3LYP) =  -856.639046969     A.U. after    1 cycles

  Exact polarizability: 182.975  -2.392 120.990   1.354  -0.998  89.489
 Approx polarizability: 223.635  -5.098 202.003   6.729  -2.995 142.750

                      1                      2                      3
                      A                      A                      A
 Frequencies --     15.7174                29.5587                47.0446
 Red. masses --      5.7897                 4.1838                 7.2657
 Frc consts  --      0.0008                 0.0022                 0.0095
 IR Inten    --      0.6401                 0.4431                 0.7553

                      4                      5                      6
                      A                      A                      A
 Frequencies --     48.6763                74.2547               110.6714
 Red. masses --      6.3218                 5.9210                 3.0507
 Frc consts  --      0.0088                 0.0192                 0.0220
 IR Inten    --      0.0644                 4.0237                 2.0518

                      7                      8                      9
                      A                      A                      A
 Frequencies --    123.4820               136.6504               169.7425
 Red. masses --      4.9837                 1.2859                 4.8003
 Frc consts  --      0.0448                 0.0141                 0.0815
 IR Inten    --      2.2921                 0.0419                 0.2809

                     10                     11                     12
                      A                      A                      A
 Frequencies --    201.9009               245.5745               250.7209
 Red. masses --      4.5475                 6.3321                 7.9124
 Frc consts  --      0.1092                 0.2250                 0.2930
 IR Inten    --      0.9768                 0.7381                 1.0579

                     13                     14                     15
                      A                      A                      A
 Frequencies --    316.1979               377.5656               397.2448
 Red. masses --      4.5981                 5.7223                 6.4441
 Frc consts  --      0.2709                 0.4806                 0.5991
 IR Inten    --     14.3978                12.5026                 6.9530

                     16                     17                     18
                      A                      A                      A
 Frequencies --    413.4656               454.3829               486.2237
 Red. masses --      4.8545                 4.7381                 4.1170
 Frc consts  --      0.4890                 0.5764                 0.5735
 IR Inten    --     12.8745                16.0693                 2.7280

                     19                     20                     21
                      A                      A                      A
 Frequencies --    539.9649               563.5645               578.6621
 Red. masses --      2.9462                 2.7660                 2.3700
 Frc consts  --      0.5061                 0.5176                 0.4676
 IR Inten    --      2.0906                 0.8006                 1.4413

                     22                     23                     24
                      A                      A                      A
 Frequencies --    614.8181               625.9247               690.1706
 Red. masses --      1.3085                 4.3188                 3.5414
 Frc consts  --      0.2914                 0.9969                 0.9939
 IR Inten    --     75.0867                 0.2212                48.8216

                     25                     26                     27
                      A                      A                      A
 Frequencies --    729.6675               742.1060               766.9562
 Red. masses --      6.2289                 3.8353                 3.3617
 Frc consts  --      1.9539                 1.2445                 1.1651
 IR Inten    --      6.9479                44.1632                17.8850

                     28                     29                     30
                      A                      A                      A
 Frequencies --    819.9619               821.4704               842.4842
 Red. masses --      5.6748                 2.0793                 3.2015
 Frc consts  --      2.2480                 0.8267                 1.3389
 IR Inten    --     23.8862                 4.2590                 1.2199

                     31                     32                     33
                      A                      A                      A
 Frequencies --    856.5384               917.4712               939.2109
 Red. masses --      3.1410                 5.9167                 5.3065
 Frc consts  --      1.3577                 2.9344                 2.7580
 IR Inten    --      7.6745                 5.2589                 1.2546

                     34                     35                     36
                      A                      A                      A
 Frequencies --    970.7029               987.2306              1004.5468
 Red. masses --      7.3690                 1.2508                 1.0147
 Frc consts  --      4.0910                 0.7183                 0.6033
 IR Inten    --     16.3088                 0.0033                 0.3322

                     37                     38                     39
                      A                      A                      A
 Frequencies --   1006.4230              1042.4065              1056.9678
 Red. masses --      3.2428                 5.9800                 3.4133
 Frc consts  --      1.9353                 3.8285                 2.2467
 IR Inten    --     35.3945                29.1629                 5.6798

                     40                     41                     42
                      A                      A                      A
 Frequencies --   1070.4546              1136.9947              1140.5469
 Red. masses --      3.0264                 2.5454                 1.8347
 Frc consts  --      2.0432                 1.9387                 1.4062
 IR Inten    --      6.8398                53.1215                26.0649

                     43                     44                     45
                      A                      A                      A
 Frequencies --   1141.7925              1151.0920              1167.7498
 Red. masses --      1.6414                 2.1295                 2.1160
 Frc consts  --      1.2608                 1.6624                 1.7000
 IR Inten    --     54.3359                65.9454                88.9664

                     46                     47                     48
                      A                      A                      A
 Frequencies --   1173.2242              1176.1720              1179.1381
 Red. masses --      1.4858                 1.7503                 1.6044
 Frc consts  --      1.2050                 1.4266                 1.3143
 IR Inten    --      1.3726                19.9262                 4.1923

                     49                     50                     51
                      A                      A                      A
 Frequencies --   1186.0759              1187.7272              1220.9567
 Red. masses --      1.2755                 2.5806                 1.7563
 Frc consts  --      1.0572                 2.1449                 1.5426
 IR Inten    --      1.1201               101.6982                97.8168

                     52                     53                     54
                      A                      A                      A
 Frequencies --   1235.9428              1285.8951              1310.8264
 Red. masses --      2.1016                 1.8702                 3.4585
 Frc consts  --      1.8915                 1.8220                 3.5013
 IR Inten    --    158.4567                15.3493                91.4704

                     55                     56                     57
                      A                      A                      A
 Frequencies --   1361.9159              1376.0013              1426.5844
 Red. masses --      7.5169                 4.6381                 4.2383
 Frc consts  --      8.2147                 5.1741                 5.0821
 IR Inten    --    193.4775                50.1026                77.2564

                     58                     59                     60
                      A                      A                      A
 Frequencies --   1492.7136              1512.9210              1523.8272
 Red. masses --      1.2364                 1.0479                 1.0486
 Frc consts  --      1.6232                 1.4132                 1.4347
 IR Inten    --     10.0845                 6.0331                 9.9148

                     61                     62                     63
                      A                      A                      A
 Frequencies --   1527.2239              1529.4383              1582.6916
 Red. masses --      1.0943                 1.0974                 1.2355
 Frc consts  --      1.5038                 1.5124                 1.8234
 IR Inten    --      0.2852                 0.3970                 3.9451

                     64                     65                     66
                      A                      A                      A
 Frequencies --   1616.9282              1644.1071              1801.1745
 Red. masses --      6.8961                 9.4517                11.7266
 Frc consts  --     10.6227                15.0530                22.4148
 IR Inten    --     74.9732                55.9509               244.4680

                     67                     68                     69
                      A                      A                      A
 Frequencies --   1844.8979              3075.7189              3085.3089
 Red. masses --     10.2327                 1.0299                 1.0537
 Frc consts  --     20.5205                 5.7402                 5.9097
 IR Inten    --    289.0763                35.4190                37.1022

                     70                     71                     72
                      A                      A                      A
 Frequencies --   3089.4274              3096.0066              3149.2370
 Red. masses --      1.0543                 1.0554                 1.1074
 Frc consts  --      5.9288                 5.9606                 6.4709
 IR Inten    --     31.1749                 4.9920                20.9140

                     73                     74                     75
                      A                      A                      A
 Frequencies --   3154.9386              3158.7583              3163.4922
 Red. masses --      1.1140                 1.1128                 1.1128
 Frc consts  --      6.5332                 6.5421                 6.5614
 IR Inten    --      5.2891                32.7254                29.1946

                     76                     77                     78
                      A                      A                      A
 Frequencies --   3186.3364              3326.7210              3683.3817
 Red. masses --      1.1068                 1.1004                 1.0639
 Frc consts  --      6.6207                 7.1754                 8.5046
 IR Inten    --     16.1212                 2.9281                56.1005

 - Thermochemistry -
 -------------------
 Temperature   298.150 Kelvin.  Pressure   1.00000 Atm.
 Atom     1 has atomic number  6 and mass  12.00000

 Molecular mass:   237.06372 amu.
 Principal axes and moments of inertia in atomic units:
                           1         2         3
     Eigenvalues --  1215.77464********************
           X            0.99996  -0.00837  -0.00256
           Y            0.00838   0.99996   0.00308
           Z            0.00254  -0.00310   0.99999
 This molecule is an asymmetric top.
 Rotational symmetry number  1.
 Warning -- assumption of classical behavior for rotation
           may cause significant error
 Rotational temperatures (Kelvin)      0.07124     0.00861     0.00805
 Rotational constants (GHZ):           1.48444     0.17950     0.16772
 Zero-point vibrational energy     563385.3 (Joules/Mol)
                                  134.65232 (Kcal/Mol)
 Warning -- explicit consideration of  22 degrees of freedom as
           vibrations may cause significant error
 Vibrational temperatures:     22.61    42.53    67.69    70.03   106.84
          (Kelvin)            159.23   177.66   196.61   244.22   290.49
                              353.33   360.73   454.94   543.23   571.55
                              594.88   653.76   699.57   776.89   810.84
                              832.57   884.59   900.57   993.00  1049.83
                             1067.73  1103.48  1179.74  1181.91  1212.15
                             1232.37  1320.04  1351.31  1396.62  1420.40
                             1445.32  1448.02  1499.79  1520.74  1540.15
                             1635.88  1640.99  1642.78  1656.16  1680.13
                             1688.01  1692.25  1696.52  1706.50  1708.87
                             1756.68  1778.25  1850.12  1885.99  1959.49
                             1979.76  2052.54  2147.68  2176.76  2192.45
                             2197.33  2200.52  2277.14  2326.40  2365.50
                             2591.49  2654.40  4425.27  4439.07  4445.00
                             4454.46  4531.05  4539.25  4544.75  4551.56
                             4584.43  4786.41  5299.56

 Zero-point correction=                           0.214582 (Hartree/Particle)
 Thermal correction to Energy=                    0.229888
 Thermal correction to Enthalpy=                  0.230832
 Thermal correction to Gibbs Free Energy=         0.168539
 Sum of electronic and zero-point Energies=           -856.424465
 Sum of electronic and thermal Energies=              -856.409159
 Sum of electronic and thermal Enthalpies=            -856.408215
 Sum of electronic and thermal Free Energies=         -856.470508

                     E (Thermal)             CV                S
                      KCal/Mol        Cal/Mol-Kelvin    Cal/Mol-Kelvin
 Total                  144.257             55.667            131.107
 Electronic               0.000              0.000              0.000
 Translational            0.889              2.981             42.291
 Rotational               0.889              2.981             33.242
 Vibrational            142.479             49.705             55.574
 Vibration     1          0.593              1.986              7.113
 Vibration     2          0.593              1.984              5.859
 Vibration     3          0.595              1.979              4.938
 Vibration     4          0.595              1.978              4.870
 Vibration     5          0.599              1.966              4.037
 Vibration     6          0.607              1.941              3.257
 Vibration     7          0.610              1.929              3.045
 Vibration     8          0.614              1.917              2.850
 Vibration     9          0.625              1.880              2.438
 Vibration    10          0.639              1.837              2.116
 Vibration    11          0.660              1.770              1.762
 Vibration    12          0.663              1.762              1.726
 Vibration    13          0.703              1.643              1.330
 Vibration    14          0.748              1.518              1.049
 Vibration    15          0.764              1.476              0.973
 Vibration    16          0.777              1.441              0.914
 Vibration    17          0.813              1.351              0.783
 Vibration    18          0.842              1.281              0.693
 Vibration    19          0.895              1.162              0.565
 Vibration    20          0.919              1.110              0.517
 Vibration    21          0.935              1.077              0.488
 Vibration    22          0.974              1.001              0.425

                           ! Non-Optimized Parameters !
 Normal termination of Gaussian 16 at Fri Dec 11 12:09:23 2020.

 ----------------------------------------------------------------------
 # B3LYP/6-311++G(d,p) empiricaldispersion=gd3bj scf=xqc pop=npa geom=c
 heck
 ----------------------------------------------------------------------

 ---------------------------------------
 CID_122361153_JID_7043_Energie_neutraal
 ---------------------------------------
 Structure from the checkpoint file:  "JID_7043.chk"
 Charge =  0 Multiplicity = 1

 SCF Done:  E(RB3LYP) =  -856.887580783     A.U. after   15 cycles
 Normal termination of Gaussian 16 at Fri Dec 11 12:12:41 2020.

 ----------------------------------------------------------------------
 # B3LYP/6-311++G(d,p) empiricaldispersion=gd3bj scf=xqc pop=npa geom=c
 heck
 ----------------------------------------------------------------------

 -------------------------------------
 CID_122361153_JID_7043_Energie_kation
 -------------------------------------
 Structure from the checkpoint file:  "JID_7043.chk"
 Charge =  1 Multiplicity = 2

 SCF Done:  E(UB3LYP) =  -856.555580968     A.U. after   27 cycles
 Normal termination of Gaussian 16 at Fri Dec 11 12:20:17 2020.
 Gaussian 16:  ES64L-G16RevA.03 25-Dec-2016

 ----------------------------------------------------------------------
 # B3LYP/6-311++G(d,p) empiricaldispersion=gd3bj scf=xqc pop=npa geom=c
 heck
 ----------------------------------------------------------------------

 ------------------------------------
 CID_122361153_JID_7043_Energie_anion
 ------------------------------------
 Structure from the checkpoint file:  "JID_7043.chk"
 Charge = -1 Multiplicity = 2

                         Standard orientation:
 ---------------------------------------------------------------------
 Center     Atomic      Atomic             Coordinates (Angstroms)
 Number     Number       Type             X           Y           Z
 ---------------------------------------------------------------------
      1          6           0        5.238488   -1.844731   -0.168642
      2          8           0        3.902515   -1.321015   -0.124030
      3          6           0        3.824113    0.013951    0.006759
      4          8           0        4.785921    0.755219    0.085146
      5          6           0        2.432301    0.495830    0.045983
      6          6           0        2.060161    1.800900    0.170030
      7          8           0        0.701034    1.850607    0.166987
      8          6           0        0.302305    0.538363    0.038267
      9          7           0        1.289913   -0.298072   -0.036682
     10          6           0       -1.139389    0.265717    0.003715
     11          6           0       -1.790979   -1.131135   -0.153759
     12          6           0       -2.973755   -0.114203   -0.053908
     13          6           0       -2.194437    0.554315    1.120300
     14          6           0       -2.191781    0.804200   -1.022144
     15          6           0       -4.433062   -0.413983   -0.111749
     16          8           0       -5.206012    0.025510   -0.933920
     17          8           0       -4.807902   -1.255456    0.883821
     18          1           0        5.123298   -2.923048   -0.276923
     19          1           0        5.775670   -1.603499    0.752420
     20          1           0        5.785816   -1.426772   -1.017647
     21          1           0        2.597515    2.730226    0.262758
     22          1           0       -1.655261   -1.624094   -1.119837
     23          1           0       -1.668176   -1.823673    0.681887
     24          1           0       -2.099908   -0.029037    2.039656
     25          1           0       -2.423873    1.605151    1.317380
     26          1           0       -2.086492    0.452875   -2.051879
     27          1           0       -2.419441    1.872066   -0.975015
     28          1           0       -5.766775   -1.397953    0.770838
 ---------------------------------------------------------------------

 SCF Done:  E(UB3LYP) =  -856.886099684     A.U. after   33 cycles
 SCF Done:  E(UB3LYP) =  -856.886099842     a.u. after    2 cycles

 The electronic state is 2-A.
 Alpha  occ. eigenvalues --  -19.07305 -19.07254 -19.04753 -19.02290 -18.97575
 Alpha  occ. eigenvalues --  -14.19928 -10.21175 -10.16312 -10.14360 -10.12623
 Alpha  occ. eigenvalues --  -10.11843 -10.11750 -10.09503 -10.09462 -10.09369
 Alpha  occ. eigenvalues --  -10.09172 -10.07626  -1.01386  -1.01278  -0.98700
 Alpha  occ. eigenvalues --   -0.92685  -0.89327  -0.84181  -0.80744  -0.67152
 Alpha  occ. eigenvalues --   -0.63012  -0.60745  -0.58917  -0.58896  -0.54387
 Alpha  occ. eigenvalues --   -0.51967  -0.47070  -0.46089  -0.45468  -0.42802
 Alpha  occ. eigenvalues --   -0.39628  -0.39096  -0.37881  -0.37530  -0.37256
 Alpha  occ. eigenvalues --   -0.36530  -0.35988  -0.35521  -0.35280  -0.32526
 Alpha  occ. eigenvalues --   -0.31496  -0.29034  -0.27871  -0.27296  -0.26456
 Alpha  occ. eigenvalues --   -0.25231  -0.25024  -0.24662  -0.24254  -0.24038
 Alpha  occ. eigenvalues --   -0.23177  -0.20679  -0.19445  -0.18645  -0.18098
 Alpha  occ. eigenvalues --   -0.15892  -0.13235   0.04404
 Alpha virt. eigenvalues --    0.05671   0.07233   0.07757   0.08251   0.09513
 Alpha virt. eigenvalues --    0.09627   0.10115   0.10845   0.10977   0.11249
 Alpha virt. eigenvalues --    0.11842   0.12197   0.12664   0.13149   0.14420

  Beta  occ. eigenvalues --  -19.07190 -19.07053 -19.04674 -19.02265 -18.97417
  Beta  occ. eigenvalues --  -14.19959 -10.21165 -10.16089 -10.14341 -10.12627
  Beta  occ. eigenvalues --  -10.11834 -10.11748 -10.09485 -10.09365 -10.09172
  Beta  occ. eigenvalues --  -10.09031 -10.07628  -1.01301  -1.00882  -0.98467
  Beta  occ. eigenvalues --   -0.92608  -0.89060  -0.84161  -0.80670  -0.66813
  Beta  occ. eigenvalues --   -0.62873  -0.60574  -0.58903  -0.58873  -0.54216
  Beta  occ. eigenvalues --   -0.51482  -0.46897  -0.45944  -0.45432  -0.42650
  Beta  occ. eigenvalues --   -0.39564  -0.39004  -0.37526  -0.37451  -0.37175
  Beta  occ. eigenvalues --   -0.36268  -0.35531  -0.35305  -0.34921  -0.32442
  Beta  occ. eigenvalues --   -0.31366  -0.28266  -0.27663  -0.27285  -0.26300
  Beta  occ. eigenvalues --   -0.25068  -0.24953  -0.24577  -0.24203  -0.24021
  Beta  occ. eigenvalues --   -0.23107  -0.20218  -0.18794  -0.18573  -0.18068
  Beta  occ. eigenvalues --   -0.15741  -0.11842
  Beta virt. eigenvalues --    0.07117   0.07305   0.07877   0.08503   0.09340
  Beta virt. eigenvalues --    0.09667   0.09900   0.10091   0.10944   0.11189
  Beta virt. eigenvalues --    0.11331   0.11862   0.12114   0.12683   0.13252

 Mulliken charges and spin densities:
               1          2
     1  C   -0.199575  -0.002424
     2  O   -0.104419   0.010175
     3  C   -0.450424   0.162676
     4  O   -0.357019   0.054627
     5  C    0.484400  -0.024603
     6  C   -0.097683   0.373691
     7  O   -0.039637   0.034017
     8  C   -0.167446   0.018952
     9  N   -0.061593  -0.012941
    10  C    0.707217   0.341890
    11  C   -0.771454  -0.398396
    12  C    0.983670  -0.137837
    13  C   -0.232099  -0.697743
    14  C   -1.169269   0.081879
    15  C    0.172848  -0.044697
    16  O   -0.311362   0.010469
    17  O   -0.135820   0.011236
    18  H    0.132603   0.000396
    19  H    0.162520   0.001955
    20  H    0.159883   0.004214
    21  H    0.190004  -0.024172
    22  H    0.184156  -0.006075
    23  H    0.073434   0.104845
    24  H   -0.005333   0.178564
    25  H    0.121781   0.052058
    26  H    0.170240  -0.002185
    27  H    0.152337   0.016954
    28  H   -0.591960   0.892476
 Sum of Mulliken charges =  -1.00000   1.00000

 Dipole moment (field-independent basis, Debye):
    X=              4.7082    Y=              0.5185    Z=             -1.5615  Tot=              4.9874
 Quadrupole moment (field-independent basis, Debye-Ang):
   XX=           -217.3271   YY=           -115.8179   ZZ=           -112.6670
   XY=            -24.5564   XZ=              5.0329   YZ=              4.2198

 Summary of Natural Population Analysis:

                                       Natural Population
                Natural  -----------------------------------------------
    Atom  No    Charge         Core      Valence    Rydberg      Total
 -----------------------------------------------------------------------
      C    1   -0.10610      0.99961     2.09798    0.00852     3.10610
      O    2   -0.26652      0.99986     3.25867    0.00799     4.26652
      C    3    0.41646      0.99964     1.56101    0.02289     2.58354
      O    4   -0.31238      0.99988     3.30681    0.00570     4.31238
      C    5   -0.03040      0.99947     2.01794    0.01299     3.03040
      C    6    0.15616      0.99948     1.82947    0.01488     2.84384
      O    7   -0.21640      0.99986     3.20972    0.00681     4.21640
      C    8    0.24979      0.99949     1.73140    0.01932     2.75021
      N    9   -0.23410      0.99967     2.72764    0.00678     3.73410
      C   10   -0.05873      0.99949     2.04123    0.01801     3.05873
      C   11   -0.15113      0.99961     2.14182    0.00969     3.15113
      C   12   -0.08445      0.99946     2.06761    0.01737     3.08445
      C   13   -0.15459      0.99961     2.14570    0.00928     3.15459
      C   14   -0.15886      0.99961     2.14991    0.00933     3.15886
      C   15    0.40494      0.99957     1.57020    0.02529     2.59506
      O   16   -0.30149      0.99987     3.29584    0.00578     4.30149
      O   17   -0.34022      0.99988     3.33380    0.00653     4.34022
      H   18    0.08509      0.00000     0.41409    0.00082     0.41491
      H   19    0.08747      0.00000     0.41133    0.00120     0.41253
      H   20    0.08740      0.00000     0.41139    0.00120     0.41260
      H   21    0.09375      0.00000     0.40547    0.00077     0.40625
      H   22    0.09715      0.00000     0.40183    0.00103     0.40285
      H   23    0.10138      0.00000     0.39742    0.00120     0.39862
      H   24    0.10027      0.00000     0.39860    0.00113     0.39973
      H   25    0.09705      0.00000     0.40188    0.00107     0.40295
      H   26    0.09651      0.00000     0.40251    0.00098     0.40349
      H   27    0.09780      0.00000     0.40123    0.00097     0.40220
      H   28    0.24414      0.00000     0.22345    0.03241     0.25586
 =======================================================================
   * Total *    0.00000     16.99407    44.75598    0.24994    62.00000

 Normal termination of Gaussian 16 at Fri Dec 11 12:38:41 2020.
