 Gaussian 16, Revision A.03,

 -----------------------------------------------------------
 # opt freq B3LYP/6-31G(d) empiricaldispersion=gd3bj scf=xqc
 -----------------------------------------------------------

 -------------------------------
 CID_136300294_JID_6962_neutraal
 -------------------------------
 Symbolic Z-matrix:
 Charge =  0 Multiplicity = 1

 SCF Done:  E(RB3LYP) =  -1068.69579651     A.U. after   19 cycles
 SCF Done:  E(RB3LYP) =  -1068.76587600     A.U. after   19 cycles
 SCF Done:  E(RB3LYP) =  -1068.84643971     A.U. after   24 cycles
 SCF Done:  E(RB3LYP) =  -1068.92592100     A.U. after   24 cycles
 SCF Done:  E(RB3LYP) =  -1069.06142707     A.U. after   19 cycles
 SCF Done:  E(RB3LYP) =  -1069.18858284     A.U. after   29 cycles
 SCF Done:  E(RB3LYP) =  -1069.23838028     A.U. after   19 cycles
 SCF Done:  E(RB3LYP) =  -1069.25738730     A.U. after   16 cycles
 SCF Done:  E(RB3LYP) =  -1069.31185748     A.U. after   15 cycles
 SCF Done:  E(RB3LYP) =  -1069.34060665     A.U. after   14 cycles
 SCF Done:  E(RB3LYP) =  -1069.43916273     A.U. after    8 cycles
 SCF Done:  E(RB3LYP) =  -1069.43916334     A.U. after    8 cycles
 SCF Done:  E(RB3LYP) =  -1069.43916358     A.U. after    7 cycles
 SCF Done:  E(RB3LYP) =  -1069.43916380     A.U. after    8 cycles
 SCF Done:  E(RB3LYP) =  -1069.43916393     A.U. after    7 cycles
 Optimization completed.
    -- Stationary point found.
 Normal termination of Gaussian 16 at Fri Dec 11 02:03:15 2020.

 --------------------------------------------------------------------
 #N Geom=AllCheck Guess=TCheck SCRF=Check GenChk RB3LYP/6-31G(d) Freq
 --------------------------------------------------------------------

 Structure from the checkpoint file:  "JID_6962.chk"
 -------------------------------
 CID_136300294_JID_6962_neutraal
 -------------------------------
 Charge =  0 Multiplicity = 1

 SCF Done:  E(RB3LYP) =  -1069.43916393     A.U. after    1 cycles

  Exact polarizability: 179.596   6.739 150.906  -4.142  -3.391 159.013
 Approx polarizability: 264.869  16.863 242.339 -19.462  -8.305 272.419

                      1                      2                      3
                      A                      A                      A
 Frequencies --     61.7137                83.8424               128.0021
 Red. masses --      3.7354                 3.7193                 3.6217
 Frc consts  --      0.0084                 0.0154                 0.0350
 IR Inten    --      1.3576                 0.4846                 1.2633

                      4                      5                      6
                      A                      A                      A
 Frequencies --    130.7766               163.2105               167.3929
 Red. masses --      7.8768                 4.1467                 3.6579
 Frc consts  --      0.0794                 0.0651                 0.0604
 IR Inten    --      2.2609                 7.3880                 2.3452

                      7                      8                      9
                      A                      A                      A
 Frequencies --    190.5171               199.0656               211.9682
 Red. masses --      2.6141                 2.8534                 2.6753
 Frc consts  --      0.0559                 0.0666                 0.0708
 IR Inten    --      4.1703                 3.6061                 4.5245

                     10                     11                     12
                      A                      A                      A
 Frequencies --    218.9717               231.2299               253.7169
 Red. masses --      1.3471                 2.5144                 1.6643
 Frc consts  --      0.0381                 0.0792                 0.0631
 IR Inten    --      6.9578                 2.8700                 0.3754

                     13                     14                     15
                      A                      A                      A
 Frequencies --    266.5278               283.2423               305.6145
 Red. masses --      1.7404                 3.3139                 2.4923
 Frc consts  --      0.0728                 0.1566                 0.1371
 IR Inten    --      3.6171                54.1017                15.1852

                     16                     17                     18
                      A                      A                      A
 Frequencies --    336.6810               345.2901               357.7778
 Red. masses --      2.5131                 3.2424                 2.5569
 Frc consts  --      0.1678                 0.2278                 0.1928
 IR Inten    --      0.9722                 7.7574                 7.1258

                     19                     20                     21
                      A                      A                      A
 Frequencies --    391.7087               411.5828               426.0667
 Red. masses --      3.4754                 3.9944                 2.8008
 Frc consts  --      0.3142                 0.3987                 0.2996
 IR Inten    --     17.4622                75.6824                 7.6352

                     22                     23                     24
                      A                      A                      A
 Frequencies --    456.6986               475.1470               491.8522
 Red. masses --      3.0546                 2.6964                 2.4727
 Frc consts  --      0.3754                 0.3587                 0.3524
 IR Inten    --     77.4845                66.0827                 4.5440

                     25                     26                     27
                      A                      A                      A
 Frequencies --    523.3185               529.1180               541.9745
 Red. masses --      2.2017                 2.7087                 3.1745
 Frc consts  --      0.3553                 0.4468                 0.5494
 IR Inten    --     28.5676                 4.0251                44.2687

                     28                     29                     30
                      A                      A                      A
 Frequencies --    596.5394               646.2037               665.3187
 Red. masses --      2.1620                 2.9560                 1.7742
 Frc consts  --      0.4533                 0.7273                 0.4627
 IR Inten    --     42.4050                 3.2153                40.1888

                     31                     32                     33
                      A                      A                      A
 Frequencies --    668.8102               678.4265               728.5001
 Red. masses --      2.8430                 2.6299                 2.5626
 Frc consts  --      0.7493                 0.7132                 0.8013
 IR Inten    --     57.6508                14.8975                40.4428

                     34                     35                     36
                      A                      A                      A
 Frequencies --    769.7757               795.9129               826.2612
 Red. masses --      2.2278                 2.5614                 1.5986
 Frc consts  --      0.7778                 0.9560                 0.6430
 IR Inten    --     23.0197                 4.8398                 3.2310

                     37                     38                     39
                      A                      A                      A
 Frequencies --    844.1308               858.6238               890.2626
 Red. masses --      1.4120                 1.6812                 2.1345
 Frc consts  --      0.5928                 0.7303                 0.9967
 IR Inten    --      4.6343                10.3854                 6.9552

                     40                     41                     42
                      A                      A                      A
 Frequencies --    907.5700               915.1542               966.8818
 Red. masses --      1.8001                 1.6823                 1.4297
 Frc consts  --      0.8736                 0.8301                 0.7875
 IR Inten    --      4.8588                 4.3103                 6.3183

                     43                     44                     45
                      A                      A                      A
 Frequencies --    982.8293               996.2124              1002.6582
 Red. masses --      1.8401                 2.2637                 2.0845
 Frc consts  --      1.0472                 1.3237                 1.2347
 IR Inten    --      1.0057                13.6653                 5.3046

                     46                     47                     48
                      A                      A                      A
 Frequencies --   1039.3486              1050.5518              1071.3944
 Red. masses --      2.6902                 2.6466                 2.2146
 Frc consts  --      1.7122                 1.7210                 1.4978
 IR Inten    --      4.8072                 0.1109                 9.2063

                     49                     50                     51
                      A                      A                      A
 Frequencies --   1092.1032              1099.4150              1120.8681
 Red. masses --      2.2960                 2.0063                 1.6250
 Frc consts  --      1.6135                 1.4288                 1.2028
 IR Inten    --     10.0817                 7.5925                 3.5921

                     52                     53                     54
                      A                      A                      A
 Frequencies --   1130.5592              1203.5554              1207.1067
 Red. masses --      1.4281                 1.6325                 1.8769
 Frc consts  --      1.0755                 1.3933                 1.6113
 IR Inten    --      6.6015                20.2000                24.1390

                     55                     56                     57
                      A                      A                      A
 Frequencies --   1221.3565              1230.9316              1252.7107
 Red. masses --      1.5008                 1.4183                 1.4539
 Frc consts  --      1.3190                 1.2661                 1.3442
 IR Inten    --     13.3354                 7.5636                11.5711

                     58                     59                     60
                      A                      A                      A
 Frequencies --   1261.3472              1265.6188              1286.7411
 Red. masses --      1.3039                 1.2875                 1.2147
 Frc consts  --      1.2223                 1.2151                 1.1850
 IR Inten    --      9.9245                 3.7366                40.7029

                     61                     62                     63
                      A                      A                      A
 Frequencies --   1312.0779              1339.5868              1347.9751
 Red. masses --      2.4165                 1.3368                 1.3673
 Frc consts  --      2.4511                 1.4134                 1.4638
 IR Inten    --     71.1362                17.3534                33.8343

                     64                     65                     66
                      A                      A                      A
 Frequencies --   1354.8648              1368.8562              1382.2721
 Red. masses --      1.2722                 1.3029                 1.3271
 Frc consts  --      1.3759                 1.4384                 1.4939
 IR Inten    --      2.3140                 8.1444                39.9324

                     67                     68                     69
                      A                      A                      A
 Frequencies --   1383.6936              1423.2792              1440.5245
 Red. masses --      1.3238                 1.3904                 1.7352
 Frc consts  --      1.4934                 1.6594                 2.1215
 IR Inten    --      2.7678                13.4735                61.2517

                     70                     71                     72
                      A                      A                      A
 Frequencies --   1445.4019              1479.9923              1485.3347
 Red. masses --      1.2501                 1.2127                 1.0737
 Frc consts  --      1.5387                 1.5651                 1.3957
 IR Inten    --     14.3027                15.7551                 1.8963

                     73                     74                     75
                      A                      A                      A
 Frequencies --   1491.8263              1496.7594              1501.2265
 Red. masses --      1.2445                 1.1994                 1.1285
 Frc consts  --      1.6319                 1.5831                 1.4985
 IR Inten    --     11.6710                14.6189                 2.1907

                     76                     77                     78
                      A                      A                      A
 Frequencies --   1505.4285              1517.2188              1522.7725
 Red. masses --      1.1150                 1.3289                 1.0566
 Frc consts  --      1.4888                 1.8023                 1.4435
 IR Inten    --      1.6659                30.7724                 4.9083

                     79                     80                     81
                      A                      A                      A
 Frequencies --   1525.0258              1530.4722              1539.2989
 Red. masses --      1.1081                 1.1616                 1.1103
 Frc consts  --      1.5184                 1.6031                 1.5500
 IR Inten    --      7.1712                12.6357                 4.9331

                     82                     83                     84
                      A                      A                      A
 Frequencies --   1575.7481              1719.0896              1735.1300
 Red. masses --      1.1500                 6.1101                 6.9256
 Frc consts  --      1.6824                10.6389                12.2849
 IR Inten    --     17.4844               337.4553               363.9901

                     85                     86                     87
                      A                      A                      A
 Frequencies --   2970.3719              2998.8740              3009.3402
 Red. masses --      1.0737                 1.0618                 1.0690
 Frc consts  --      5.5813                 5.6260                 5.7040
 IR Inten    --    101.7031                92.4416                44.8683

                     88                     89                     90
                      A                      A                      A
 Frequencies --   3022.2179              3042.8871              3056.6174
 Red. masses --      1.0837                 1.0286                 1.0486
 Frc consts  --      5.8320                 5.6112                 5.7725
 IR Inten    --     29.6398                26.2532                11.7223

                     91                     92                     93
                      A                      A                      A
 Frequencies --   3058.3375              3061.1671              3086.1157
 Red. masses --      1.0975                 1.0557                 1.0676
 Frc consts  --      6.0480                 5.8288                 5.9910
 IR Inten    --     40.8599                41.2162                 7.6720

                     94                     95                     96
                      A                      A                      A
 Frequencies --   3095.8592              3097.2905              3124.5362
 Red. masses --      1.0594                 1.0854                 1.0967
 Frc consts  --      5.9823                 6.1347                 6.3084
 IR Inten    --     19.1158                48.5090                10.1198

                     97                     98                     99
                      A                      A                      A
 Frequencies --   3129.4752              3136.7541              3138.7747
 Red. masses --      1.1022                 1.1013                 1.1061
 Frc consts  --      6.3597                 6.3841                 6.4205
 IR Inten    --     16.3167                11.4294                28.3084

                    100                    101                    102
                      A                      A                      A
 Frequencies --   3140.0681              3148.9328              3157.1898
 Red. masses --      1.1032                 1.0911                 1.1061
 Frc consts  --      6.4090                 6.3744                 6.4958
 IR Inten    --     23.6529                14.7104                 9.2842

                    103                    104                    105
                      A                      A                      A
 Frequencies --   3160.5247              3524.2234              3559.8341
 Red. masses --      1.1061                 1.0766                 1.0745
 Frc consts  --      6.5100                 7.8781                 8.0223
 IR Inten    --     16.0678                75.9982                 6.4751

 - Thermochemistry -
 -------------------
 Temperature   298.150 Kelvin.  Pressure   1.00000 Atm.
 Atom     1 has atomic number  6 and mass  12.00000

 Molecular mass:   243.14053 amu.
 Principal axes and moments of inertia in atomic units:
                           1         2         3
     Eigenvalues --  2780.897674026.257554552.37287
           X            0.99888   0.04676   0.00717
           Y           -0.04662   0.99873  -0.01892
           Z           -0.00804   0.01856   0.99980
 This molecule is an asymmetric top.
 Rotational symmetry number  1.
 Warning -- assumption of classical behavior for rotation
           may cause significant error
 Rotational temperatures (Kelvin)      0.03115     0.02151     0.01903
 Rotational constants (GHZ):           0.64898     0.44824     0.39644
 Zero-point vibrational energy     846955.7 (Joules/Mol)
                                  202.42727 (Kcal/Mol)
 Warning -- explicit consideration of  28 degrees of freedom as
           vibrations may cause significant error
 Vibrational temperatures:     88.79   120.63   184.17   188.16   234.82
          (Kelvin)            240.84   274.11   286.41   304.97   315.05
                              332.69   365.04   383.47   407.52   439.71
                              484.41   496.80   514.76   563.58   592.18
                              613.01   657.09   683.63   707.67   752.94
                              761.28   779.78   858.29   929.74   957.25
                              962.27   976.10  1048.15  1107.54  1145.14
                             1188.81  1214.52  1235.37  1280.89  1305.79
                             1316.70  1391.13  1414.07  1433.33  1442.60
                             1495.39  1511.51  1541.50  1571.29  1581.81
                             1612.68  1626.62  1731.65  1736.76  1757.26
                             1771.04  1802.37  1814.80  1820.94  1851.33
                             1887.79  1927.37  1939.44  1949.35  1969.48
                             1988.78  1990.83  2047.78  2072.59  2079.61
                             2129.38  2137.07  2146.41  2153.50  2159.93
                             2165.98  2182.94  2190.93  2194.17  2202.01
                             2214.71  2267.15  2473.39  2496.47  4273.70
                             4314.71  4329.77  4348.30  4378.04  4397.79
                             4400.27  4404.34  4440.23  4454.25  4456.31
                             4495.51  4502.62  4513.09  4516.00  4517.86
                             4530.61  4542.49  4547.29  5070.57  5121.81

 Zero-point correction=                           0.322588 (Hartree/Particle)
 Thermal correction to Energy=                    0.339349
 Thermal correction to Enthalpy=                  0.340293
 Thermal correction to Gibbs Free Energy=         0.280679
 Sum of electronic and zero-point Energies=          -1069.116576
 Sum of electronic and thermal Energies=             -1069.099815
 Sum of electronic and thermal Enthalpies=           -1069.098871
 Sum of electronic and thermal Free Energies=        -1069.158485

                     E (Thermal)             CV                S
                      KCal/Mol        Cal/Mol-Kelvin    Cal/Mol-Kelvin
 Total                  212.945             67.176            125.467
 Electronic               0.000              0.000              0.000
 Translational            0.889              2.981             42.366
 Rotational               0.889              2.981             32.300
 Vibrational            211.167             61.215             50.801
 Vibration     1          0.597              1.973              4.402
 Vibration     2          0.601              1.960              3.799
 Vibration     3          0.611              1.925              2.976
 Vibration     4          0.612              1.923              2.935
 Vibration     5          0.623              1.888              2.512
 Vibration     6          0.624              1.883              2.465
 Vibration     7          0.634              1.853              2.223
 Vibration     8          0.637              1.841              2.142
 Vibration     9          0.643              1.823              2.027
 Vibration    10          0.647              1.812              1.968
 Vibration    11          0.653              1.793              1.869
 Vibration    12          0.665              1.757              1.705
 Vibration    13          0.672              1.735              1.619
 Vibration    14          0.682              1.705              1.514
 Vibration    15          0.696              1.663              1.386
 Vibration    16          0.717              1.602              1.228
 Vibration    17          0.724              1.585              1.188
 Vibration    18          0.733              1.559              1.132
 Vibration    19          0.759              1.488              0.994
 Vibration    20          0.776              1.445              0.921
 Vibration    21          0.788              1.414              0.872
 Vibration    22          0.815              1.346              0.776
 Vibration    23          0.832              1.305              0.723
 Vibration    24          0.848              1.268              0.679
 Vibration    25          0.878              1.198              0.602
 Vibration    26          0.884              1.186              0.589
 Vibration    27          0.897              1.157              0.561
 Vibration    28          0.954              1.039              0.456

                           ! Non-Optimized Parameters !
 Normal termination of Gaussian 16 at Fri Dec 11 02:18:17 2020.

 ----------------------------------------------------------------------
 # B3LYP/6-311++G(d,p) empiricaldispersion=gd3bj scf=xqc pop=npa geom=c
 heck
 ----------------------------------------------------------------------

 ---------------------------------------
 CID_136300294_JID_6962_Energie_neutraal
 ---------------------------------------
 Structure from the checkpoint file:  "JID_6962.chk"
 Charge =  0 Multiplicity = 1

 SCF Done:  E(RB3LYP) =  -1069.66193848     A.U. after   18 cycles
 Normal termination of Gaussian 16 at Fri Dec 11 02:25:56 2020.

 ----------------------------------------------------------------------
 # B3LYP/6-311++G(d,p) empiricaldispersion=gd3bj scf=xqc pop=npa geom=c
 heck
 ----------------------------------------------------------------------

 -------------------------------------
 CID_136300294_JID_6962_Energie_kation
 -------------------------------------
 Structure from the checkpoint file:  "JID_6962.chk"
 Charge =  1 Multiplicity = 2

 SCF Done:  E(UB3LYP) =  -1069.43052613     A.U. after   22 cycles
 Normal termination of Gaussian 16 at Fri Dec 11 02:38:32 2020.
 Gaussian 16:  ES64L-G16RevA.03 25-Dec-2016

 ----------------------------------------------------------------------
 # B3LYP/6-311++G(d,p) empiricaldispersion=gd3bj scf=xqc pop=npa geom=c
 heck
 ----------------------------------------------------------------------

 ------------------------------------
 CID_136300294_JID_6962_Energie_anion
 ------------------------------------
 Structure from the checkpoint file:  "JID_6962.chk"
 Charge = -1 Multiplicity = 2

                         Standard orientation:
 ---------------------------------------------------------------------
 Center     Atomic      Atomic             Coordinates (Angstroms)
 Number     Number       Type             X           Y           Z
 ---------------------------------------------------------------------
      1          6           0        2.660144   -1.114465   -1.670888
      2          6           0        0.157771   -1.482577    1.806110
      3          6           0       -1.357086   -1.475019    1.631960
      4          7           0       -1.874370   -0.110863    1.442994
      5          6           0       -2.442867    0.464403    0.355655
      6          8           0       -2.471686    1.697417    0.224828
      7          6           0       -2.981397   -0.424687   -0.755862
      8          6           0       -1.927355   -0.546577   -1.879701
      9          7           0       -0.714272   -1.150586   -1.346317
     10          6           0        0.183736   -0.399246   -0.841124
     11          7           0        0.271481    0.964882   -0.806457
     12          6           0        1.359853    1.769035   -0.238337
     13          6           0        1.872218    1.196180    1.087154
     14          6           0        2.521860   -0.177918    0.949214
     15         16           0        1.501646   -1.345507   -0.036069
     16          6           0        0.828488    3.190807   -0.060590
     17          1           0        2.148020   -1.672771   -2.458895
     18          1           0        3.626830   -1.583537   -1.457966
     19          1           0        2.810702   -0.079018   -1.993330
     20          1           0        0.470341   -2.485973    2.126314
     21          1           0        0.437735   -0.787694    2.612480
     22          1           0       -1.636976   -2.070776    0.762504
     23          1           0       -1.872789   -1.908903    2.504866
     24          1           0       -1.500563    0.583166    2.082332
     25          1           0       -3.250981   -1.421540   -0.399503
     26          1           0       -3.879350    0.062493   -1.146994
     27          1           0       -2.319386   -1.200721   -2.664852
     28          1           0       -1.762240    0.443827   -2.331220
     29          1           0       -0.621851    1.447479   -0.843188
     30          1           0        2.193881    1.789414   -0.953946
     31          1           0        1.036836    1.147696    1.790679
     32          1           0        2.620021    1.881451    1.505349
     33          1           0        2.650897   -0.653245    1.923229
     34          1           0        3.487741   -0.106946    0.443349
     35          1           0        1.605516    3.843727    0.347762
     36          1           0        0.503140    3.604679   -1.020803
     37          1           0       -0.032427    3.192308    0.617236
 ---------------------------------------------------------------------

 SCF Done:  E(UB3LYP) =  -1069.65002340     A.U. after   33 cycles
 SCF Done:  E(UB3LYP) =  -1069.65002340     a.u. after    1 cycles

 The electronic state is 2-A.
 Alpha  occ. eigenvalues --  -88.82639 -18.99909 -14.24724 -14.24332 -14.19907
 Alpha  occ. eigenvalues --  -10.18589 -10.17679 -10.12391 -10.11679 -10.11032
 Alpha  occ. eigenvalues --  -10.10779 -10.09525 -10.08305 -10.06991 -10.05536
 Alpha  occ. eigenvalues --  -10.03572  -7.90354  -5.86509  -5.86449  -5.86053
 Alpha  occ. eigenvalues --   -0.94867  -0.88479  -0.83102  -0.80806  -0.74161
 Alpha  occ. eigenvalues --   -0.70583  -0.67193  -0.64148  -0.62928  -0.58315
 Alpha  occ. eigenvalues --   -0.56755  -0.54549  -0.51797  -0.51394  -0.48238
 Alpha  occ. eigenvalues --   -0.47245  -0.42366  -0.41216  -0.40254  -0.38935
 Alpha  occ. eigenvalues --   -0.37742  -0.37109  -0.36109  -0.34967  -0.33910
 Alpha  occ. eigenvalues --   -0.33026  -0.32016  -0.31232  -0.30696  -0.30095
 Alpha  occ. eigenvalues --   -0.29817  -0.29597  -0.28941  -0.28206  -0.27285
 Alpha  occ. eigenvalues --   -0.26716  -0.26081  -0.25212  -0.24410  -0.23157
 Alpha  occ. eigenvalues --   -0.21989  -0.17481  -0.17244  -0.16527  -0.14342
 Alpha  occ. eigenvalues --   -0.07399   0.04341
 Alpha virt. eigenvalues --    0.06087   0.06854   0.07369   0.07833   0.08280
 Alpha virt. eigenvalues --    0.08568   0.09132   0.09551   0.09798   0.10687
 Alpha virt. eigenvalues --    0.10940   0.11027   0.11208   0.11448   0.11706

  Beta  occ. eigenvalues --  -88.82638 -18.99905 -14.24718 -14.24327 -14.19901
  Beta  occ. eigenvalues --  -10.18589 -10.17667 -10.12375 -10.11669 -10.10999
  Beta  occ. eigenvalues --  -10.10776 -10.09516 -10.08269 -10.06961 -10.05512
  Beta  occ. eigenvalues --  -10.03557  -7.90352  -5.86507  -5.86447  -5.86050
  Beta  occ. eigenvalues --   -0.94863  -0.88458  -0.83091  -0.80786  -0.74130
  Beta  occ. eigenvalues --   -0.70548  -0.67170  -0.64127  -0.62883  -0.58281
  Beta  occ. eigenvalues --   -0.56697  -0.54496  -0.51747  -0.51353  -0.48213
  Beta  occ. eigenvalues --   -0.47200  -0.42344  -0.41196  -0.40227  -0.38916
  Beta  occ. eigenvalues --   -0.37711  -0.37074  -0.36073  -0.34907  -0.33883
  Beta  occ. eigenvalues --   -0.32999  -0.31992  -0.31199  -0.30654  -0.30060
  Beta  occ. eigenvalues --   -0.29796  -0.29566  -0.28923  -0.28176  -0.27264
  Beta  occ. eigenvalues --   -0.26679  -0.26038  -0.25180  -0.24370  -0.23125
  Beta  occ. eigenvalues --   -0.21953  -0.17473  -0.17230  -0.16518  -0.14318
  Beta  occ. eigenvalues --   -0.07358
  Beta virt. eigenvalues --    0.06171   0.07035   0.07251   0.07881   0.08058
  Beta virt. eigenvalues --    0.08692   0.09101   0.09286   0.09752   0.10085
  Beta virt. eigenvalues --    0.10857   0.11050   0.11431   0.11658   0.11885

 Mulliken charges and spin densities:
               1          2
     1  C    0.068949  -0.857498
     2  C   -0.365910  -0.294293
     3  C   -0.248947  -0.131977
     4  N    0.029670   0.057511
     5  C   -0.459048   0.128704
     6  O   -0.314390   0.016188
     7  C    0.456509  -0.615642
     8  C   -0.424617   0.099899
     9  N    0.107357   0.052817
    10  C    0.077849  -0.268192
    11  N    0.103460  -0.005159
    12  C   -1.388939   1.140090
    13  C    1.486364  -1.780372
    14  C    0.003026  -0.298755
    15  S    0.309738   0.208216
    16  C    0.767562  -1.555519
    17  H    0.191075  -0.027703
    18  H   -0.210299   0.374195
    19  H   -0.227694   0.389496
    20  H    0.096075   0.059728
    21  H    0.140863  -0.010850
    22  H    0.166353  -0.028234
    23  H   -0.026679   0.201694
    24  H    0.150266   0.121219
    25  H    0.151680   0.010841
    26  H    0.069742   0.122882
    27  H   -0.162833   0.348764
    28  H    0.060253   0.119279
    29  H    0.638584  -0.361075
    30  H   -0.147713   0.345703
    31  H    0.200914  -0.079003
    32  H   -0.851271   1.087640
    33  H   -0.683847   0.940406
    34  H   -0.256874   0.491421
    35  H   -0.473956   0.637639
    36  H   -0.147903   0.297780
    37  H    0.114634   0.062162
 Sum of Mulliken charges =  -1.00000   1.00000

 Dipole moment (field-independent basis, Debye):
    X=             -7.5029    Y=             -4.0636    Z=             -1.1194  Tot=              8.6057
 Quadrupole moment (field-independent basis, Debye-Ang):
   XX=           -182.2651   YY=           -159.2510   ZZ=           -148.7024
   XY=             -7.6981   XZ=             -6.8463   YZ=             -3.7452

 Summary of Natural Population Analysis:

                                       Natural Population
                Natural  -----------------------------------------------
    Atom  No    Charge         Core      Valence    Rydberg      Total
 -----------------------------------------------------------------------
      C    1   -0.41881      0.99961     2.40871    0.01048     3.41881
      C    2   -0.36185      0.99958     2.34613    0.01613     3.36185
      C    3   -0.10274      0.99960     2.09185    0.01129     3.10274
      N    4   -0.30541      0.99965     2.79623    0.00952     3.80541
      C    5    0.33993      0.99964     1.63780    0.02263     2.66007
      O    6   -0.34610      0.99988     3.34035    0.00587     4.34610
      C    7   -0.23259      0.99957     2.22477    0.00825     3.23259
      C    8   -0.09592      0.99960     2.08379    0.01253     3.09592
      N    9   -0.29647      0.99962     2.78559    0.01127     3.79647
      C   10    0.18426      0.99952     1.79166    0.02457     2.81574
      N   11   -0.34234      0.99962     2.83047    0.01225     3.84234
      C   12   -0.00819      0.99958     1.99509    0.01352     3.00819
      C   13   -0.20236      0.99958     2.19091    0.01187     3.20236
      C   14   -0.24338      0.99959     2.23147    0.01232     3.24338
      S   15    0.41291      4.99942     2.55607    0.03159     7.58709
      C   16   -0.28765      0.99964     2.28200    0.00601     3.28765
      H   17    0.09874      0.00000     0.39987    0.00139     0.40126
      H   18    0.09675      0.00000     0.40122    0.00203     0.40325
      H   19    0.09586      0.00000     0.40225    0.00190     0.40414
      H   20    0.08867      0.00000     0.40982    0.00151     0.41133
      H   21    0.08153      0.00000     0.41692    0.00155     0.41847
      H   22    0.10340      0.00000     0.39495    0.00164     0.39660
      H   23    0.08542      0.00000     0.41323    0.00136     0.41458
      H   24    0.19018      0.00000     0.30739    0.00243     0.30982
      H   25    0.10340      0.00000     0.39550    0.00110     0.39660
      H   26    0.11186      0.00000     0.38709    0.00104     0.38814
      H   27    0.09720      0.00000     0.40169    0.00111     0.40280
      H   28    0.08824      0.00000     0.41012    0.00164     0.41176
      H   29    0.20871      0.00000     0.28746    0.00383     0.29129
      H   30    0.09542      0.00000     0.40185    0.00273     0.40458
      H   31    0.10124      0.00000     0.39659    0.00217     0.39876
      H   32    0.11623      0.00000     0.37891    0.00486     0.38377
      H   33    0.11502      0.00000     0.38293    0.00205     0.38498
      H   34    0.11256      0.00000     0.38408    0.00336     0.38744
      H   35    0.10894      0.00000     0.38970    0.00136     0.39106
      H   36    0.10176      0.00000     0.39732    0.00092     0.39824
      H   37    0.10557      0.00000     0.39324    0.00119     0.39443
 =======================================================================
   * Total *    0.00000     19.99372    45.74503    0.26126    66.00000

 Normal termination of Gaussian 16 at Fri Dec 11 02:57:27 2020.
