 Gaussian 16, Revision A.03,

 -----------------------------------------------------------
 # opt freq B3LYP/6-31G(d) empiricaldispersion=gd3bj scf=xqc
 -----------------------------------------------------------

 ------------------------------
 CID_62262694_JID_7138_neutraal
 ------------------------------
 Symbolic Z-matrix:
 Charge =  0 Multiplicity = 1

 SCF Done:  E(RB3LYP) =  -696.821974996     A.U. after   14 cycles
 SCF Done:  E(RB3LYP) =  -696.826692167     A.U. after   12 cycles
 SCF Done:  E(RB3LYP) =  -696.825654766     A.U. after   12 cycles
 SCF Done:  E(RB3LYP) =  -696.825702641     A.U. after   12 cycles
 SCF Done:  E(RB3LYP) =  -696.827147415     A.U. after    9 cycles
 SCF Done:  E(RB3LYP) =  -696.827351774     A.U. after   11 cycles
 SCF Done:  E(RB3LYP) =  -696.827511279     A.U. after   11 cycles
 SCF Done:  E(RB3LYP) =  -696.827318981     A.U. after   11 cycles
 SCF Done:  E(RB3LYP) =  -696.827521415     A.U. after   11 cycles
 SCF Done:  E(RB3LYP) =  -696.827598130     A.U. after   10 cycles
 SCF Done:  E(RB3LYP) =  -696.827606734     A.U. after    9 cycles
 SCF Done:  E(RB3LYP) =  -696.827607380     A.U. after    7 cycles
 SCF Done:  E(RB3LYP) =  -696.827607796     A.U. after    8 cycles
 SCF Done:  E(RB3LYP) =  -696.827607949     A.U. after    7 cycles
 SCF Done:  E(RB3LYP) =  -696.827608015     A.U. after    7 cycles
 SCF Done:  E(RB3LYP) =  -696.827608032     A.U. after    7 cycles
 Optimization completed.
    -- Stationary point found.
 Normal termination of Gaussian 16 at Fri Dec 11 12:04:07 2020.

 --------------------------------------------------------------------
 #N Geom=AllCheck Guess=TCheck SCRF=Check GenChk RB3LYP/6-31G(d) Freq
 --------------------------------------------------------------------

 Structure from the checkpoint file:  "JID_7138.chk"
 ------------------------------
 CID_62262694_JID_7138_neutraal
 ------------------------------
 Charge =  0 Multiplicity = 1

 SCF Done:  E(RB3LYP) =  -696.827608032     A.U. after    1 cycles

  Exact polarizability: 218.937  12.463 171.203  -8.028  14.370 121.291
 Approx polarizability: 294.098  19.765 259.426 -14.344  31.293 191.455

                      1                      2                      3
                      A                      A                      A
 Frequencies --     28.2125                39.9671                77.7359
 Red. masses --      3.4409                 3.6049                 3.4907
 Frc consts  --      0.0016                 0.0034                 0.0124
 IR Inten    --      0.2261                 0.0380                 0.0341

                      4                      5                      6
                      A                      A                      A
 Frequencies --     87.1195               118.6285               132.5837
 Red. masses --      3.0557                 1.8027                 2.1576
 Frc consts  --      0.0137                 0.0149                 0.0223
 IR Inten    --      0.6147                 0.4805                 2.6313

                      7                      8                      9
                      A                      A                      A
 Frequencies --    136.4160               163.7763               182.8420
 Red. masses --      2.3675                 2.8314                 2.3020
 Frc consts  --      0.0260                 0.0447                 0.0453
 IR Inten    --      4.6441                 1.5492                 0.2480

                     10                     11                     12
                      A                      A                      A
 Frequencies --    193.6924               202.7815               218.6877
 Red. masses --      3.0922                 2.0473                 1.2124
 Frc consts  --      0.0684                 0.0496                 0.0342
 IR Inten    --      0.8221                 0.2525                 0.1081

                     13                     14                     15
                      A                      A                      A
 Frequencies --    226.0547               233.9156               266.3701
 Red. masses --      1.3300                 1.7151                 2.2272
 Frc consts  --      0.0400                 0.0553                 0.0931
 IR Inten    --      2.0125                 0.8900                14.0678

                     16                     17                     18
                      A                      A                      A
 Frequencies --    279.3819               312.0116               317.4095
 Red. masses --      2.3695                 2.0386                 1.9292
 Frc consts  --      0.1090                 0.1169                 0.1145
 IR Inten    --     11.3606                 1.0917                 7.7242

                     19                     20                     21
                      A                      A                      A
 Frequencies --    340.8165               355.9503               401.8630
 Red. masses --      2.3070                 2.5344                 2.9013
 Frc consts  --      0.1579                 0.1892                 0.2761
 IR Inten    --      1.2288                 0.9596                14.8564

                     22                     23                     24
                      A                      A                      A
 Frequencies --    415.6522               425.6606               456.9495
 Red. masses --      2.9892                 2.8710                 2.6635
 Frc consts  --      0.3043                 0.3065                 0.3277
 IR Inten    --      1.0317                 0.3431                 0.7940

                     25                     26                     27
                      A                      A                      A
 Frequencies --    489.3024               522.3803               539.7923
 Red. masses --      2.3851                 2.7069                 2.7122
 Frc consts  --      0.3364                 0.4352                 0.4656
 IR Inten    --      2.6880                 3.7115                 0.4102

                     28                     29                     30
                      A                      A                      A
 Frequencies --    552.9812               606.6440               636.8950
 Red. masses --      2.7131                 3.1759                 6.2564
 Frc consts  --      0.4888                 0.6886                 1.4952
 IR Inten    --      5.1501                 2.5953                 0.1418

                     31                     32                     33
                      A                      A                      A
 Frequencies --    708.1925               713.5385               754.3069
 Red. masses --      2.0522                 2.8288                 3.7145
 Frc consts  --      0.6064                 0.8486                 1.2452
 IR Inten    --      8.4481                18.1532                21.6616

                     34                     35                     36
                      A                      A                      A
 Frequencies --    759.7547               776.4141               802.3087
 Red. masses --      1.8207                 1.2486                 1.3013
 Frc consts  --      0.6192                 0.4435                 0.4935
 IR Inten    --     44.3834                 4.1866                 2.8693

                     37                     38                     39
                      A                      A                      A
 Frequencies --    815.1642               823.3795               857.0232
 Red. masses --      1.2149                 1.2560                 1.5404
 Frc consts  --      0.4756                 0.5017                 0.6666
 IR Inten    --     11.6429                 0.7391                 7.2995

                     40                     41                     42
                      A                      A                      A
 Frequencies --    869.1413               876.9803               906.8543
 Red. masses --      1.6767                 1.4618                 1.8384
 Frc consts  --      0.7463                 0.6624                 0.8908
 IR Inten    --     39.6328                 5.9437               124.2617

                     43                     44                     45
                      A                      A                      A
 Frequencies --    933.6913               952.5793               956.6789
 Red. masses --      1.8989                 1.3186                 1.9988
 Frc consts  --      0.9753                 0.7050                 1.0778
 IR Inten    --     15.4936                 0.1533                50.4591

                     46                     47                     48
                      A                      A                      A
 Frequencies --    976.9876               986.1489              1008.4556
 Red. masses --      1.2350                 1.8532                 5.0656
 Frc consts  --      0.6945                 1.0619                 3.0352
 IR Inten    --      0.8903                 8.5611                 5.7091

                     49                     50                     51
                      A                      A                      A
 Frequencies --   1013.4511              1028.3751              1043.9605
 Red. masses --      1.9041                 2.3569                 1.8494
 Frc consts  --      1.1523                 1.4686                 1.1875
 IR Inten    --      8.6007                 1.4754                 2.3575

                     52                     53                     54
                      A                      A                      A
 Frequencies --   1064.4460              1073.6462              1087.5804
 Red. masses --      2.5284                 2.1190                 1.8856
 Frc consts  --      1.6879                 1.4392                 1.3141
 IR Inten    --      1.2437                 8.9694                 3.3976

                     55                     56                     57
                      A                      A                      A
 Frequencies --   1106.7501              1127.3435              1134.2669
 Red. masses --      2.0245                 1.7074                 2.5172
 Frc consts  --      1.4610                 1.2785                 1.9081
 IR Inten    --     25.4820                 0.6722                18.7477

                     58                     59                     60
                      A                      A                      A
 Frequencies --   1152.6562              1163.1405              1195.7304
 Red. masses --      1.9130                 1.5261                 1.6839
 Frc consts  --      1.4975                 1.2164                 1.4185
 IR Inten    --     12.4424                 0.2456                 0.6248

                     61                     62                     63
                      A                      A                      A
 Frequencies --   1197.0220              1206.0997              1232.8862
 Red. masses --      1.3612                 2.1840                 2.6318
 Frc consts  --      1.1492                 1.8719                 2.3570
 IR Inten    --      0.3142                32.2502                30.7033

                     64                     65                     66
                      A                      A                      A
 Frequencies --   1237.2656              1272.1355              1299.7366
 Red. masses --      1.1460                 1.9104                 1.6611
 Frc consts  --      1.0336                 1.8215                 1.6533
 IR Inten    --     10.6102                45.0044                68.1369

                     67                     68                     69
                      A                      A                      A
 Frequencies --   1320.5161              1328.4903              1345.1184
 Red. masses --      1.3159                 1.2295                 1.6219
 Frc consts  --      1.3519                 1.2785                 1.7290
 IR Inten    --     11.8498                 6.6002                 5.4008

                     70                     71                     72
                      A                      A                      A
 Frequencies --   1363.7023              1380.6625              1388.4238
 Red. masses --      2.1464                 1.4020                 1.3227
 Frc consts  --      2.3518                 1.5746                 1.5023
 IR Inten    --      1.9910                 1.4385                12.5777

                     73                     74                     75
                      A                      A                      A
 Frequencies --   1398.4315              1400.3773              1406.3632
 Red. masses --      1.4257                 1.5072                 1.2877
 Frc consts  --      1.6427                 1.7414                 1.5006
 IR Inten    --     17.5550                25.0390                 8.9469

                     76                     77                     78
                      A                      A                      A
 Frequencies --   1424.1918              1435.5869              1436.8596
 Red. masses --      1.2312                 1.4207                 1.2776
 Frc consts  --      1.4714                 1.7251                 1.5541
 IR Inten    --      3.8302                39.1584                14.8764

                     79                     80                     81
                      A                      A                      A
 Frequencies --   1440.9077              1450.4145              1453.0031
 Red. masses --      1.3153                 1.3076                 1.2391
 Frc consts  --      1.6090                 1.6207                 1.5413
 IR Inten    --     26.8168                 1.7356                 1.9160

                     82                     83                     84
                      A                      A                      A
 Frequencies --   1506.1060              1512.9687              1518.1258
 Red. masses --      2.1157                 1.1072                 1.0819
 Frc consts  --      2.8275                 1.4933                 1.4691
 IR Inten    --      0.7645                 3.4637                 3.5673

                     85                     86                     87
                      A                      A                      A
 Frequencies --   1522.8405              1526.1282              1528.9504
 Red. masses --      1.0500                 1.0773                 1.0605
 Frc consts  --      1.4346                 1.4783                 1.4606
 IR Inten    --      0.7342                 8.1424                 3.9114

                     88                     89                     90
                      A                      A                      A
 Frequencies --   1531.5524              1535.9645              1538.4724
 Red. masses --      1.0547                 1.0477                 1.0683
 Frc consts  --      1.4576                 1.4563                 1.4897
 IR Inten    --      4.9581                 0.5396                 5.2553

                     91                     92                     93
                      A                      A                      A
 Frequencies --   1543.6492              1548.0448              1556.3378
 Red. masses --      1.0550                 1.0755                 1.7236
 Frc consts  --      1.4811                 1.5186                 2.4597
 IR Inten    --     11.3510                 1.0013                97.9143

                     94                     95                     96
                      A                      A                      A
 Frequencies --   1559.3144              1631.9402              1669.6389
 Red. masses --      1.2719                 5.2503                 5.4281
 Frc consts  --      1.8222                 8.2384                 8.9154
 IR Inten    --     40.5133                10.0004               133.0016

                     97                     98                     99
                      A                      A                      A
 Frequencies --   1707.1063              3023.2591              3036.9972
 Red. masses --      1.0910                 1.0607                 1.0659
 Frc consts  --      1.8733                 5.7120                 5.7925
 IR Inten    --     13.5559                19.8137                31.4509

                    100                    101                    102
                      A                      A                      A
 Frequencies --   3039.1014              3046.3483              3053.4471
 Red. masses --      1.0663                 1.0602                 1.0791
 Frc consts  --      5.8025                 5.7970                 5.9280
 IR Inten    --     11.4596                33.4669                 1.9648

                    103                    104                    105
                      A                      A                      A
 Frequencies --   3054.5955              3057.1813              3058.9675
 Red. masses --      1.0370                 1.0565                 1.0389
 Frc consts  --      5.7008                 5.8179                 5.7277
 IR Inten    --     12.3384                74.7071                27.3756

                    106                    107                    108
                      A                      A                      A
 Frequencies --   3075.0493              3080.9861              3085.4815
 Red. masses --      1.0953                 1.0723                 1.1012
 Frc consts  --      6.1023                 5.9970                 6.1767
 IR Inten    --     14.8931                19.1960                68.1025

                    109                    110                    111
                      A                      A                      A
 Frequencies --   3099.6220              3114.2305              3117.8619
 Red. masses --      1.0953                 1.1013                 1.0997
 Frc consts  --      6.2001                 6.2929                 6.2986
 IR Inten    --     23.8340                43.9077                19.3319

                    112                    113                    114
                      A                      A                      A
 Frequencies --   3118.4478              3124.4091              3131.3769
 Red. masses --      1.1009                 1.1012                 1.1010
 Frc consts  --      6.3076                 6.3336                 6.3608
 IR Inten    --     70.7488                44.0845                25.9558

                    115                    116                    117
                      A                      A                      A
 Frequencies --   3131.7497              3151.8722              3181.7365
 Red. masses --      1.0987                 1.0973                 1.0857
 Frc consts  --      6.3492                 6.4228                 6.4758
 IR Inten    --     11.4330                37.8466                 6.4580

                    118                    119                    120
                      A                      A                      A
 Frequencies --   3188.5059              3211.9798              3237.5494
 Red. masses --      1.0900                 1.0954                 1.0901
 Frc consts  --      6.5288                 6.6585                 6.7322
 IR Inten    --     20.0508                35.2106                14.4780

                    121                    122                    123
                      A                      A                      A
 Frequencies --   3247.3287              3496.7080              3589.9487
 Red. masses --      1.0893                 1.0507                 1.0903
 Frc consts  --      6.7676                 7.5689                 8.2786
 IR Inten    --     10.9620                 8.0806                10.3178

 - Thermochemistry -
 -------------------
 Temperature   298.150 Kelvin.  Pressure   1.00000 Atm.
 Atom     1 has atomic number  6 and mass  12.00000

 Molecular mass:   234.20960 amu.
 Principal axes and moments of inertia in atomic units:
                           1         2         3
     Eigenvalues --  2411.966475951.506867235.41982
           X            0.99996  -0.00780  -0.00321
           Y            0.00783   0.99992   0.00988
           Z            0.00313  -0.00990   0.99995
 This molecule is an asymmetric top.
 Rotational symmetry number  1.
 Warning -- assumption of classical behavior for rotation
           may cause significant error
 Rotational temperatures (Kelvin)      0.03591     0.01455     0.01197
 Rotational constants (GHZ):           0.74824     0.30324     0.24943
 Zero-point vibrational energy    1033223.6 (Joules/Mol)
                                  246.94637 (Kcal/Mol)
 Warning -- explicit consideration of  29 degrees of freedom as
           vibrations may cause significant error
 Vibrational temperatures:     40.59    57.50   111.84   125.35   170.68
          (Kelvin)            190.76   196.27   235.64   263.07   278.68
                              291.76   314.64   325.24   336.55   383.25
                              401.97   448.92   456.68   490.36   512.13
                              578.19   598.03   612.43   657.45   704.00
                              751.59   776.64   795.62   872.83   916.35
                             1018.93  1026.62  1085.28  1093.12  1117.09
                             1154.34  1172.84  1184.66  1233.07  1250.50
                             1261.78  1304.76  1343.37  1370.55  1376.45
                             1405.67  1418.85  1450.94  1458.13  1479.60
                             1502.03  1531.50  1544.74  1564.79  1592.37
                             1622.00  1631.96  1658.42  1673.50  1720.39
                             1722.25  1735.31  1773.85  1780.15  1830.32
                             1870.03  1899.93  1911.40  1935.33  1962.06
                             1986.47  1997.63  2012.03  2014.83  2023.44
                             2049.09  2065.49  2067.32  2073.14  2086.82
                             2090.55  2166.95  2176.82  2184.24  2191.03
                             2195.76  2199.82  2203.56  2209.91  2213.52
                             2220.97  2227.29  2239.22  2243.51  2348.00
                             2402.24  2456.15  4349.80  4369.56  4372.59
                             4383.02  4393.23  4394.88  4398.60  4401.17
                             4424.31  4432.85  4439.32  4459.66  4480.68
                             4485.91  4486.75  4495.33  4505.35  4505.89
                             4534.84  4577.81  4587.55  4621.32  4658.11
                             4672.18  5030.98  5165.14

 Zero-point correction=                           0.393534 (Hartree/Particle)
 Thermal correction to Energy=                    0.412053
 Thermal correction to Enthalpy=                  0.412997
 Thermal correction to Gibbs Free Energy=         0.347748
 Sum of electronic and zero-point Energies=           -696.434074
 Sum of electronic and thermal Energies=              -696.415555
 Sum of electronic and thermal Enthalpies=            -696.414611
 Sum of electronic and thermal Free Energies=         -696.479860

                     E (Thermal)             CV                S
                      KCal/Mol        Cal/Mol-Kelvin    Cal/Mol-Kelvin
 Total                  258.567             72.104            137.328
 Electronic               0.000              0.000              0.000
 Translational            0.889              2.981             42.255
 Rotational               0.889              2.981             33.007
 Vibrational            256.790             66.142             62.066
 Vibration     1          0.593              1.984              5.951
 Vibration     2          0.594              1.981              5.261
 Vibration     3          0.599              1.964              3.947
 Vibration     4          0.601              1.958              3.724
 Vibration     5          0.609              1.934              3.123
 Vibration     6          0.613              1.921              2.908
 Vibration     7          0.614              1.917              2.854
 Vibration     8          0.623              1.887              2.506
 Vibration     9          0.630              1.863              2.299
 Vibration    10          0.635              1.849              2.192
 Vibration    11          0.639              1.836              2.108
 Vibration    12          0.646              1.813              1.970
 Vibration    13          0.650              1.801              1.910
 Vibration    14          0.654              1.789              1.849
 Vibration    15          0.672              1.735              1.620
 Vibration    16          0.680              1.712              1.537
 Vibration    17          0.700              1.651              1.352
 Vibration    18          0.704              1.640              1.323
 Vibration    19          0.720              1.594              1.208
 Vibration    20          0.731              1.563              1.140
 Vibration    21          0.767              1.466              0.956
 Vibration    22          0.779              1.436              0.907
 Vibration    23          0.787              1.414              0.873
 Vibration    24          0.815              1.346              0.775
 Vibration    25          0.845              1.274              0.685
 Vibration    26          0.877              1.200              0.604
 Vibration    27          0.895              1.162              0.566
 Vibration    28          0.908              1.133              0.538
 Vibration    29          0.965              1.018              0.438

                           ! Non-Optimized Parameters !
 Normal termination of Gaussian 16 at Fri Dec 11 12:26:53 2020.

 ----------------------------------------------------------------------
 # B3LYP/6-311++G(d,p) empiricaldispersion=gd3bj scf=xqc pop=npa geom=c
 heck
 ----------------------------------------------------------------------

 --------------------------------------
 CID_62262694_JID_7138_Energie_neutraal
 --------------------------------------
 Structure from the checkpoint file:  "JID_7138.chk"
 Charge =  0 Multiplicity = 1

 SCF Done:  E(RB3LYP) =  -697.023127338     A.U. after   14 cycles
 Normal termination of Gaussian 16 at Fri Dec 11 12:37:28 2020.

 ----------------------------------------------------------------------
 # B3LYP/6-311++G(d,p) empiricaldispersion=gd3bj scf=xqc pop=npa geom=c
 heck
 ----------------------------------------------------------------------

 ------------------------------------
 CID_62262694_JID_7138_Energie_kation
 ------------------------------------
 Structure from the checkpoint file:  "JID_7138.chk"
 Charge =  1 Multiplicity = 2

 SCF Done:  E(UB3LYP) =  -696.767738449     A.U. after   20 cycles
 Normal termination of Gaussian 16 at Fri Dec 11 13:01:18 2020.
 Gaussian 16:  ES64L-G16RevA.03 25-Dec-2016

 ----------------------------------------------------------------------
 # B3LYP/6-311++G(d,p) empiricaldispersion=gd3bj scf=xqc pop=npa geom=c
 heck
 ----------------------------------------------------------------------

 -----------------------------------
 CID_62262694_JID_7138_Energie_anion
 -----------------------------------
 Structure from the checkpoint file:  "JID_7138.chk"
 Charge = -1 Multiplicity = 2

                         Standard orientation:
 ---------------------------------------------------------------------
 Center     Atomic      Atomic             Coordinates (Angstroms)
 Number     Number       Type             X           Y           Z
 ---------------------------------------------------------------------
      1          6           0        3.206922    1.749836    0.430945
      2          6           0        2.470808    0.520524    0.976223
      3          6           0        1.809645   -0.409314   -0.066166
      4          6           0        2.806031   -0.809396   -1.186935
      5          6           0        4.141578   -1.418420   -0.745341
      6          6           0        1.344162   -1.710495    0.653589
      7          7           0        0.480950   -1.618452    1.827371
      8          6           0        0.643279    0.306407   -0.808082
      9          7           0       -0.501010    0.759930   -0.015100
     10          6           0       -0.471343    2.171086    0.366648
     11          6           0       -0.949407    3.128141   -0.732045
     12          6           0       -1.736683    0.107421   -0.096078
     13          6           0       -2.923626    0.713711    0.376449
     14          6           0       -4.142598    0.042749    0.335202
     15          6           0       -4.240168   -1.250081   -0.176916
     16          6           0       -3.078159   -1.862036   -0.643125
     17          6           0       -1.851240   -1.205517   -0.604856
     18          1           0        4.071441    1.469183   -0.178935
     19          1           0        3.574346    2.371426    1.254966
     20          1           0        2.564011    2.381630   -0.191687
     21          1           0        3.180995   -0.073553    1.567374
     22          1           0        1.699499    0.843951    1.684972
     23          1           0        2.298793   -1.522633   -1.852245
     24          1           0        3.013541    0.073624   -1.806241
     25          1           0        4.008616   -2.357834   -0.200154
     26          1           0        4.762264   -1.636073   -1.621502
     27          1           0        4.710416   -0.739651   -0.101533
     28          1           0        0.846195   -2.357649   -0.079620
     29          1           0        2.241127   -2.255548    0.969101
     30          1           0       -0.373485   -1.117671    1.600520
     31          1           0        0.943810   -1.085915    2.560319
     32          1           0        1.059231    1.183228   -1.320446
     33          1           0        0.287524   -0.347110   -1.609685
     34          1           0       -1.058891    2.306204    1.279931
     35          1           0        0.556230    2.415595    0.639430
     36          1           0       -1.979381    2.910137   -1.028149
     37          1           0       -0.900559    4.166848   -0.385680
     38          1           0       -0.318764    3.040216   -1.623829
     39          1           0       -2.907509    1.719365    0.775447
     40          1           0       -5.029067    0.549850    0.707464
     41          1           0       -5.193756   -1.767607   -0.206730
     42          1           0       -3.114950   -2.873559   -1.038827
     43          1           0       -0.976450   -1.734505   -0.957229
 ---------------------------------------------------------------------

 SCF Done:  E(UB3LYP) =  -697.011076563     A.U. after   32 cycles

 The electronic state is 2-A.
 Alpha  occ. eigenvalues --  -14.23934 -14.19429 -10.12858 -10.10891 -10.10849
 Alpha  occ. eigenvalues --  -10.09660 -10.08912 -10.08690 -10.08602 -10.07947
 Alpha  occ. eigenvalues --  -10.07901 -10.07689 -10.07621 -10.07332 -10.06920
 Alpha  occ. eigenvalues --  -10.06764 -10.06430  -0.85974  -0.79024  -0.75943
 Alpha  occ. eigenvalues --   -0.72664  -0.67503  -0.66057  -0.65660  -0.64909
 Alpha  occ. eigenvalues --   -0.61726  -0.58044  -0.54682  -0.53798  -0.53397
 Alpha  occ. eigenvalues --   -0.51296  -0.48411  -0.44939  -0.43521  -0.40872
 Alpha  occ. eigenvalues --   -0.39713  -0.39147  -0.38154  -0.37846  -0.36799
 Alpha  occ. eigenvalues --   -0.34628  -0.34155  -0.34142  -0.33113  -0.32443
 Alpha  occ. eigenvalues --   -0.31548  -0.31065  -0.30963  -0.29488  -0.28922
 Alpha  occ. eigenvalues --   -0.28104  -0.27952  -0.27777  -0.26871  -0.26506
 Alpha  occ. eigenvalues --   -0.25768  -0.25162  -0.24684  -0.24265  -0.23795
 Alpha  occ. eigenvalues --   -0.21876  -0.19750  -0.16650  -0.14517  -0.10780
 Alpha  occ. eigenvalues --    0.04019
 Alpha virt. eigenvalues --    0.05845   0.06260   0.06917   0.07322   0.07486
 Alpha virt. eigenvalues --    0.07704   0.08472   0.08817   0.09023   0.09381
 Alpha virt. eigenvalues --    0.09741   0.10241   0.11030   0.11430   0.11776

  Beta  occ. eigenvalues --  -14.23934 -14.19425 -10.12857 -10.10872 -10.10837
  Beta  occ. eigenvalues --  -10.09653 -10.08912 -10.08686 -10.08594 -10.07942
  Beta  occ. eigenvalues --  -10.07890 -10.07685 -10.07605 -10.07319 -10.06892
  Beta  occ. eigenvalues --  -10.06729 -10.06390  -0.85966  -0.79014  -0.75930
  Beta  occ. eigenvalues --   -0.72645  -0.67475  -0.66038  -0.65624  -0.64884
  Beta  occ. eigenvalues --   -0.61692  -0.58011  -0.54633  -0.53758  -0.53326
  Beta  occ. eigenvalues --   -0.51266  -0.48379  -0.44909  -0.43486  -0.40856
  Beta  occ. eigenvalues --   -0.39694  -0.39127  -0.38132  -0.37824  -0.36776
  Beta  occ. eigenvalues --   -0.34605  -0.34134  -0.34109  -0.33083  -0.32420
  Beta  occ. eigenvalues --   -0.31524  -0.31033  -0.30927  -0.29452  -0.28891
  Beta  occ. eigenvalues --   -0.28075  -0.27911  -0.27749  -0.26845  -0.26484
  Beta  occ. eigenvalues --   -0.25742  -0.25131  -0.24663  -0.24234  -0.23771
  Beta  occ. eigenvalues --   -0.21854  -0.19739  -0.16642  -0.14510  -0.10773
  Beta virt. eigenvalues --    0.05919   0.06463   0.06959   0.07330   0.07416
  Beta virt. eigenvalues --    0.07876   0.08155   0.08596   0.09152   0.09346
  Beta virt. eigenvalues --    0.09642   0.10143   0.10512   0.11333   0.11727

 Mulliken charges and spin densities:
               1          2
     1  C    1.467881  -2.160971
     2  C   -1.404977   1.007316
     3  C    0.845312  -0.394392
     4  C   -0.864235   0.713076
     5  C    1.065848  -1.746786
     6  C   -0.423106  -0.304385
     7  N   -0.231816  -0.030062
     8  C   -0.102567  -0.353372
     9  N    0.533939  -0.100230
    10  C   -1.140276   0.914901
    11  C    1.505387  -1.982805
    12  C   -0.576181   0.552617
    13  C   -0.178825   0.154034
    14  C    0.111739  -0.408192
    15  C    0.395596  -0.769822
    16  C    0.051783  -0.224874
    17  C   -0.518310   0.415819
    18  H   -0.000251   0.148974
    19  H   -0.468887   0.627853
    20  H   -0.223791   0.379615
    21  H   -0.073396   0.246978
    22  H    0.174916   0.012841
    23  H   -0.029095   0.170357
    24  H   -0.235506   0.393709
    25  H   -0.068897   0.202554
    26  H   -0.229994   0.383409
    27  H   -0.095551   0.233336
    28  H    0.001688   0.157671
    29  H    0.185703  -0.010723
    30  H    0.364660  -0.082076
    31  H    0.123578   0.103331
    32  H    0.431921  -0.229468
    33  H    0.057442   0.154024
    34  H   -0.474288   0.635178
    35  H   -0.096090   0.234515
    36  H    0.133780   0.003377
    37  H   -0.397482   0.551724
    38  H   -0.398753   0.542887
    39  H    0.017544   0.133996
    40  H   -0.306714   0.480147
    41  H    0.057053   0.072899
    42  H   -0.038743   0.211245
    43  H    0.051960  -0.040226
 Sum of Mulliken charges =  -1.00000   1.00000

 Dipole moment (field-independent basis, Debye):
    X=             -2.7733    Y=             -4.1311    Z=             -0.1723  Tot=              4.9786
 Quadrupole moment (field-independent basis, Debye-Ang):
   XX=           -191.6614   YY=           -172.3671   ZZ=           -147.0279
   XY=             -1.2448   XZ=              5.0181   YZ=              0.5679

 Summary of Natural Population Analysis:

                                       Natural Population
                Natural  -----------------------------------------------
    Atom  No    Charge         Core      Valence    Rydberg      Total
 -----------------------------------------------------------------------
      C    1   -0.28861      0.99966     2.28296    0.00599     3.28861
      C    2   -0.19978      0.99959     2.18885    0.01135     3.19978
      C    3   -0.04775      0.99953     2.03454    0.01368     3.04775
      C    4   -0.19330      0.99960     2.18312    0.01058     3.19330
      C    5   -0.28663      0.99966     2.28161    0.00536     3.28663
      C    6   -0.08743      0.99958     2.07602    0.01184     3.08743
      N    7   -0.41879      0.99977     2.91024    0.00877     3.91879
      C    8   -0.08350      0.99954     2.07056    0.01339     3.08350
      N    9   -0.25899      0.99965     2.74680    0.01254     3.75899
      C   10   -0.08602      0.99961     2.07493    0.01148     3.08602
      C   11   -0.29423      0.99965     2.28969    0.00489     3.29423
      C   12    0.09513      0.99948     1.89447    0.01092     2.90487
      C   13   -0.13085      0.99953     2.12214    0.00917     3.13085
      C   14   -0.09222      0.99957     2.08237    0.01028     3.09222
      C   15   -0.12958      0.99956     2.12011    0.00992     3.12958
      C   16   -0.09073      0.99957     2.08185    0.00931     3.09073
      C   17   -0.13539      0.99953     2.12719    0.00867     3.13539
      H   18    0.09895      0.00000     0.39984    0.00121     0.40105
      H   19    0.10250      0.00000     0.39645    0.00106     0.39750
      H   20    0.09674      0.00000     0.40174    0.00152     0.40326
      H   21    0.09867      0.00000     0.40020    0.00113     0.40133
      H   22    0.09961      0.00000     0.39880    0.00159     0.40039
      H   23    0.09692      0.00000     0.40186    0.00122     0.40308
      H   24    0.10068      0.00000     0.39804    0.00128     0.39932
      H   25    0.09550      0.00000     0.40348    0.00102     0.40450
      H   26    0.10112      0.00000     0.39802    0.00086     0.39888
      H   27    0.09869      0.00000     0.40031    0.00100     0.40131
      H   28    0.08889      0.00000     0.40985    0.00126     0.41111
      H   29    0.09227      0.00000     0.40652    0.00121     0.40773
      H   30    0.18020      0.00000     0.31741    0.00239     0.31980
      H   31    0.17030      0.00000     0.32752    0.00217     0.32970
      H   32    0.10083      0.00000     0.39764    0.00152     0.39917
      H   33    0.10042      0.00000     0.39784    0.00173     0.39958
      H   34    0.09631      0.00000     0.40192    0.00177     0.40369
      H   35    0.10193      0.00000     0.39617    0.00190     0.39807
      H   36    0.10059      0.00000     0.39823    0.00118     0.39941
      H   37    0.10310      0.00000     0.39549    0.00141     0.39690
      H   38    0.09889      0.00000     0.39999    0.00112     0.40111
      H   39    0.10486      0.00000     0.39352    0.00162     0.39514
      H   40    0.09989      0.00000     0.39925    0.00086     0.40011
      H   41    0.09900      0.00000     0.40028    0.00073     0.40100
      H   42    0.09890      0.00000     0.40031    0.00079     0.40110
      H   43    0.10290      0.00000     0.39540    0.00170     0.39710
 =======================================================================
   * Total *    0.00000     16.99307    47.80353    0.20340    65.00000

 Normal termination of Gaussian 16 at Fri Dec 11 13:35:06 2020.
