 Gaussian 16, Revision A.03,

 -----------------------------------------------------------
 # opt freq B3LYP/6-31G(d) empiricaldispersion=gd3bj scf=xqc
 -----------------------------------------------------------

 ------------------------------
 CID_61939468_JID_2333_neutraal
 ------------------------------
 Symbolic Z-matrix:
 Charge =  0 Multiplicity = 1

 SCF Done:  E(RB3LYP) =  -539.773753090     A.U. after   14 cycles
 SCF Done:  E(RB3LYP) =  -539.776558140     A.U. after   11 cycles
 SCF Done:  E(RB3LYP) =  -539.776843631     A.U. after   11 cycles
 SCF Done:  E(RB3LYP) =  -539.777134627     A.U. after   11 cycles
 SCF Done:  E(RB3LYP) =  -539.777249700     A.U. after   10 cycles
 SCF Done:  E(RB3LYP) =  -539.777263459     A.U. after   10 cycles
 SCF Done:  E(RB3LYP) =  -539.777286499     A.U. after    9 cycles
 SCF Done:  E(RB3LYP) =  -539.777299709     A.U. after    9 cycles
 SCF Done:  E(RB3LYP) =  -539.777311557     A.U. after   10 cycles
 SCF Done:  E(RB3LYP) =  -539.777314942     A.U. after    9 cycles
 SCF Done:  E(RB3LYP) =  -539.778753348     A.U. after    9 cycles
 SCF Done:  E(RB3LYP) =  -539.778753756     A.U. after    7 cycles
 SCF Done:  E(RB3LYP) =  -539.778754055     A.U. after    7 cycles
 SCF Done:  E(RB3LYP) =  -539.778754186     A.U. after    7 cycles
 SCF Done:  E(RB3LYP) =  -539.778754248     A.U. after    6 cycles
 SCF Done:  E(RB3LYP) =  -539.778754294     A.U. after    6 cycles
 Optimization completed.
    -- Stationary point found.
 Normal termination of Gaussian 16 at Wed Dec  9 17:19:11 2020.

 --------------------------------------------------------------------
 #N Geom=AllCheck Guess=TCheck SCRF=Check GenChk RB3LYP/6-31G(d) Freq
 --------------------------------------------------------------------

 Structure from the checkpoint file:  "JID_2333.chk"
 ------------------------------
 CID_61939468_JID_2333_neutraal
 ------------------------------
 Charge =  0 Multiplicity = 1

 SCF Done:  E(RB3LYP) =  -539.778754294     A.U. after    1 cycles

  Exact polarizability: 138.092  -1.980 104.136  -6.327  -3.715  94.776
 Approx polarizability: 162.991   4.054 151.042 -12.787  -8.788 144.902

                      1                      2                      3
                      A                      A                      A
 Frequencies --     17.9254                24.2478                45.2986
 Red. masses --      3.3409                 3.1612                 4.6632
 Frc consts  --      0.0006                 0.0011                 0.0056
 IR Inten    --      0.3589                 0.2228                 1.7467

                      4                      5                      6
                      A                      A                      A
 Frequencies --     60.2748                76.1825                94.4167
 Red. masses --      2.8584                 3.0909                 2.5520
 Frc consts  --      0.0061                 0.0106                 0.0134
 IR Inten    --      0.6428                 0.4411                 0.3685

                      7                      8                      9
                      A                      A                      A
 Frequencies --    165.7295               201.8850               231.5083
 Red. masses --      2.4328                 3.9001                 1.1511
 Frc consts  --      0.0394                 0.0937                 0.0363
 IR Inten    --      1.0714                 0.6003                 0.5576

                     10                     11                     12
                      A                      A                      A
 Frequencies --    260.6844               265.9170               293.0404
 Red. masses --      1.5773                 1.7661                 1.1907
 Frc consts  --      0.0632                 0.0736                 0.0602
 IR Inten    --      1.6670                 1.3796                 1.4247

                     13                     14                     15
                      A                      A                      A
 Frequencies --    302.9195               329.5927               351.1286
 Red. masses --      1.7035                 2.4840                 2.2270
 Frc consts  --      0.0921                 0.1590                 0.1618
 IR Inten    --      1.1924                 3.2320                 6.4589

                     16                     17                     18
                      A                      A                      A
 Frequencies --    384.8701               436.5466               460.0427
 Red. masses --      2.0151                 2.0125                 1.9618
 Frc consts  --      0.1759                 0.2260                 0.2446
 IR Inten    --      2.4402                 0.2656                 0.8683

                     19                     20                     21
                      A                      A                      A
 Frequencies --    500.2840               503.1709               555.9090
 Red. masses --      2.3101                 3.0734                 1.8150
 Frc consts  --      0.3407                 0.4585                 0.3305
 IR Inten    --      2.8144                 8.0051                51.9870

                     22                     23                     24
                      A                      A                      A
 Frequencies --    611.5001               695.9011               743.6937
 Red. masses --      2.0064                 2.3421                 2.0013
 Frc consts  --      0.4420                 0.6683                 0.6522
 IR Inten    --     29.5913                38.7527                17.9431

                     25                     26                     27
                      A                      A                      A
 Frequencies --    788.8795               810.8997               842.8181
 Red. masses --      3.1066                 1.2665                 2.6138
 Frc consts  --      1.1391                 0.4907                 1.0939
 IR Inten    --      2.6837                 1.9194                11.1491

                     28                     29                     30
                      A                      A                      A
 Frequencies --    849.0002               961.2452               970.2220
 Red. masses --      2.6309                 1.8930                 1.9446
 Frc consts  --      1.1173                 1.0306                 1.0785
 IR Inten    --     10.1177                 7.8529                 9.0999

                     31                     32                     33
                      A                      A                      A
 Frequencies --    990.7295              1011.0179              1061.1056
 Red. masses --      1.7841                 2.1845                 1.9097
 Frc consts  --      1.0318                 1.3156                 1.2669
 IR Inten    --      4.6542                 2.1535                14.8819

                     34                     35                     36
                      A                      A                      A
 Frequencies --   1076.7257              1094.8595              1102.9176
 Red. masses --      1.6225                 1.7445                 1.9321
 Frc consts  --      1.1083                 1.2321                 1.3848
 IR Inten    --     18.5960                32.6399                12.0532

                     37                     38                     39
                      A                      A                      A
 Frequencies --   1105.0287              1121.4066              1137.3184
 Red. masses --      2.2282                 1.7524                 1.3162
 Frc consts  --      1.6031                 1.2984                 1.0031
 IR Inten    --      1.2674                 7.9647                 4.9324

                     40                     41                     42
                      A                      A                      A
 Frequencies --   1151.6980              1194.0126              1210.9927
 Red. masses --      2.2508                 1.5571                 1.3957
 Frc consts  --      1.7590                 1.3080                 1.2060
 IR Inten    --     12.1874                 6.8680                 4.3705

                     43                     44                     45
                      A                      A                      A
 Frequencies --   1247.3729              1260.6889              1287.4101
 Red. masses --      1.4646                 1.6412                 1.3068
 Frc consts  --      1.3426                 1.5368                 1.2761
 IR Inten    --      8.4193                34.9992                34.0672

                     46                     47                     48
                      A                      A                      A
 Frequencies --   1316.8406              1319.1776              1330.7802
 Red. masses --      1.5928                 1.8567                 1.4274
 Frc consts  --      1.6273                 1.9037                 1.4894
 IR Inten    --     33.2185                 2.4997                49.8315

                     49                     50                     51
                      A                      A                      A
 Frequencies --   1361.3856              1385.4497              1404.7592
 Red. masses --      1.2243                 1.3260                 1.4681
 Frc consts  --      1.3369                 1.4996                 1.7069
 IR Inten    --      9.1823                25.6401                12.7513

                     52                     53                     54
                      A                      A                      A
 Frequencies --   1411.3981              1430.7237              1437.1498
 Red. masses --      1.4664                 1.2415                 1.4023
 Frc consts  --      1.7210                 1.4973                 1.7064
 IR Inten    --     22.8306                 4.4287                 4.0913

                     55                     56                     57
                      A                      A                      A
 Frequencies --   1440.5143              1467.3951              1490.2701
 Red. masses --      1.5399                 1.1627                 1.6357
 Frc consts  --      1.8827                 1.4751                 2.1403
 IR Inten    --     57.3948                 2.4558                59.2881

                     58                     59                     60
                      A                      A                      A
 Frequencies --   1500.0909              1510.5692              1513.6378
 Red. masses --      1.2091                 1.0943                 1.0841
 Frc consts  --      1.6030                 1.4712                 1.4634
 IR Inten    --      6.0640                 2.1233                 6.5311

                     61                     62                     63
                      A                      A                      A
 Frequencies --   1514.0578              1517.3570              1525.6855
 Red. masses --      1.0618                 1.0668                 1.0866
 Frc consts  --      1.4341                 1.4471                 1.4903
 IR Inten    --     19.6440                 3.0697                 6.7855

                     64                     65                     66
                      A                      A                      A
 Frequencies --   1526.9970              1531.1192              1532.0339
 Red. masses --      1.0610                 1.0855                 1.0642
 Frc consts  --      1.4576                 1.4993                 1.4717
 IR Inten    --      3.3908                10.6993                 7.7363

                     67                     68                     69
                      A                      A                      A
 Frequencies --   1538.3275              1540.7037              1543.2776
 Red. masses --      1.0842                 1.0747                 1.0579
 Frc consts  --      1.5116                 1.5030                 1.4845
 IR Inten    --     18.6093                14.0521                11.0173

                     70                     71                     72
                      A                      A                      A
 Frequencies --   1783.9586              2891.2187              2918.8766
 Red. masses --      7.8468                 1.0734                 1.0625
 Frc consts  --     14.7134                 5.2864                 5.3332
 IR Inten    --    344.1016                64.3848                51.7827

                     73                     74                     75
                      A                      A                      A
 Frequencies --   2934.4571              3049.0701              3055.3080
 Red. masses --      1.0632                 1.0610                 1.0542
 Frc consts  --      5.3943                 5.8118                 5.7980
 IR Inten    --    143.2043                14.9210                 1.6372

                     76                     77                     78
                      A                      A                      A
 Frequencies --   3055.5668              3066.5180              3070.5160
 Red. masses --      1.0522                 1.0634                 1.0701
 Frc consts  --      5.7879                 5.8916                 5.9441
 IR Inten    --     31.3856                 3.2652                37.0850

                     79                     80                     81
                      A                      A                      A
 Frequencies --   3073.3481              3077.9721              3089.1465
 Red. masses --      1.0758                 1.0702                 1.0899
 Frc consts  --      5.9868                 5.9735                 6.1280
 IR Inten    --      5.9049                49.9430                45.5994

                     82                     83                     84
                      A                      A                      A
 Frequencies --   3091.0389              3097.8015              3108.9767
 Red. masses --      1.0779                 1.1012                 1.1030
 Frc consts  --      6.0680                 6.2264                 6.2817
 IR Inten    --     21.9602                47.7400                43.8260

                     85                     86                     87
                      A                      A                      A
 Frequencies --   3116.8493              3122.4588              3124.3174
 Red. masses --      1.0971                 1.1040                 1.1020
 Frc consts  --      6.2793                 6.3415                 6.3379
 IR Inten    --     44.6126                36.2589                24.0218

                     88                     89                     90
                      A                      A                      A
 Frequencies --   3136.7831              3152.9711              3593.0062
 Red. masses --      1.1013                 1.1018                 1.0759
 Frc consts  --      6.3843                 6.4534                 8.1835
 IR Inten    --     32.5726                21.8986                14.0802

 - Thermochemistry -
 -------------------
 Temperature   298.150 Kelvin.  Pressure   1.00000 Atm.
 Atom     1 has atomic number  6 and mass  12.00000

 Molecular mass:   172.15756 amu.
 Principal axes and moments of inertia in atomic units:
                           1         2         3
     Eigenvalues --   888.705125411.667175692.63118
           X            0.99984  -0.01721  -0.00399
           Y            0.01725   0.99980   0.00986
           Z            0.00382  -0.00993   0.99994
 This molecule is an asymmetric top.
 Rotational symmetry number  1.
 Warning -- assumption of classical behavior for rotation
           may cause significant error
 Rotational temperatures (Kelvin)      0.09746     0.01601     0.01522
 Rotational constants (GHZ):           2.03075     0.33349     0.31703
 Zero-point vibrational energy     769132.3 (Joules/Mol)
                                  183.82703 (Kcal/Mol)
 Warning -- explicit consideration of  22 degrees of freedom as
           vibrations may cause significant error
 Vibrational temperatures:     25.79    34.89    65.17    86.72   109.61
          (Kelvin)            135.84   238.45   290.47   333.09   375.07
                              382.60   421.62   435.83   474.21   505.20
                              553.74   628.09   661.90   719.80   723.95
                              799.83   879.81  1001.25  1070.01  1135.02
                             1166.70  1212.63  1221.52  1383.02  1395.93
                             1425.44  1454.63  1526.69  1549.17  1575.26
                             1586.85  1589.89  1613.45  1636.35  1657.04
                             1717.92  1742.35  1794.69  1813.85  1852.30
                             1894.64  1898.00  1914.70  1958.73  1993.35
                             2021.14  2030.69  2058.49  2067.74  2072.58
                             2111.25  2144.17  2158.30  2173.37  2177.79
                             2178.39  2183.14  2195.12  2197.01  2202.94
                             2204.26  2213.31  2216.73  2220.43  2566.72
                             4159.82  4199.61  4222.03  4386.93  4395.91
                             4396.28  4412.04  4417.79  4421.86  4428.52
                             4444.59  4447.32  4457.05  4473.12  4484.45
                             4492.52  4495.20  4513.13  4536.42  5169.53

 Zero-point correction=                           0.292947 (Hartree/Particle)
 Thermal correction to Energy=                    0.307684
 Thermal correction to Enthalpy=                  0.308628
 Thermal correction to Gibbs Free Energy=         0.248853
 Sum of electronic and zero-point Energies=           -539.485807
 Sum of electronic and thermal Energies=              -539.471070
 Sum of electronic and thermal Enthalpies=            -539.470126
 Sum of electronic and thermal Free Energies=         -539.529902

                     E (Thermal)             CV                S
                      KCal/Mol        Cal/Mol-Kelvin    Cal/Mol-Kelvin
 Total                  193.075             53.086            125.808
 Electronic               0.000              0.000              0.000
 Translational            0.889              2.981             41.337
 Rotational               0.889              2.981             31.682
 Vibrational            191.297             47.124             52.788
 Vibration     1          0.593              1.986              6.852
 Vibration     2          0.593              1.985              6.252
 Vibration     3          0.595              1.979              5.013
 Vibration     4          0.597              1.973              4.448
 Vibration     5          0.599              1.965              3.987
 Vibration     6          0.603              1.953              3.566
 Vibration     7          0.624              1.885              2.483
 Vibration     8          0.639              1.837              2.116
 Vibration     9          0.653              1.793              1.867
 Vibration    10          0.669              1.745              1.657
 Vibration    11          0.672              1.736              1.623
 Vibration    12          0.688              1.687              1.456
 Vibration    13          0.694              1.668              1.401
 Vibration    14          0.712              1.616              1.262
 Vibration    15          0.728              1.573              1.161
 Vibration    16          0.754              1.502              1.020
 Vibration    17          0.797              1.391              0.838
 Vibration    18          0.818              1.339              0.766
 Vibration    19          0.856              1.249              0.657
 Vibration    20          0.858              1.243              0.650
 Vibration    21          0.911              1.127              0.532
 Vibration    22          0.971              1.007              0.430

 Optimization completed.
    -- Stationary point found.
 Normal termination of Gaussian 16 at Wed Dec  9 17:25:59 2020.

 ----------------------------------------------------------------------
 # B3LYP/6-311++G(d,p) empiricaldispersion=gd3bj scf=xqc pop=npa geom=c
 heck
 ----------------------------------------------------------------------

 --------------------------------------
 CID_61939468_JID_2333_Energie_neutraal
 --------------------------------------
 Structure from the checkpoint file:  "JID_2333.chk"
 Charge =  0 Multiplicity = 1

 SCF Done:  E(RB3LYP) =  -539.940250573     A.U. after   13 cycles
 Normal termination of Gaussian 16 at Wed Dec  9 17:28:39 2020.

 ----------------------------------------------------------------------
 # B3LYP/6-311++G(d,p) empiricaldispersion=gd3bj scf=xqc pop=npa geom=c
 heck
 ----------------------------------------------------------------------

 ------------------------------------
 CID_61939468_JID_2333_Energie_kation
 ------------------------------------
 Structure from the checkpoint file:  "JID_2333.chk"
 Charge =  1 Multiplicity = 2

 SCF Done:  E(UB3LYP) =  -539.642401900     A.U. after   26 cycles
 Normal termination of Gaussian 16 at Wed Dec  9 17:36:41 2020.
 Gaussian 16:  ES64L-G16RevA.03 25-Dec-2016

 ----------------------------------------------------------------------
 # B3LYP/6-311++G(d,p) empiricaldispersion=gd3bj scf=xqc pop=npa geom=c
 heck
 ----------------------------------------------------------------------

 -----------------------------------
 CID_61939468_JID_2333_Energie_anion
 -----------------------------------
 Structure from the checkpoint file:  "JID_2333.chk"
 Charge = -1 Multiplicity = 2

                         Standard orientation:
 ---------------------------------------------------------------------
 Center     Atomic      Atomic             Coordinates (Angstroms)
 Number     Number       Type             X           Y           Z
 ---------------------------------------------------------------------
      1          6           0       -3.714083    1.370551    0.919746
      2          6           0       -3.390475    0.643415   -0.391498
      3          6           0       -2.777020   -0.722693   -0.104793
      4          8           0       -3.366519   -1.541149    0.592444
      5          7           0       -1.560222   -1.023064   -0.661392
      6          6           0       -0.620098   -0.133486   -1.332970
      7          6           0        0.110906    0.843990   -0.397397
      8          6           0        0.891311    0.158429    0.734287
      9          6           0        2.138109   -0.638817    0.304881
     10          7           0        3.394237    0.085113    0.495960
     11          6           0        4.532369   -0.787404    0.249288
     12          6           0        3.485526    1.292026   -0.310583
     13          1           0       -4.329097    0.728617    1.555399
     14          1           0       -4.254175    2.302930    0.726629
     15          1           0       -2.798615    1.615870    1.470849
     16          1           0       -4.319695    0.454194   -0.942168
     17          1           0       -2.757894    1.264605   -1.030699
     18          1           0       -1.221269   -1.932596   -0.372673
     19          1           0        0.103738   -0.774426   -1.846071
     20          1           0       -1.141286    0.423681   -2.118231
     21          1           0        0.774965    1.463050   -1.012892
     22          1           0       -0.628819    1.523573    0.044362
     23          1           0        1.205703    0.900364    1.476973
     24          1           0        0.200033   -0.512648    1.257649
     25          1           0        2.208528   -1.549576    0.910218
     26          1           0        2.033311   -0.978243   -0.748110
     27          1           0        4.582113   -1.155846   -0.795242
     28          1           0        5.462157   -0.249264    0.461830
     29          1           0        4.481976   -1.657486    0.912634
     30          1           0        3.398454    1.095938   -1.399092
     31          1           0        2.703120    2.000929   -0.027540
     32          1           0        4.451520    1.775114   -0.131120
 ---------------------------------------------------------------------

 SCF Done:  E(UB3LYP) =  -539.928213370     A.U. after   32 cycles

 The electronic state is 2-A.
 Alpha  occ. eigenvalues --  -18.99140 -14.24168 -14.20913 -10.17760 -10.11421
 Alpha  occ. eigenvalues --  -10.09567 -10.08853 -10.08650 -10.08584 -10.07515
 Alpha  occ. eigenvalues --  -10.07467 -10.07253  -0.94298  -0.82968  -0.82685
 Alpha  occ. eigenvalues --   -0.69751  -0.68551  -0.63233  -0.60947  -0.57592
 Alpha  occ. eigenvalues --   -0.56107  -0.51445  -0.48002  -0.46396  -0.40579
 Alpha  occ. eigenvalues --   -0.40305  -0.39173  -0.37969  -0.36264  -0.35674
 Alpha  occ. eigenvalues --   -0.34706  -0.33926  -0.32625  -0.31252  -0.30153
 Alpha  occ. eigenvalues --   -0.29609  -0.28612  -0.28449  -0.27549  -0.27255
 Alpha  occ. eigenvalues --   -0.26693  -0.25915  -0.24734  -0.23663  -0.23293
 Alpha  occ. eigenvalues --   -0.16546  -0.16018  -0.12349   0.04200
 Alpha virt. eigenvalues --    0.06040   0.07095   0.07248   0.08070   0.08747
 Alpha virt. eigenvalues --    0.08940   0.10068   0.10200   0.10443   0.10760
 Alpha virt. eigenvalues --    0.11415   0.11452   0.12510   0.12796   0.13499

  Beta  occ. eigenvalues --  -18.99138 -14.24158 -14.20896 -10.17760 -10.11392
  Beta  occ. eigenvalues --  -10.09547 -10.08822 -10.08615 -10.08560 -10.07494
  Beta  occ. eigenvalues --  -10.07449 -10.07246  -0.94292  -0.82941  -0.82656
  Beta  occ. eigenvalues --   -0.69718  -0.68519  -0.63190  -0.60889  -0.57541
  Beta  occ. eigenvalues --   -0.56055  -0.51383  -0.47936  -0.46347  -0.40535
  Beta  occ. eigenvalues --   -0.40263  -0.39136  -0.37928  -0.36237  -0.35630
  Beta  occ. eigenvalues --   -0.34661  -0.33895  -0.32606  -0.31228  -0.30107
  Beta  occ. eigenvalues --   -0.29575  -0.28579  -0.28411  -0.27519  -0.27217
  Beta  occ. eigenvalues --   -0.26655  -0.25887  -0.24707  -0.23627  -0.23260
  Beta  occ. eigenvalues --   -0.16531  -0.15997  -0.12262
  Beta virt. eigenvalues --    0.06403   0.06815   0.07748   0.08010   0.08428
  Beta virt. eigenvalues --    0.09343   0.09403   0.10414   0.10563   0.10707
  Beta virt. eigenvalues --    0.11082   0.11682   0.11798   0.12944   0.13062

 Mulliken charges and spin densities:
               1          2
     1  C    0.105489  -0.654782
     2  C    0.272473  -0.266487
     3  C   -0.153302   0.075263
     4  O   -0.358359   0.011665
     5  N   -0.226199   0.097055
     6  C    1.093695  -1.717275
     7  C   -0.022448   0.358784
     8  C   -1.104263   0.413140
     9  C    0.387716  -0.832441
    10  N   -0.150732   0.283223
    11  C    0.748266  -1.010331
    12  C    0.598068  -1.021465
    13  H    0.149352   0.012137
    14  H   -0.187728   0.328148
    15  H   -0.011920   0.141732
    16  H   -0.091777   0.274014
    17  H   -0.144629   0.275342
    18  H    0.124623   0.178933
    19  H   -0.298753   0.467905
    20  H   -0.507616   0.717641
    21  H   -0.103634   0.243181
    22  H   -0.164681   0.296536
    23  H    0.079390   0.114369
    24  H    0.132789   0.037190
    25  H   -0.040749   0.203855
    26  H    0.251364  -0.167355
    27  H   -0.315048   0.426359
    28  H   -0.146139   0.275756
    29  H   -0.237486   0.356899
    30  H   -0.220537   0.343967
    31  H   -0.342068   0.484160
    32  H   -0.115158   0.252882
 Sum of Mulliken charges =  -1.00000   1.00000

 Dipole moment (field-independent basis, Debye):
    X=             -2.0791    Y=             -0.6353    Z=              2.2503  Tot=              3.1289
 Quadrupole moment (field-independent basis, Debye-Ang):
   XX=           -169.6167   YY=           -119.7854   ZZ=           -115.0308
   XY=             -1.8650   XZ=              2.2496   YZ=              4.9941

 Summary of Natural Population Analysis:

                                       Natural Population
                Natural  -----------------------------------------------
    Atom  No    Charge         Core      Valence    Rydberg      Total
 -----------------------------------------------------------------------
      C    1   -0.28354      0.99966     2.27765    0.00622     3.28354
      C    2   -0.23398      0.99960     2.22640    0.00798     3.23398
      C    3    0.34569      0.99967     1.63239    0.02226     2.65431
      O    4   -0.33160      0.99988     3.32598    0.00575     4.33160
      N    5   -0.31872      0.99967     2.80861    0.01043     3.81872
      C    6   -0.09149      0.99961     2.08022    0.01166     3.09149
      C    7   -0.19635      0.99962     2.18825    0.00849     3.19635
      C    8   -0.20197      0.99962     2.19456    0.00779     3.20197
      C    9   -0.08443      0.99961     2.07347    0.01136     3.08443
      N   10   -0.27598      0.99973     2.76302    0.01322     3.77598
      C   11   -0.17659      0.99965     2.16805    0.00889     3.17659
      C   12   -0.18029      0.99964     2.17121    0.00943     3.18029
      H   13    0.10501      0.00000     0.39399    0.00100     0.39499
      H   14    0.09863      0.00000     0.40046    0.00090     0.40137
      H   15    0.09672      0.00000     0.40227    0.00101     0.40328
      H   16    0.10887      0.00000     0.39004    0.00108     0.39113
      H   17    0.10276      0.00000     0.39549    0.00174     0.39724
      H   18    0.19346      0.00000     0.30415    0.00240     0.30654
      H   19    0.10132      0.00000     0.39696    0.00172     0.39868
      H   20    0.10034      0.00000     0.39778    0.00187     0.39966
      H   21    0.10245      0.00000     0.39573    0.00181     0.39755
      H   22    0.09745      0.00000     0.40101    0.00154     0.40255
      H   23    0.10495      0.00000     0.39359    0.00146     0.39505
      H   24    0.09995      0.00000     0.39869    0.00137     0.40005
      H   25    0.09565      0.00000     0.40295    0.00140     0.40435
      H   26    0.07769      0.00000     0.42029    0.00203     0.42231
      H   27    0.08100      0.00000     0.41739    0.00161     0.41900
      H   28    0.09492      0.00000     0.40387    0.00121     0.40508
      H   29    0.09470      0.00000     0.40399    0.00131     0.40530
      H   30    0.08177      0.00000     0.41649    0.00174     0.41823
      H   31    0.09550      0.00000     0.40286    0.00165     0.40450
      H   32    0.09608      0.00000     0.40270    0.00122     0.40392
 =======================================================================
   * Total *    0.00000     11.99595    35.85051    0.15354    48.00000

 Normal termination of Gaussian 16 at Wed Dec  9 17:46:49 2020.
