 Gaussian 16, Revision A.03,

 -----------------------------------------------------------
 # opt freq B3LYP/6-31G(d) empiricaldispersion=gd3bj scf=xqc
 -----------------------------------------------------------

 -------------------------------
 CID_113996844_JID_8940_neutraal
 -------------------------------
 Symbolic Z-matrix:
 Charge =  0 Multiplicity = 1

 SCF Done:  E(RB3LYP) =  -1165.57950108     A.U. after   14 cycles
 SCF Done:  E(RB3LYP) =  -1165.58007373     A.U. after   13 cycles
 SCF Done:  E(RB3LYP) =  -1165.58075992     A.U. after   13 cycles
 SCF Done:  E(RB3LYP) =  -1165.58375875     A.U. after   13 cycles
 SCF Done:  E(RB3LYP) =  -1165.58350631     A.U. after   13 cycles
 SCF Done:  E(RB3LYP) =  -1165.58556224     A.U. after   12 cycles
 SCF Done:  E(RB3LYP) =  -1165.58552220     A.U. after   12 cycles
 SCF Done:  E(RB3LYP) =  -1165.58572659     A.U. after   11 cycles
 SCF Done:  E(RB3LYP) =  -1165.58573596     A.U. after   10 cycles
 SCF Done:  E(RB3LYP) =  -1165.58574195     A.U. after    9 cycles
 SCF Done:  E(RB3LYP) =  -1165.58574297     A.U. after    8 cycles
 SCF Done:  E(RB3LYP) =  -1165.58574330     A.U. after    8 cycles
 SCF Done:  E(RB3LYP) =  -1165.58574340     A.U. after    8 cycles
 SCF Done:  E(RB3LYP) =  -1165.58574342     A.U. after    7 cycles
 Optimization completed.
    -- Stationary point found.
 Normal termination of Gaussian 16 at Fri Dec 11 23:06:22 2020.

 --------------------------------------------------------------------
 #N Geom=AllCheck Guess=TCheck SCRF=Check GenChk RB3LYP/6-31G(d) Freq
 --------------------------------------------------------------------

 Structure from the checkpoint file:  "JID_8940.chk"
 -------------------------------
 CID_113996844_JID_8940_neutraal
 -------------------------------
 Charge =  0 Multiplicity = 1

 SCF Done:  E(RB3LYP) =  -1165.58574342     A.U. after    1 cycles

  Exact polarizability: 218.668 -10.271 181.119   2.404  26.280 137.468
 Approx polarizability: 327.458 -21.054 275.097   6.898  58.753 217.543

                      1                      2                      3
                      A                      A                      A
 Frequencies --     25.6354                35.2999                52.4527
 Red. masses --      4.0002                 3.8764                 3.2465
 Frc consts  --      0.0015                 0.0028                 0.0053
 IR Inten    --      0.7729                 0.3654                 0.1722

                      4                      5                      6
                      A                      A                      A
 Frequencies --     54.8959                79.3202                84.9695
 Red. masses --      3.8202                 3.5004                 3.5464
 Frc consts  --      0.0068                 0.0130                 0.0151
 IR Inten    --      0.9245                 0.1100                 0.3682

                      7                      8                      9
                      A                      A                      A
 Frequencies --    119.4767               124.3263               154.9797
 Red. masses --      4.1272                 3.5607                 5.4813
 Frc consts  --      0.0347                 0.0324                 0.0776
 IR Inten    --      1.9698                 0.0717                 0.7294

                     10                     11                     12
                      A                      A                      A
 Frequencies --    200.1917               206.2614               220.8411
 Red. masses --      2.5326                 2.3993                 1.9631
 Frc consts  --      0.0598                 0.0601                 0.0564
 IR Inten    --      0.9536                 0.8608                 2.6635

                     13                     14                     15
                      A                      A                      A
 Frequencies --    223.1363               240.5883               267.9083
 Red. masses --      2.3143                 1.2409                 3.0764
 Frc consts  --      0.0679                 0.0423                 0.1301
 IR Inten    --      3.8372                 0.3439                 3.7007

                     16                     17                     18
                      A                      A                      A
 Frequencies --    277.1923               285.5183               310.4634
 Red. masses --      1.8847                 2.2805                 1.6857
 Frc consts  --      0.0853                 0.1095                 0.0957
 IR Inten    --      1.9669                 3.3194                73.3710

                     19                     20                     21
                      A                      A                      A
 Frequencies --    319.4433               325.1937               370.9281
 Red. masses --      2.3527                 2.6756                 3.4649
 Frc consts  --      0.1414                 0.1667                 0.2809
 IR Inten    --      9.1812                26.7166                15.2625

                     22                     23                     24
                      A                      A                      A
 Frequencies --    385.2138               392.5278               419.6035
 Red. masses --      2.1911                 3.1310                 3.5422
 Frc consts  --      0.1916                 0.2842                 0.3675
 IR Inten    --      2.2198                14.5050                 1.6614

                     25                     26                     27
                      A                      A                      A
 Frequencies --    423.3721               455.9381               472.7199
 Red. masses --      2.6565                 3.4582                 1.8646
 Frc consts  --      0.2805                 0.4236                 0.2455
 IR Inten    --      0.0899                 2.2090                19.0233

                     28                     29                     30
                      A                      A                      A
 Frequencies --    491.6500               501.2486               534.1707
 Red. masses --      2.2038                 2.2331                 4.1949
 Frc consts  --      0.3139                 0.3306                 0.7052
 IR Inten    --      5.1598                13.5528                 5.1022

                     31                     32                     33
                      A                      A                      A
 Frequencies --    605.1612               617.9036               646.9590
 Red. masses --      3.7948                 5.5208                 4.0072
 Frc consts  --      0.8188                 1.2419                 0.9882
 IR Inten    --      1.0432                37.4687                23.0841

                     34                     35                     36
                      A                      A                      A
 Frequencies --    654.6424               696.8267               714.2955
 Red. masses --      2.0588                 6.8915                 2.4899
 Frc consts  --      0.5198                 1.9716                 0.7485
 IR Inten    --     53.0383                 0.5224               116.5723

                     37                     38                     39
                      A                      A                      A
 Frequencies --    751.0913               764.3975               805.3601
 Red. masses --      3.2378                 2.5396                 3.5632
 Frc consts  --      1.0762                 0.8743                 1.3617
 IR Inten    --     66.1793                 2.6232                21.2004

                     40                     41                     42
                      A                      A                      A
 Frequencies --    848.8128               859.6935               884.0375
 Red. masses --      1.4161                 1.5523                 1.5608
 Frc consts  --      0.6011                 0.6759                 0.7187
 IR Inten    --      5.7313                36.0606                 4.9729

                     43                     44                     45
                      A                      A                      A
 Frequencies --    902.5434               910.1196               943.6629
 Red. masses --      3.1361                 2.8670                 1.2166
 Frc consts  --      1.5052                 1.3992                 0.6383
 IR Inten    --     24.7009                 4.3928                 3.7295

                     46                     47                     48
                      A                      A                      A
 Frequencies --    963.0038               974.6284               982.6840
 Red. masses --      6.2199                 1.4685                 1.4329
 Frc consts  --      3.3985                 0.8218                 0.8153
 IR Inten    --    136.1929                 1.9478                11.4061

                     49                     50                     51
                      A                      A                      A
 Frequencies --    984.0942              1043.5884              1062.9225
 Red. masses --      1.7226                 2.1042                 3.6375
 Frc consts  --      0.9829                 1.3502                 2.4214
 IR Inten    --      1.0843                 2.0557                10.9704

                     52                     53                     54
                      A                      A                      A
 Frequencies --   1083.6774              1125.1882              1133.4350
 Red. masses --      7.5344                 1.6347                 1.9682
 Frc consts  --      5.2132                 1.2194                 1.4898
 IR Inten    --     51.4846                13.2131                38.8959

                     55                     56                     57
                      A                      A                      A
 Frequencies --   1149.3267              1171.6362              1186.4817
 Red. masses --      1.8309                 1.3998                 1.2716
 Frc consts  --      1.4250                 1.1322                 1.0547
 IR Inten    --      0.8060                 5.9346                 0.6843

                     58                     59                     60
                      A                      A                      A
 Frequencies --   1193.2040              1206.5552              1222.2309
 Red. masses --      1.6075                 1.7194                 1.3766
 Frc consts  --      1.3484                 1.4748                 1.2116
 IR Inten    --     22.4105                 4.3594                 1.9839

                     61                     62                     63
                      A                      A                      A
 Frequencies --   1233.3238              1279.0441              1283.0533
 Red. masses --      1.3452                 1.6359                 1.8415
 Frc consts  --      1.2055                 1.5768                 1.7862
 IR Inten    --      2.2123                52.2968                60.2395

                     64                     65                     66
                      A                      A                      A
 Frequencies --   1312.0493              1336.5397              1352.3726
 Red. masses --      2.1445                 1.2648                 4.2549
 Frc consts  --      2.1751                 1.3312                 4.5849
 IR Inten    --     61.7379                32.1171               173.7418

                     67                     68                     69
                      A                      A                      A
 Frequencies --   1357.6638              1360.7253              1393.9889
 Red. masses --      1.2664                 1.7730                 1.3171
 Frc consts  --      1.3754                 1.9342                 1.5079
 IR Inten    --      6.8624                56.5740                 1.7320

                     70                     71                     72
                      A                      A                      A
 Frequencies --   1419.1413              1426.1761              1429.8862
 Red. masses --      1.4817                 2.1460                 1.2796
 Frc consts  --      1.7582                 2.5717                 1.5414
 IR Inten    --      4.2447                 1.0021                 4.4644

                     73                     74                     75
                      A                      A                      A
 Frequencies --   1449.6252              1460.4537              1490.1034
 Red. masses --      1.2373                 2.8546                 1.0859
 Frc consts  --      1.5319                 3.5874                 1.4206
 IR Inten    --      6.4763                31.6939                 4.4547

                     76                     77                     78
                      A                      A                      A
 Frequencies --   1499.0449              1505.1913              1518.0716
 Red. masses --      1.2267                 1.0860                 1.0534
 Frc consts  --      1.6241                 1.4497                 1.4303
 IR Inten    --     22.3311                 2.6015                 0.8423

                     79                     80                     81
                      A                      A                      A
 Frequencies --   1521.4772              1525.9884              1533.6997
 Red. masses --      1.0480                 1.0495                 1.0673
 Frc consts  --      1.4293                 1.4399                 1.4792
 IR Inten    --      6.7141                 3.3529                16.1014

                     82                     83                     84
                      A                      A                      A
 Frequencies --   1534.9317              1543.3642              1550.8546
 Red. masses --      1.0791                 1.0468                 2.6166
 Frc consts  --      1.4979                 1.4691                 3.7079
 IR Inten    --     39.6756                 7.4293                77.8420

                     85                     86                     87
                      A                      A                      A
 Frequencies --   1603.0592              1651.2094              1663.1727
 Red. masses --      7.3475                 1.4331                 4.1887
 Frc consts  --     11.1247                 2.3022                 6.8265
 IR Inten    --     10.5354               111.0608                76.5296

                     88                     89                     90
                      A                      A                      A
 Frequencies --   1706.6860              3007.9024              3027.3347
 Red. masses --      4.1341                 1.0659                 1.0349
 Frc consts  --      7.0949                 5.6821                 5.5883
 IR Inten    --    128.1865                33.3413                46.7100

                     91                     92                     93
                      A                      A                      A
 Frequencies --   3035.7838              3040.6492              3059.6227
 Red. masses --      1.0380                 1.0412                 1.0928
 Frc consts  --      5.6361                 5.6716                 6.0273
 IR Inten    --     25.9373                37.8304                14.4373

                     94                     95                     96
                      A                      A                      A
 Frequencies --   3079.0944              3087.1693              3089.7981
 Red. masses --      1.0631                 1.1066                 1.0872
 Frc consts  --      5.9381                 6.2137                 6.1151
 IR Inten    --     28.1134                41.9297                 3.3277

                     97                     98                     99
                      A                      A                      A
 Frequencies --   3101.1919              3115.0276              3117.6088
 Red. masses --      1.0983                 1.0995                 1.0973
 Frc consts  --      6.2237                 6.2858                 6.2837
 IR Inten    --      4.8208                30.6520                49.8634

                    100                    101                    102
                      A                      A                      A
 Frequencies --   3124.1444              3132.6101              3163.7459
 Red. masses --      1.1009                 1.1016                 1.0998
 Frc consts  --      6.3308                 6.3695                 6.4858
 IR Inten    --     35.2851                17.9162                27.5480

                    103                    104                    105
                      A                      A                      A
 Frequencies --   3218.3655              3232.7546              3242.5536
 Red. masses --      1.0897                 1.0892                 1.0929
 Frc consts  --      6.6501                 6.7069                 6.7703
 IR Inten    --      4.4153                 4.1863                 2.0991

                    106                    107                    108
                      A                      A                      A
 Frequencies --   3525.0089              3634.1838              3783.5109
 Red. masses --      1.0476                 1.0983                 1.0678
 Frc consts  --      7.6695                 8.5467                 9.0062
 IR Inten    --     46.8999                96.5904                92.9128

 - Thermochemistry -
 -------------------
 Temperature   298.150 Kelvin.  Pressure   1.00000 Atm.
 Atom     1 has atomic number  6 and mass  12.00000

 Molecular mass:   268.12455 amu.
 Principal axes and moments of inertia in atomic units:
                           1         2         3
     Eigenvalues --  4585.858095722.686187876.73899
           X            0.99975   0.02003  -0.01022
           Y           -0.02024   0.99959  -0.02047
           Z            0.00980   0.02067   0.99974
 This molecule is an asymmetric top.
 Rotational symmetry number  1.
 Warning -- assumption of classical behavior for rotation
           may cause significant error
 Rotational temperatures (Kelvin)      0.01889     0.01514     0.01100
 Rotational constants (GHZ):           0.39354     0.31537     0.22912
 Zero-point vibrational energy     842784.6 (Joules/Mol)
                                  201.43036 (Kcal/Mol)
 Warning -- explicit consideration of  32 degrees of freedom as
           vibrations may cause significant error
 Vibrational temperatures:     36.88    50.79    75.47    78.98   114.12
          (Kelvin)            122.25   171.90   178.88   222.98   288.03
                              296.76   317.74   321.04   346.15   385.46
                              398.82   410.80   446.69   459.61   467.88
                              533.68   554.24   564.76   603.72   609.14
                              655.99   680.14   707.37   721.18   768.55
                              870.69   889.03   930.83   941.88  1002.58
                             1027.71  1080.65  1099.80  1158.73  1221.25
                             1236.91  1271.93  1298.56  1309.46  1357.72
                             1385.55  1402.27  1413.86  1415.89  1501.49
                             1529.31  1559.17  1618.89  1630.76  1653.62
                             1685.72  1707.08  1716.75  1735.96  1758.52
                             1774.48  1840.26  1846.03  1887.75  1922.98
                             1945.76  1953.38  1957.78  2005.64  2041.83
                             2051.95  2057.29  2085.69  2101.27  2143.93
                             2156.79  2165.63  2184.17  2189.07  2195.56
                             2206.65  2208.42  2220.56  2231.33  2306.44
                             2375.72  2392.93  2455.54  4327.70  4355.66
                             4367.82  4374.82  4402.11  4430.13  4441.75
                             4445.53  4461.92  4481.83  4485.54  4494.95
                             4507.13  4551.92  4630.51  4651.21  4665.31
                             5071.70  5228.78  5443.63

 Zero-point correction=                           0.321000 (Hartree/Particle)
 Thermal correction to Energy=                    0.340696
 Thermal correction to Enthalpy=                  0.341640
 Thermal correction to Gibbs Free Energy=         0.272377
 Sum of electronic and zero-point Energies=          -1165.264744
 Sum of electronic and thermal Energies=             -1165.245047
 Sum of electronic and thermal Enthalpies=           -1165.244103
 Sum of electronic and thermal Free Energies=        -1165.313366

                     E (Thermal)             CV                S
                      KCal/Mol        Cal/Mol-Kelvin    Cal/Mol-Kelvin
 Total                  213.790             74.009            145.777
 Electronic               0.000              0.000              0.000
 Translational            0.889              2.981             42.658
 Rotational               0.889              2.981             33.691
 Vibrational            212.013             68.047             69.429
 Vibration     1          0.593              1.985              6.141
 Vibration     2          0.594              1.982              5.507
 Vibration     3          0.596              1.977              4.723
 Vibration     4          0.596              1.976              4.633
 Vibration     5          0.600              1.963              3.908
 Vibration     6          0.601              1.960              3.773
 Vibration     7          0.609              1.933              3.109
 Vibration     8          0.610              1.929              3.032
 Vibration     9          0.620              1.897              2.610
 Vibration    10          0.638              1.840              2.131
 Vibration    11          0.641              1.831              2.077
 Vibration    12          0.648              1.809              1.952
 Vibration    13          0.649              1.806              1.933
 Vibration    14          0.658              1.778              1.799
 Vibration    15          0.673              1.732              1.610
 Vibration    16          0.678              1.716              1.551
 Vibration    17          0.683              1.701              1.500
 Vibration    18          0.699              1.654              1.360
 Vibration    19          0.705              1.636              1.313
 Vibration    20          0.709              1.625              1.284
 Vibration    21          0.743              1.532              1.076
 Vibration    22          0.754              1.502              1.019
 Vibration    23          0.760              1.486              0.991
 Vibration    24          0.782              1.428              0.893
 Vibration    25          0.786              1.419              0.881
 Vibration    26          0.814              1.348              0.778
 Vibration    27          0.830              1.311              0.730
 Vibration    28          0.847              1.269              0.679
 Vibration    29          0.857              1.247              0.655
 Vibration    30          0.889              1.174              0.578
 Vibration    31          0.964              1.021              0.441
 Vibration    32          0.978              0.994              0.420

 Optimization completed.
    -- Stationary point found.
 Normal termination of Gaussian 16 at Fri Dec 11 23:24:34 2020.

 ----------------------------------------------------------------------
 # B3LYP/6-311++G(d,p) empiricaldispersion=gd3bj scf=xqc pop=npa geom=c
 heck
 ----------------------------------------------------------------------

 ---------------------------------------
 CID_113996844_JID_8940_Energie_neutraal
 ---------------------------------------
 Structure from the checkpoint file:  "JID_8940.chk"
 Charge =  0 Multiplicity = 1

 SCF Done:  E(RB3LYP) =  -1165.83951935     A.U. after   16 cycles
 Normal termination of Gaussian 16 at Fri Dec 11 23:32:23 2020.

 ----------------------------------------------------------------------
 # B3LYP/6-311++G(d,p) empiricaldispersion=gd3bj scf=xqc pop=npa geom=c
 heck
 ----------------------------------------------------------------------

 -------------------------------------
 CID_113996844_JID_8940_Energie_kation
 -------------------------------------
 Structure from the checkpoint file:  "JID_8940.chk"
 Charge =  1 Multiplicity = 2

 SCF Done:  E(UB3LYP) =  -1165.56454103     A.U. after   26 cycles
 Normal termination of Gaussian 16 at Fri Dec 11 23:49:50 2020.
 Gaussian 16:  ES64L-G16RevA.03 25-Dec-2016

 ----------------------------------------------------------------------
 # B3LYP/6-311++G(d,p) empiricaldispersion=gd3bj scf=xqc pop=npa geom=c
 heck
 ----------------------------------------------------------------------

 ------------------------------------
 CID_113996844_JID_8940_Energie_anion
 ------------------------------------
 Structure from the checkpoint file:  "JID_8940.chk"
 Charge = -1 Multiplicity = 2

                         Standard orientation:
 ---------------------------------------------------------------------
 Center     Atomic      Atomic             Coordinates (Angstroms)
 Number     Number       Type             X           Y           Z
 ---------------------------------------------------------------------
      1          6           0       -0.875197    2.324655   -1.633770
      2          6           0        0.527320    2.329086   -1.014865
      3          6           0        1.526258    3.046261   -1.930714
      4          6           0        0.547790    2.979018    0.379446
      5          6           0       -0.302790    2.313731    1.463963
      6         16           0        0.294446    0.667957    2.053399
      7          6           0       -0.320317   -0.447758    0.778506
      8          6           0        0.514012   -1.274765    0.002705
      9          6           0       -0.111501   -2.135465   -0.925013
     10          6           0       -1.482430   -2.178036   -1.089674
     11          6           0       -2.301887   -1.353105   -0.306790
     12          6           0       -1.716062   -0.507200    0.633276
     13          8           0       -3.641381   -1.455086   -0.525675
     14          6           0       -4.504460   -0.620700    0.230375
     15          6           0        2.001602   -1.337052    0.067755
     16          7           0        2.521950   -2.498351   -0.183597
     17          8           0        3.944938   -2.395095   -0.153558
     18          7           0        2.752639   -0.199226    0.271022
     19          1           0       -1.268870    3.346108   -1.722710
     20          1           0       -1.582672    1.734680   -1.043000
     21          1           0       -0.850728    1.887988   -2.638300
     22          1           0        0.861839    1.291509   -0.918696
     23          1           0        1.262735    4.105373   -2.051935
     24          1           0        2.542037    2.994105   -1.522608
     25          1           0        1.542402    2.589487   -2.926402
     26          1           0        1.584431    3.036093    0.736660
     27          1           0        0.199387    4.019765    0.284650
     28          1           0       -0.293615    2.924437    2.372872
     29          1           0       -1.346981    2.210183    1.157904
     30          1           0        0.525877   -2.770091   -1.528303
     31          1           0       -1.943602   -2.836141   -1.818351
     32          1           0       -2.327828    0.107180    1.281402
     33          1           0       -4.429738   -0.833346    1.304640
     34          1           0       -4.287198    0.441542    0.056835
     35          1           0       -5.515210   -0.844985   -0.113485
     36          1           0        4.208007   -3.322446   -0.241213
     37          1           0        2.323468    0.490097    0.877059
     38          1           0        3.720512   -0.406369    0.489295
 ---------------------------------------------------------------------

 SCF Done:  E(UB3LYP) =  -1165.83236793     A.U. after   33 cycles
 SCF Done:  E(UB3LYP) =  -1165.83236793     a.u. after    1 cycles

 The electronic state is 2-A.
 Alpha  occ. eigenvalues --  -88.73654 -19.05862 -19.05226 -14.22867 -14.21496
 Alpha  occ. eigenvalues --  -10.13295 -10.12497 -10.12158 -10.09092 -10.09013
 Alpha  occ. eigenvalues --  -10.07415 -10.07272 -10.07154 -10.06714 -10.06670
 Alpha  occ. eigenvalues --  -10.06209 -10.05772 -10.05587  -7.82229  -5.78603
 Alpha  occ. eigenvalues --   -5.78245  -5.77647  -0.97247  -0.96833  -0.82864
 Alpha  occ. eigenvalues --   -0.75426  -0.72679  -0.71842  -0.68459  -0.65298
 Alpha  occ. eigenvalues --   -0.64039  -0.60356  -0.58891  -0.58430  -0.52692
 Alpha  occ. eigenvalues --   -0.51064  -0.48786  -0.46054  -0.45587  -0.43144
 Alpha  occ. eigenvalues --   -0.42282  -0.41733  -0.37909  -0.37555  -0.36992
 Alpha  occ. eigenvalues --   -0.36773  -0.35797  -0.34356  -0.33953  -0.32988
 Alpha  occ. eigenvalues --   -0.32172  -0.31983  -0.30347  -0.30184  -0.29315
 Alpha  occ. eigenvalues --   -0.28586  -0.27878  -0.27040  -0.26680  -0.25762
 Alpha  occ. eigenvalues --   -0.24339  -0.23850  -0.23491  -0.22887  -0.21923
 Alpha  occ. eigenvalues --   -0.21311  -0.20335  -0.18216  -0.15719  -0.13939
 Alpha  occ. eigenvalues --   -0.11963  -0.10875   0.04340
 Alpha virt. eigenvalues --    0.06220   0.06750   0.07127   0.07781   0.08732
 Alpha virt. eigenvalues --    0.08831   0.09186   0.09608   0.10050   0.10701
 Alpha virt. eigenvalues --    0.10819   0.11803   0.12024   0.12124   0.12875

  Beta  occ. eigenvalues --  -88.73655 -19.05839 -19.05218 -14.22791 -14.21490
  Beta  occ. eigenvalues --  -10.13287 -10.12460 -10.12119 -10.08981 -10.08785
  Beta  occ. eigenvalues --  -10.07347 -10.07273 -10.07143 -10.06745 -10.06668
  Beta  occ. eigenvalues --  -10.06181 -10.05767 -10.05458  -7.82230  -5.78600
  Beta  occ. eigenvalues --   -5.78253  -5.77645  -0.97171  -0.96799  -0.82819
  Beta  occ. eigenvalues --   -0.75225  -0.72593  -0.71775  -0.68286  -0.65153
  Beta  occ. eigenvalues --   -0.63882  -0.60251  -0.58880  -0.58302  -0.52481
  Beta  occ. eigenvalues --   -0.50994  -0.48678  -0.45962  -0.45524  -0.43100
  Beta  occ. eigenvalues --   -0.42194  -0.41692  -0.37816  -0.37523  -0.36912
  Beta  occ. eigenvalues --   -0.36679  -0.35733  -0.34288  -0.33893  -0.32933
  Beta  occ. eigenvalues --   -0.32033  -0.31901  -0.30228  -0.30120  -0.29281
  Beta  occ. eigenvalues --   -0.28460  -0.27607  -0.26929  -0.26607  -0.25691
  Beta  occ. eigenvalues --   -0.24120  -0.23768  -0.23442  -0.22851  -0.21855
  Beta  occ. eigenvalues --   -0.21140  -0.20169  -0.18109  -0.15255  -0.13673
  Beta  occ. eigenvalues --   -0.11716  -0.10355
  Beta virt. eigenvalues --    0.06538   0.06887   0.07404   0.07956   0.08371
  Beta virt. eigenvalues --    0.08915   0.09065   0.09298   0.09999   0.10107
  Beta virt. eigenvalues --    0.10923   0.11066   0.11916   0.12088   0.12213

 Mulliken charges and spin densities:
               1          2
     1  C   -0.539098  -0.145570
     2  C    0.244100   0.105728
     3  C   -0.460459  -0.039157
     4  C   -0.350357   0.007280
     5  C    0.323233  -0.839694
     6  S   -0.383384  -0.008365
     7  C    1.514963  -0.098884
     8  C    0.756708   0.051954
     9  C   -0.234030  -0.010551
    10  C   -0.247032   0.222132
    11  C   -1.762653   0.592565
    12  C    0.338922  -0.488335
    13  O   -0.157778   0.027875
    14  C    0.749006  -1.095979
    15  C   -0.868155  -0.010433
    16  N   -0.373554   0.050385
    17  O   -0.083737  -0.006812
    18  N   -0.312913   0.000113
    19  H   -0.082918   0.218476
    20  H    0.736911  -0.553844
    21  H    0.068466   0.054640
    22  H    0.222861  -0.055192
    23  H    0.123562  -0.002576
    24  H    0.111966   0.017922
    25  H    0.132788  -0.001545
    26  H    0.107396   0.006812
    27  H   -0.015316   0.166423
    28  H   -0.808631   1.070532
    29  H   -0.128563   0.260482
    30  H    0.209205   0.001698
    31  H    0.150893   0.012667
    32  H    0.194346   0.026022
    33  H   -0.247571   0.407724
    34  H   -0.343322   0.500579
    35  H   -0.348252   0.519963
    36  H    0.236209   0.024843
    37  H    0.253502   0.000686
    38  H    0.272685   0.009433
 Sum of Mulliken charges =  -1.00000   1.00000

 Dipole moment (field-independent basis, Debye):
    X=              6.0003    Y=             -1.3622    Z=             -3.6028  Tot=              7.1302
 Quadrupole moment (field-independent basis, Debye-Ang):
   XX=           -176.7543   YY=           -159.0343   ZZ=           -152.3192
   XY=              3.8411   XZ=              6.9091   YZ=             -8.9044

 Summary of Natural Population Analysis:

                                       Natural Population
                Natural  -----------------------------------------------
    Atom  No    Charge         Core      Valence    Rydberg      Total
 -----------------------------------------------------------------------
      C    1   -0.28495      0.99965     2.27942    0.00589     3.28495
      C    2   -0.12904      0.99960     2.12106    0.00838     3.12904
      C    3   -0.27898      0.99966     2.27468    0.00464     3.27898
      C    4   -0.19195      0.99960     2.18147    0.01088     3.19195
      C    5   -0.23649      0.99957     2.22442    0.01250     3.23649
      S    6    0.09824      4.99955     2.88378    0.01842     7.90176
      C    7   -0.03171      0.99938     2.02051    0.01183     3.03171
      C    8   -0.05892      0.99939     2.04777    0.01176     3.05892
      C    9   -0.08098      0.99954     2.07228    0.00915     3.08098
      C   10   -0.10270      0.99952     2.09316    0.01002     3.10270
      C   11    0.17141      0.99937     1.81573    0.01349     2.82859
      C   12   -0.15095      0.99945     2.14155    0.00994     3.15095
      O   13   -0.27251      0.99985     3.26330    0.00935     4.27251
      C   14   -0.10051      0.99960     2.09177    0.00914     3.10051
      C   15    0.19824      0.99960     1.78455    0.01762     2.80176
      N   16   -0.12540      0.99963     2.61280    0.01298     3.62540
      O   17   -0.31010      0.99990     3.30287    0.00733     4.31010
      N   18   -0.40929      0.99970     2.90176    0.00783     3.90929
      H   19    0.09216      0.00000     0.40704    0.00080     0.40784
      H   20    0.10507      0.00000     0.39377    0.00116     0.39493
      H   21    0.09785      0.00000     0.40146    0.00069     0.40215
      H   22    0.10748      0.00000     0.38934    0.00318     0.39252
      H   23    0.09166      0.00000     0.40753    0.00081     0.40834
      H   24    0.09786      0.00000     0.40137    0.00077     0.40214
      H   25    0.09714      0.00000     0.40215    0.00070     0.40286
      H   26    0.09565      0.00000     0.40322    0.00112     0.40435
      H   27    0.09668      0.00000     0.40218    0.00115     0.40332
      H   28    0.10840      0.00000     0.38914    0.00246     0.39160
      H   29    0.10299      0.00000     0.39520    0.00181     0.39701
      H   30    0.10819      0.00000     0.39081    0.00100     0.39181
      H   31    0.10131      0.00000     0.39781    0.00088     0.39869
      H   32    0.10817      0.00000     0.39014    0.00169     0.39183
      H   33    0.08670      0.00000     0.41170    0.00160     0.41330
      H   34    0.08499      0.00000     0.41341    0.00160     0.41501
      H   35    0.09203      0.00000     0.40680    0.00116     0.40797
      H   36    0.23174      0.00000     0.26514    0.00312     0.26826
      H   37    0.19680      0.00000     0.30099    0.00221     0.30320
      H   38    0.19370      0.00000     0.30481    0.00149     0.30630
 =======================================================================
   * Total *   -0.00000     21.99255    49.78687    0.22058    72.00000

 Normal termination of Gaussian 16 at Sat Dec 12 00:12:24 2020.
