 Gaussian 16, Revision A.03,

 -----------------------------------------------------------
 # opt freq B3LYP/6-31G(d) empiricaldispersion=gd3bj scf=xqc
 -----------------------------------------------------------

 ------------------------------
 CID_65609149_JID_6550_neutraal
 ------------------------------
 Symbolic Z-matrix:
 Charge =  0 Multiplicity = 1

 SCF Done:  E(RB3LYP) =  -689.588477172     A.U. after   14 cycles
 SCF Done:  E(RB3LYP) =  -689.594331259     A.U. after   12 cycles
 SCF Done:  E(RB3LYP) =  -689.595314930     A.U. after   12 cycles
 SCF Done:  E(RB3LYP) =  -689.595715001     A.U. after   11 cycles
 SCF Done:  E(RB3LYP) =  -689.595821271     A.U. after   11 cycles
 SCF Done:  E(RB3LYP) =  -689.595864736     A.U. after   10 cycles
 SCF Done:  E(RB3LYP) =  -689.595873601     A.U. after   10 cycles
 SCF Done:  E(RB3LYP) =  -689.595877728     A.U. after    8 cycles
 SCF Done:  E(RB3LYP) =  -689.595878090     A.U. after    7 cycles
 SCF Done:  E(RB3LYP) =  -689.595878148     A.U. after    7 cycles
 SCF Done:  E(RB3LYP) =  -689.595883842     A.U. after    9 cycles
 SCF Done:  E(RB3LYP) =  -689.595883920     A.U. after    9 cycles
 SCF Done:  E(RB3LYP) =  -689.595884239     A.U. after    8 cycles
 SCF Done:  E(RB3LYP) =  -689.595884306     A.U. after    8 cycles
 SCF Done:  E(RB3LYP) =  -689.595884307     A.U. after    7 cycles
 SCF Done:  E(RB3LYP) =  -689.595884300     A.U. after    6 cycles
 Optimization completed on the basis of negligible forces.
    -- Stationary point found.
 Normal termination of Gaussian 16 at Thu Dec 10 23:53:50 2020.

 --------------------------------------------------------------------
 #N Geom=AllCheck Guess=TCheck SCRF=Check GenChk RB3LYP/6-31G(d) Freq
 --------------------------------------------------------------------

 Structure from the checkpoint file:  "JID_6550.chk"
 ------------------------------
 CID_65609149_JID_6550_neutraal
 ------------------------------
 Charge =  0 Multiplicity = 1

 SCF Done:  E(RB3LYP) =  -689.595884300     A.U. after    1 cycles

  Exact polarizability: 173.353  -5.559 149.178   5.912  -4.535 116.365
 Approx polarizability: 222.446   1.061 220.051   8.693 -12.298 176.731

                      1                      2                      3
                      A                      A                      A
 Frequencies --     18.4776                23.3768                32.0581
 Red. masses --      2.7128                 1.7093                 3.4573
 Frc consts  --      0.0005                 0.0006                 0.0021
 IR Inten    --      0.5147                 0.0440                 0.5185

                      4                      5                      6
                      A                      A                      A
 Frequencies --     46.4683                60.1602                88.3774
 Red. masses --      2.6504                 3.2962                 3.5327
 Frc consts  --      0.0034                 0.0070                 0.0163
 IR Inten    --      0.1437                 0.4219                 0.0151

                      7                      8                      9
                      A                      A                      A
 Frequencies --    104.7531               111.5955               154.9967
 Red. masses --      4.1186                 3.3802                 3.1429
 Frc consts  --      0.0266                 0.0248                 0.0445
 IR Inten    --      0.9093                 0.7661                 0.2215

                     10                     11                     12
                      A                      A                      A
 Frequencies --    223.0366               230.3100               237.4389
 Red. masses --      1.0901                 2.6178                 1.2482
 Frc consts  --      0.0319                 0.0818                 0.0415
 IR Inten    --      0.1491                 0.4871                 0.1950

                     13                     14                     15
                      A                      A                      A
 Frequencies --    260.2083               279.9575               300.5072
 Red. masses --      3.9074                 2.7613                 2.2318
 Frc consts  --      0.1559                 0.1275                 0.1187
 IR Inten    --      1.5317                 0.9231                 0.4855

                     16                     17                     18
                      A                      A                      A
 Frequencies --    345.4445               399.7641               406.7672
 Red. masses --      3.0028                 3.1434                 3.0167
 Frc consts  --      0.2111                 0.2960                 0.2941
 IR Inten    --      0.7809                 3.3248                 1.1444

                     19                     20                     21
                      A                      A                      A
 Frequencies --    425.3637               447.4946               495.6256
 Red. masses --      1.8440                 2.6035                 2.2859
 Frc consts  --      0.1966                 0.3072                 0.3308
 IR Inten    --      0.8046                 2.1553                 2.3644

                     22                     23                     24
                      A                      A                      A
 Frequencies --    581.5444               630.7509               677.4006
 Red. masses --      4.1046                 2.6859                 5.2842
 Frc consts  --      0.8179                 0.6296                 1.4286
 IR Inten    --      2.6894                 0.7658                 7.1290

                     25                     26                     27
                      A                      A                      A
 Frequencies --    705.0720               769.8297               784.6324
 Red. masses --      4.0848                 1.4583                 3.6490
 Frc consts  --      1.1964                 0.5092                 1.3236
 IR Inten    --     20.2900                 0.6582                 8.0015

                     28                     29                     30
                      A                      A                      A
 Frequencies --    806.8232               813.4966               832.7454
 Red. masses --      2.7598                 1.4634                 2.5806
 Frc consts  --      1.0585                 0.5706                 1.0544
 IR Inten    --     26.0770                24.2892                 2.9091

                     31                     32                     33
                      A                      A                      A
 Frequencies --    838.6207               884.9372               889.5502
 Red. masses --      1.5356                 1.3810                 3.3608
 Frc consts  --      0.6363                 0.6372                 1.5669
 IR Inten    --     17.4910                 6.5231                 2.4838

                     34                     35                     36
                      A                      A                      A
 Frequencies --    906.4489               909.0426               948.3511
 Red. masses --      2.3114                 1.5367                 1.2854
 Frc consts  --      1.1190                 0.7482                 0.6811
 IR Inten    --      1.4960                 1.7935                 2.9221

                     37                     38                     39
                      A                      A                      A
 Frequencies --    963.7648               964.1296               983.7264
 Red. masses --      1.8156                 1.9737                 1.5489
 Frc consts  --      0.9936                 1.0809                 0.8831
 IR Inten    --      2.0493                 2.0163                 0.3189

                     40                     41                     42
                      A                      A                      A
 Frequencies --    985.7385               993.1955              1000.1331
 Red. masses --      1.8422                 2.7938                 1.4996
 Frc consts  --      1.0546                 1.6238                 0.8838
 IR Inten    --      4.1742                14.1349                 0.1977

                     43                     44                     45
                      A                      A                      A
 Frequencies --   1010.3256              1050.9090              1074.1102
 Red. masses --      2.1901                 2.6088                 2.4510
 Frc consts  --      1.3171                 1.6975                 1.6661
 IR Inten    --     25.7851                 2.8789                 2.4636

                     46                     47                     48
                      A                      A                      A
 Frequencies --   1089.7728              1142.4703              1161.7428
 Red. masses --      2.2137                 2.3285                 2.2611
 Frc consts  --      1.5490                 1.7907                 1.7980
 IR Inten    --     14.9773                 4.5318                 1.9509

                     49                     50                     51
                      A                      A                      A
 Frequencies --   1164.0809              1195.2309              1209.7474
 Red. masses --      2.9019                 1.8149                 1.7213
 Frc consts  --      2.3169                 1.5276                 1.4842
 IR Inten    --     34.1359                 3.0042                 7.3646

                     52                     53                     54
                      A                      A                      A
 Frequencies --   1213.1414              1218.6653              1224.1778
 Red. masses --      1.4654                 1.4450                 2.5427
 Frc consts  --      1.2706                 1.2644                 2.2451
 IR Inten    --      0.5249                 1.1247                 9.8266

                     55                     56                     57
                      A                      A                      A
 Frequencies --   1244.5727              1255.2815              1275.2833
 Red. masses --      1.5162                 1.4586                 1.5259
 Frc consts  --      1.3837                 1.3541                 1.4622
 IR Inten    --     30.4796                 1.7180                 0.8260

                     58                     59                     60
                      A                      A                      A
 Frequencies --   1287.3357              1316.9815              1317.6788
 Red. masses --      1.3985                 1.6023                 2.2143
 Frc consts  --      1.3655                 1.6374                 2.2652
 IR Inten    --      1.0336                 5.3264                23.8867

                     61                     62                     63
                      A                      A                      A
 Frequencies --   1328.2465              1339.2487              1345.6924
 Red. masses --      1.2276                 2.1273                 1.2869
 Frc consts  --      1.2760                 2.2480                 1.3731
 IR Inten    --      2.2070                10.7822                 7.8829

                     64                     65                     66
                      A                      A                      A
 Frequencies --   1354.7964              1363.6022              1368.2938
 Red. masses --      1.3535                 1.2786                 1.3467
 Frc consts  --      1.4637                 1.4007                 1.4855
 IR Inten    --      5.2637                 0.6934                 2.4287

                     67                     68                     69
                      A                      A                      A
 Frequencies --   1393.1222              1399.7230              1416.3785
 Red. masses --      1.5476                 1.4002                 1.3940
 Frc consts  --      1.7697                 1.6163                 1.6476
 IR Inten    --     22.7023                 5.4991                 5.3016

                     70                     71                     72
                      A                      A                      A
 Frequencies --   1423.6321              1432.4456              1449.8069
 Red. masses --      1.6080                 1.2837                 2.0077
 Frc consts  --      1.9201                 1.5519                 2.4864
 IR Inten    --     13.3632                 3.7634                12.3150

                     73                     74                     75
                      A                      A                      A
 Frequencies --   1455.2487              1499.6769              1511.0082
 Red. masses --      1.5400                 1.3160                 1.2849
 Frc consts  --      1.9215                 1.7438                 1.7284
 IR Inten    --     15.1517                 9.2570                20.4897

                     76                     77                     78
                      A                      A                      A
 Frequencies --   1515.2173              1515.6475              1518.0066
 Red. masses --      1.5415                 1.2318                 1.2432
 Frc consts  --      2.0852                 1.6672                 1.6878
 IR Inten    --     13.5845                 5.8303                15.3943

                     79                     80                     81
                      A                      A                      A
 Frequencies --   1524.0903              1525.8502              1528.3382
 Red. masses --      1.0658                 1.0982                 1.0869
 Frc consts  --      1.4587                 1.5065                 1.4958
 IR Inten    --      3.3691                 2.1907                 3.7718

                     82                     83                     84
                      A                      A                      A
 Frequencies --   1534.1208              1534.7304              1538.4975
 Red. masses --      1.0807                 1.0690                 1.0582
 Frc consts  --      1.4986                 1.4835                 1.4758
 IR Inten    --      3.5964                 5.5827                10.5186

                     85                     86                     87
                      A                      A                      A
 Frequencies --   1551.5350              1573.8956              2922.2182
 Red. masses --      1.1057                 6.0748                 1.0815
 Frc consts  --      1.5682                 8.8661                 5.4413
 IR Inten    --      0.7367                19.6651                69.8304

                     88                     89                     90
                      A                      A                      A
 Frequencies --   3007.6393              3036.4515              3045.0344
 Red. masses --      1.0683                 1.0365                 1.0404
 Frc consts  --      5.6936                 5.6306                 5.6838
 IR Inten    --     45.5707                24.2611                31.7792

                     91                     92                     93
                      A                      A                      A
 Frequencies --   3046.0154              3053.0383              3059.8725
 Red. masses --      1.0634                 1.0613                 1.0655
 Frc consts  --      5.8133                 5.8283                 5.8778
 IR Inten    --     22.2979                34.8709                23.9731

                     94                     95                     96
                      A                      A                      A
 Frequencies --   3070.6854              3073.6393              3075.2416
 Red. masses --      1.0803                 1.0713                 1.0866
 Frc consts  --      6.0017                 5.9628                 6.0547
 IR Inten    --      3.6493                40.5480                18.2953

                     97                     98                     99
                      A                      A                      A
 Frequencies --   3082.6442              3091.0208              3098.7036
 Red. masses --      1.0620                 1.1000                 1.1011
 Frc consts  --      5.9457                 6.1920                 6.2294
 IR Inten    --     21.3794                34.9117                29.9287

                    100                    101                    102
                      A                      A                      A
 Frequencies --   3100.8086              3104.7356              3107.0851
 Red. masses --      1.0978                 1.1048                 1.1007
 Frc consts  --      6.2192                 6.2747                 6.2607
 IR Inten    --     10.7901                14.1919                27.8495

                    103                    104                    105
                      A                      A                      A
 Frequencies --   3116.1177              3121.1247              3132.6198
 Red. masses --      1.1005                 1.1055                 1.1067
 Frc consts  --      6.2958                 6.3448                 6.3987
 IR Inten    --     45.0479                73.9118                24.4218

                    106                    107                    108
                      A                      A                      A
 Frequencies --   3141.7831              3273.6676              3480.4298
 Red. masses --      1.0993                 1.0968                 1.0742
 Frc consts  --      6.3929                 6.9255                 7.6662
 IR Inten    --     17.7315                10.4064                 0.2400

 - Thermochemistry -
 -------------------
 Temperature   298.150 Kelvin.  Pressure   1.00000 Atm.
 Atom     1 has atomic number  6 and mass  12.00000

 Molecular mass:   222.18445 amu.
 Principal axes and moments of inertia in atomic units:
                           1         2         3
     Eigenvalues --  2311.598245745.891417173.91254
           X            0.99975   0.02227   0.00337
           Y           -0.02227   0.99975   0.00258
           Z           -0.00331  -0.00265   0.99999
 This molecule is an asymmetric top.
 Rotational symmetry number  1.
 Warning -- assumption of classical behavior for rotation
           may cause significant error
 Rotational temperatures (Kelvin)      0.03747     0.01507     0.01207
 Rotational constants (GHZ):           0.78073     0.31409     0.25157
 Zero-point vibrational energy     898365.9 (Joules/Mol)
                                  214.71461 (Kcal/Mol)
 Warning -- explicit consideration of  22 degrees of freedom as
           vibrations may cause significant error
 Vibrational temperatures:     26.59    33.63    46.12    66.86    86.56
          (Kelvin)            127.16   150.72   160.56   223.01   320.90
                              331.36   341.62   374.38   402.80   432.36
                              497.02   575.17   585.25   612.00   643.84
                              713.09   836.71   907.51   974.63  1014.44
                             1107.61  1128.91  1160.84  1170.44  1198.13
                             1206.59  1273.23  1279.86  1304.18  1307.91
                             1364.47  1386.64  1387.17  1415.36  1418.26
                             1428.99  1438.97  1453.63  1512.02  1545.41
                             1567.94  1643.76  1671.49  1674.85  1719.67
                             1740.56  1745.44  1753.39  1761.32  1790.66
                             1806.07  1834.85  1852.19  1894.84  1895.85
                             1911.05  1926.88  1936.15  1949.25  1961.92
                             1968.67  2004.39  2013.89  2037.85  2048.29
                             2060.97  2085.95  2093.78  2157.70  2174.00
                             2180.06  2180.68  2184.07  2192.83  2195.36
                             2198.94  2207.26  2208.13  2213.55  2232.31
                             2264.48  4204.42  4327.32  4368.78  4381.13
                             4382.54  4392.64  4402.47  4418.03  4422.28
                             4424.59  4435.24  4447.29  4458.34  4461.37
                             4467.02  4470.40  4483.40  4490.60  4507.14
                             4520.33  4710.08  5007.56

 Zero-point correction=                           0.342170 (Hartree/Particle)
 Thermal correction to Energy=                    0.358793
 Thermal correction to Enthalpy=                  0.359737
 Thermal correction to Gibbs Free Energy=         0.294619
 Sum of electronic and zero-point Energies=           -689.253715
 Sum of electronic and thermal Energies=              -689.237092
 Sum of electronic and thermal Enthalpies=            -689.236147
 Sum of electronic and thermal Free Energies=         -689.301266

                     E (Thermal)             CV                S
                      KCal/Mol        Cal/Mol-Kelvin    Cal/Mol-Kelvin
 Total                  225.146             61.316            137.053
 Electronic               0.000              0.000              0.000
 Translational            0.889              2.981             42.098
 Rotational               0.889              2.981             32.921
 Vibrational            223.368             55.355             62.034
 Vibration     1          0.593              1.986              6.791
 Vibration     2          0.593              1.985              6.324
 Vibration     3          0.594              1.983              5.698
 Vibration     4          0.595              1.979              4.962
 Vibration     5          0.597              1.973              4.452
 Vibration     6          0.601              1.957              3.696
 Vibration     7          0.605              1.945              3.364
 Vibration     8          0.607              1.940              3.241
 Vibration     9          0.620              1.897              2.610
 Vibration    10          0.649              1.806              1.934
 Vibration    11          0.652              1.795              1.877
 Vibration    12          0.656              1.783              1.822
 Vibration    13          0.668              1.745              1.660
 Vibration    14          0.680              1.711              1.534
 Vibration    15          0.693              1.673              1.414
 Vibration    16          0.724              1.585              1.187
 Vibration    17          0.766              1.471              0.964
 Vibration    18          0.772              1.456              0.938
 Vibration    19          0.787              1.415              0.874
 Vibration    20          0.807              1.366              0.803
 Vibration    21          0.851              1.260              0.669
 Vibration    22          0.938              1.071              0.483

 Optimization completed on the basis of negligible forces.
    -- Stationary point found.
 Normal termination of Gaussian 16 at Fri Dec 11 00:07:07 2020.

 ----------------------------------------------------------------------
 # B3LYP/6-311++G(d,p) empiricaldispersion=gd3bj scf=xqc pop=npa geom=c
 heck
 ----------------------------------------------------------------------

 --------------------------------------
 CID_65609149_JID_6550_Energie_neutraal
 --------------------------------------
 Structure from the checkpoint file:  "JID_6550.chk"
 Charge =  0 Multiplicity = 1

 SCF Done:  E(RB3LYP) =  -689.782974528     A.U. after   14 cycles
 Normal termination of Gaussian 16 at Fri Dec 11 00:13:52 2020.

 ----------------------------------------------------------------------
 # B3LYP/6-311++G(d,p) empiricaldispersion=gd3bj scf=xqc pop=npa geom=c
 heck
 ----------------------------------------------------------------------

 ------------------------------------
 CID_65609149_JID_6550_Energie_kation
 ------------------------------------
 Structure from the checkpoint file:  "JID_6550.chk"
 Charge =  1 Multiplicity = 2

 SCF Done:  E(UB3LYP) =  -689.470364146     A.U. after   25 cycles
 Normal termination of Gaussian 16 at Fri Dec 11 00:30:36 2020.
 Gaussian 16:  ES64L-G16RevA.03 25-Dec-2016

 ----------------------------------------------------------------------
 # B3LYP/6-311++G(d,p) empiricaldispersion=gd3bj scf=xqc pop=npa geom=c
 heck
 ----------------------------------------------------------------------

 -----------------------------------
 CID_65609149_JID_6550_Energie_anion
 -----------------------------------
 Structure from the checkpoint file:  "JID_6550.chk"
 Charge = -1 Multiplicity = 2

                         Standard orientation:
 ---------------------------------------------------------------------
 Center     Atomic      Atomic             Coordinates (Angstroms)
 Number     Number       Type             X           Y           Z
 ---------------------------------------------------------------------
      1          6           0        2.432119    2.354091    1.036960
      2          6           0        1.243338    1.919630    0.174977
      3          6           0        0.532264    3.124458   -0.451406
      4          6           0        1.664879    0.950945   -0.942390
      5          7           0        2.152133   -0.332830   -0.455885
      6          6           0        1.461314   -1.476835   -0.214987
      7          7           0        2.279683   -2.401235    0.277749
      8          6           0        3.478465   -1.756914    0.315742
      9          7           0        3.459309   -0.503311   -0.116169
     10          6           0       -0.003076   -1.646882   -0.461796
     11          7           0       -0.789451   -0.809857    0.449527
     12          6           0       -2.230222   -0.872042    0.216662
     13          6           0       -3.012003   -0.147593    1.321734
     14          6           0       -4.392038    0.170064    0.698734
     15          6           0       -4.191311    0.073445   -0.843201
     16          6           0       -2.677483   -0.124943   -1.049380
     17          1           0        3.161350    2.918109    0.441395
     18          1           0        2.954061    1.494412    1.465577
     19          1           0        2.095767    3.000413    1.855781
     20          1           0        0.520578    1.376182    0.793992
     21          1           0        1.197147    3.667068   -1.136044
     22          1           0       -0.355763    2.815773   -1.016579
     23          1           0        0.209315    3.829009    0.322631
     24          1           0        0.811212    0.745476   -1.594367
     25          1           0        2.465737    1.381787   -1.550741
     26          1           0        4.390608   -2.222173    0.663729
     27          1           0       -0.244076   -1.342629   -1.487197
     28          1           0       -0.227691   -2.722129   -0.382003
     29          1           0       -0.590322   -1.109962    1.403177
     30          1           0       -2.588480   -1.918311    0.148303
     31          1           0       -3.082736   -0.733514    2.244814
     32          1           0       -2.471375    0.777206    1.558802
     33          1           0       -4.742031    1.160962    1.003715
     34          1           0       -5.148898   -0.546493    1.033912
     35          1           0       -4.564535    0.955681   -1.372006
     36          1           0       -4.738999   -0.788113   -1.241448
     37          1           0       -2.154332    0.840199   -1.071560
     38          1           0       -2.445726   -0.652857   -1.980338
 ---------------------------------------------------------------------

 SCF Done:  E(UB3LYP) =  -689.770714026     A.U. after   31 cycles

 The electronic state is 2-A.
 Alpha  occ. eigenvalues --  -14.30984 -14.25145 -14.21873 -14.21465 -10.15446
 Alpha  occ. eigenvalues --  -10.13230 -10.12534 -10.12155 -10.10095 -10.08501
 Alpha  occ. eigenvalues --  -10.06649 -10.06628 -10.06605 -10.06496 -10.06358
 Alpha  occ. eigenvalues --  -10.06243  -0.99213  -0.83022  -0.81945  -0.76297
 Alpha  occ. eigenvalues --   -0.72691  -0.70945  -0.63804  -0.61426  -0.60961
 Alpha  occ. eigenvalues --   -0.59476  -0.57521  -0.53897  -0.50555  -0.47914
 Alpha  occ. eigenvalues --   -0.47240  -0.46535  -0.43696  -0.40577  -0.39310
 Alpha  occ. eigenvalues --   -0.38920  -0.38392  -0.36701  -0.35706  -0.34555
 Alpha  occ. eigenvalues --   -0.33703  -0.33072  -0.32432  -0.31557  -0.30669
 Alpha  occ. eigenvalues --   -0.29718  -0.28759  -0.26916  -0.26515  -0.24927
 Alpha  occ. eigenvalues --   -0.24587  -0.24432  -0.24011  -0.23866  -0.23391
 Alpha  occ. eigenvalues --   -0.23093  -0.21870  -0.20160  -0.19641  -0.17568
 Alpha  occ. eigenvalues --   -0.14692   0.04235
 Alpha virt. eigenvalues --    0.06335   0.06911   0.07186   0.07789   0.08096
 Alpha virt. eigenvalues --    0.08531   0.08823   0.09313   0.09551   0.10211
 Alpha virt. eigenvalues --    0.10742   0.11007   0.11359   0.11671   0.12389

  Beta  occ. eigenvalues --  -14.30982 -14.25142 -14.21870 -14.21455 -10.15445
  Beta  occ. eigenvalues --  -10.13229 -10.12519 -10.12140 -10.10083 -10.08497
  Beta  occ. eigenvalues --  -10.06616 -10.06614 -10.06586 -10.06475 -10.06333
  Beta  occ. eigenvalues --  -10.06216  -0.99209  -0.83003  -0.81939  -0.76288
  Beta  occ. eigenvalues --   -0.72660  -0.70928  -0.63775  -0.61384  -0.60918
  Beta  occ. eigenvalues --   -0.59430  -0.57474  -0.53892  -0.50524  -0.47867
  Beta  occ. eigenvalues --   -0.47187  -0.46470  -0.43666  -0.40550  -0.39291
  Beta  occ. eigenvalues --   -0.38875  -0.38350  -0.36674  -0.35687  -0.34531
  Beta  occ. eigenvalues --   -0.33678  -0.33037  -0.32404  -0.31525  -0.30636
  Beta  occ. eigenvalues --   -0.29691  -0.28731  -0.26891  -0.26481  -0.24901
  Beta  occ. eigenvalues --   -0.24552  -0.24392  -0.23985  -0.23822  -0.23354
  Beta  occ. eigenvalues --   -0.23054  -0.21833  -0.20152  -0.19632  -0.17561
  Beta  occ. eigenvalues --   -0.14662
  Beta virt. eigenvalues --    0.06395   0.07032   0.07383   0.07576   0.08073
  Beta virt. eigenvalues --    0.08404   0.08924   0.09136   0.09631   0.09926
  Beta virt. eigenvalues --    0.10553   0.11051   0.11286   0.11492   0.11937

 Mulliken charges and spin densities:
               1          2
     1  C   -0.014564  -0.516204
     2  C   -0.666763   1.040556
     3  C    0.588987  -1.268499
     4  C    0.281729  -0.890589
     5  N    0.099817   0.069541
     6  C    0.632630  -0.525082
     7  N   -0.076864   0.043683
     8  C    0.054277   0.044067
     9  N   -0.080211  -0.007808
    10  C   -0.719493  -0.150771
    11  N    0.115842  -0.023577
    12  C   -1.343382   1.312165
    13  C   -0.343951  -0.119154
    14  C    0.837553  -1.275534
    15  C    0.089368  -0.658544
    16  C    0.714884  -0.768967
    17  H    0.034552   0.098971
    18  H    0.109074   0.045739
    19  H   -0.081172   0.221946
    20  H    0.407399  -0.158792
    21  H   -0.081919   0.211468
    22  H   -0.857716   0.997290
    23  H   -0.184530   0.339126
    24  H   -0.117051   0.271595
    25  H   -0.006494   0.211511
    26  H    0.131692   0.028207
    27  H    0.105105   0.067739
    28  H   -0.041982   0.225766
    29  H    0.073268   0.174061
    30  H   -0.088516   0.246509
    31  H   -0.226470   0.392053
    32  H   -0.133897   0.257099
    33  H   -0.121536   0.269508
    34  H   -0.162842   0.308669
    35  H   -0.395129   0.556351
    36  H   -0.154232   0.303962
    37  H    1.218216  -1.130141
    38  H   -0.595682   0.756077
 Sum of Mulliken charges =  -1.00000   1.00000

 Dipole moment (field-independent basis, Debye):
    X=              6.0514    Y=             -1.9533    Z=              1.3730  Tot=              6.5054
 Quadrupole moment (field-independent basis, Debye-Ang):
   XX=           -179.8732   YY=           -156.1851   ZZ=           -139.2298
   XY=             -1.0514   XZ=             -1.9694   YZ=              1.2484

 Summary of Natural Population Analysis:

                                       Natural Population
                Natural  -----------------------------------------------
    Atom  No    Charge         Core      Valence    Rydberg      Total
 -----------------------------------------------------------------------
      C    1   -0.28566      0.99965     2.28125    0.00477     3.28566
      C    2   -0.12658      0.99960     2.11836    0.00862     3.12658
      C    3   -0.28393      0.99965     2.27811    0.00616     3.28393
      C    4   -0.08081      0.99958     2.06960    0.01163     3.08081
      N    5   -0.11059      0.99960     2.59837    0.01262     3.61059
      C    6    0.19880      0.99959     1.78553    0.01608     2.80120
      N    7   -0.26678      0.99971     2.75786    0.00921     3.76678
      C    8    0.08230      0.99970     1.89888    0.01912     2.91770
      N    9   -0.15920      0.99974     2.64929    0.01018     3.65920
      C   10   -0.11051      0.99958     2.10072    0.01021     3.11051
      N   11   -0.33619      0.99972     2.82609    0.01037     3.83619
      C   12   -0.00894      0.99957     1.99713    0.01224     3.00894
      C   13   -0.19231      0.99962     2.18386    0.00883     3.19231
      C   14   -0.19041      0.99965     2.18386    0.00690     3.19041
      C   15   -0.19028      0.99964     2.18311    0.00753     3.19028
      C   16   -0.19600      0.99961     2.18735    0.00903     3.19600
      H   17    0.09501      0.00000     0.40412    0.00087     0.40499
      H   18    0.10533      0.00000     0.39353    0.00114     0.39467
      H   19    0.09888      0.00000     0.40035    0.00077     0.40112
      H   20    0.10840      0.00000     0.38865    0.00295     0.39160
      H   21    0.09509      0.00000     0.40379    0.00112     0.40491
      H   22    0.10251      0.00000     0.39591    0.00158     0.39749
      H   23    0.10289      0.00000     0.39603    0.00108     0.39711
      H   24    0.10725      0.00000     0.39124    0.00151     0.39275
      H   25    0.10383      0.00000     0.39482    0.00135     0.39617
      H   26    0.09048      0.00000     0.40873    0.00079     0.40952
      H   27    0.10455      0.00000     0.39373    0.00172     0.39545
      H   28    0.09763      0.00000     0.40068    0.00168     0.40237
      H   29    0.17322      0.00000     0.32387    0.00292     0.32678
      H   30    0.08043      0.00000     0.41772    0.00185     0.41957
      H   31    0.09948      0.00000     0.39928    0.00124     0.40052
      H   32    0.09914      0.00000     0.39871    0.00214     0.40086
      H   33    0.09904      0.00000     0.39968    0.00128     0.40096
      H   34    0.09710      0.00000     0.40137    0.00154     0.40290
      H   35    0.10099      0.00000     0.39775    0.00126     0.39901
      H   36    0.09633      0.00000     0.40207    0.00159     0.40367
      H   37    0.09835      0.00000     0.39929    0.00236     0.40165
      H   38    0.10119      0.00000     0.39699    0.00182     0.39881
 =======================================================================
   * Total *    0.00000     15.99422    44.80769    0.19810    61.00000

 Normal termination of Gaussian 16 at Fri Dec 11 00:51:27 2020.
