 Gaussian 16, Revision A.03,

 -----------------------------------------------------------
 # opt freq B3LYP/6-31G(d) empiricaldispersion=gd3bj scf=xqc
 -----------------------------------------------------------

 ------------------------------
 CID_53920436_JID_1344_neutraal
 ------------------------------
 Symbolic Z-matrix:
 Charge =  0 Multiplicity = 1

 SCF Done:  E(RB3LYP) =  -495.543633455     A.U. after   17 cycles
 SCF Done:  E(RB3LYP) =  -495.549443755     A.U. after   16 cycles
 SCF Done:  E(RB3LYP) =  -495.550994254     A.U. after   15 cycles
 SCF Done:  E(RB3LYP) =  -495.551197712     A.U. after   15 cycles
 SCF Done:  E(RB3LYP) =  -495.551290444     A.U. after   11 cycles
 SCF Done:  E(RB3LYP) =  -495.551320282     A.U. after   12 cycles
 SCF Done:  E(RB3LYP) =  -495.551330638     A.U. after   12 cycles
 SCF Done:  E(RB3LYP) =  -495.551335104     A.U. after   12 cycles
 SCF Done:  E(RB3LYP) =  -495.551335262     A.U. after   10 cycles
 Optimization completed.
    -- Stationary point found.
 Normal termination of Gaussian 16 at Tue Dec  8 19:46:17 2020.

 --------------------------------------------------------------------
 #N Geom=AllCheck Guess=TCheck SCRF=Check GenChk RB3LYP/6-31G(d) Freq
 --------------------------------------------------------------------

 Structure from the checkpoint file:  "JID_1344.chk"
 ------------------------------
 CID_53920436_JID_1344_neutraal
 ------------------------------
 Charge =  0 Multiplicity = 1

 SCF Done:  E(RB3LYP) =  -495.551335262     A.U. after    1 cycles

  Exact polarizability: 151.928 -10.767  95.922  -9.883 -10.012  58.513
 Approx polarizability: 238.774 -29.635 167.637 -23.100 -23.613  90.355

                      1                      2                      3
                      A                      A                      A
 Frequencies --     48.3522                66.2133               115.9217
 Red. masses --      3.6698                 5.8572                 4.0914
 Frc consts  --      0.0051                 0.0151                 0.0324
 IR Inten    --      1.0470                 0.5423                 3.4346

                      4                      5                      6
                      A                      A                      A
 Frequencies --    152.2976               218.2183               233.3615
 Red. masses --      3.4630                 4.7886                 3.8936
 Frc consts  --      0.0473                 0.1344                 0.1249
 IR Inten    --      2.6900                 1.3701                12.9504

                      7                      8                      9
                      A                      A                      A
 Frequencies --    290.8334               330.2386               380.5082
 Red. masses --      1.1957                 5.2401                 3.1295
 Frc consts  --      0.0596                 0.3367                 0.2670
 IR Inten    --     89.6809                 0.2724                 1.4450

                     10                     11                     12
                      A                      A                      A
 Frequencies --    407.6614               426.0114               461.8762
 Red. masses --      3.6927                 3.0895                 2.7348
 Frc consts  --      0.3616                 0.3304                 0.3437
 IR Inten    --      6.7663                 0.4724                 2.7273

                     13                     14                     15
                      A                      A                      A
 Frequencies --    554.8934               632.8617               652.1785
 Red. masses --      2.7646                 4.7461                 6.2133
 Frc consts  --      0.5015                 1.1200                 1.5570
 IR Inten    --     10.2681                 1.3412                 0.4916

                     16                     17                     18
                      A                      A                      A
 Frequencies --    742.8603               763.2991               850.6224
 Red. masses --      4.2028                 3.5878                 1.4224
 Frc consts  --      1.3665                 1.2316                 0.6064
 IR Inten    --      3.9137                16.5247                39.8109

                     19                     20                     21
                      A                      A                      A
 Frequencies --    853.6335               865.0586               874.3406
 Red. masses --      4.3295                 1.3170                 1.6995
 Frc consts  --      1.8588                 0.5806                 0.7655
 IR Inten    --     34.0312                 2.5911                84.0953

                     22                     23                     24
                      A                      A                      A
 Frequencies --    907.6318               924.5931               984.1886
 Red. masses --      1.5641                 2.0481                 1.3294
 Frc consts  --      0.7592                 1.0316                 0.7587
 IR Inten    --     33.0355                 0.7074                 0.4521

                     25                     26                     27
                      A                      A                      A
 Frequencies --   1000.4524              1034.3371              1060.5329
 Red. masses --      1.3043                 2.5991                 1.8911
 Frc consts  --      0.7692                 1.6383                 1.2532
 IR Inten    --      0.4585                 3.6700                 4.9471

                     28                     29                     30
                      A                      A                      A
 Frequencies --   1114.7499              1135.8384              1146.9181
 Red. masses --      2.0287                 1.4278                 2.2228
 Frc consts  --      1.4853                 1.0853                 1.7227
 IR Inten    --      9.9081                20.5200               177.2357

                     31                     32                     33
                      A                      A                      A
 Frequencies --   1175.3014              1218.1359              1225.1472
 Red. masses --      1.3429                 1.5218                 1.2824
 Frc consts  --      1.0930                 1.3305                 1.1341
 IR Inten    --      1.8299                24.4961                 5.1016

                     34                     35                     36
                      A                      A                      A
 Frequencies --   1237.8940              1341.5866              1359.4623
 Red. masses --      2.3461                 1.3217                 1.3446
 Frc consts  --      2.1182                 1.4016                 1.4641
 IR Inten    --      2.0820                 6.7894                12.1235

                     37                     38                     39
                      A                      A                      A
 Frequencies --   1371.4385              1386.8762              1436.7082
 Red. masses --      1.4224                 4.4269                 1.3845
 Frc consts  --      1.5762                 5.0168                 1.6837
 IR Inten    --      3.4472                 6.8711                24.5871

                     40                     41                     42
                      A                      A                      A
 Frequencies --   1465.9300              1512.7021              1524.1188
 Red. masses --      2.8923                 1.1630                 2.3110
 Frc consts  --      3.6620                 1.5680                 3.1629
 IR Inten    --     29.7877                10.5258                41.0584

                     43                     44                     45
                      A                      A                      A
 Frequencies --   1537.6334              1596.4435              1639.4279
 Red. masses --      1.1106                 6.2821                 7.1411
 Frc consts  --      1.5470                 9.4333                11.3083
 IR Inten    --      3.4382               230.9963                14.0031

                     46                     47                     48
                      A                      A                      A
 Frequencies --   1671.1343              1697.3016              2960.7487
 Red. masses --      6.5830                 1.0911                 1.0730
 Frc consts  --     10.8316                 1.8520                 5.5420
 IR Inten    --      5.0454                33.6913                70.2854

                     49                     50                     51
                      A                      A                      A
 Frequencies --   3059.1799              3082.6236              3110.4265
 Red. masses --      1.0618                 1.0882                 1.1041
 Frc consts  --      5.8545                 6.0928                 6.2934
 IR Inten    --     15.5276                60.5370                18.4387

                     52                     53                     54
                      A                      A                      A
 Frequencies --   3188.9622              3201.5586              3214.0141
 Red. masses --      1.0887                 1.0893                 1.0934
 Frc consts  --      6.5233                 6.5786                 6.6546
 IR Inten    --     10.4339                 5.7980                 5.3983

                     55                     56                     57
                      A                      A                      A
 Frequencies --   3227.9746              3474.0272              3558.0161
 Red. masses --      1.0923                 1.0500                 1.0922
 Frc consts  --      6.7057                 7.4664                 8.1468
 IR Inten    --      2.2340                 0.7869                 0.0750

 - Thermochemistry -
 -------------------
 Temperature   298.150 Kelvin.  Pressure   1.00000 Atm.
 Atom     1 has atomic number  6 and mass  12.00000

 Molecular mass:   150.07931 amu.
 Principal axes and moments of inertia in atomic units:
                           1         2         3
     Eigenvalues --   648.478533162.698363482.00338
           X            0.99998   0.00292   0.00552
           Y           -0.00285   0.99991  -0.01309
           Z           -0.00556   0.01307   0.99990
 This molecule is an asymmetric top.
 Rotational symmetry number  1.
 Warning -- assumption of classical behavior for rotation
           may cause significant error
 Rotational temperatures (Kelvin)      0.13356     0.02739     0.02487
 Rotational constants (GHZ):           2.78304     0.57063     0.51831
 Zero-point vibrational energy     452818.0 (Joules/Mol)
                                  108.22610 (Kcal/Mol)
 Warning -- explicit consideration of  13 degrees of freedom as
           vibrations may cause significant error
 Vibrational temperatures:     69.57    95.27   166.79   219.12   313.97
          (Kelvin)            335.76   418.44   475.14   547.47   586.53
                              612.94   664.54   798.37   910.55   938.34
                             1068.81  1098.22  1223.86  1228.19  1244.63
                             1257.98  1305.88  1330.28  1416.03  1439.43
                             1488.18  1525.87  1603.88  1634.22  1650.16
                             1691.00  1752.63  1762.71  1781.05  1930.24
                             1955.96  1973.19  1995.41  2067.10  2109.15
                             2176.44  2192.87  2212.31  2296.93  2358.77
                             2404.39  2442.04  4259.86  4401.48  4435.21
                             4475.21  4588.21  4606.33  4624.25  4644.34
                             4998.35  5119.19

 Zero-point correction=                           0.172469 (Hartree/Particle)
 Thermal correction to Energy=                    0.182652
 Thermal correction to Enthalpy=                  0.183596
 Thermal correction to Gibbs Free Energy=         0.136110
 Sum of electronic and zero-point Energies=           -495.378866
 Sum of electronic and thermal Energies=              -495.368684
 Sum of electronic and thermal Enthalpies=            -495.367740
 Sum of electronic and thermal Free Energies=         -495.415225

                     E (Thermal)             CV                S
                      KCal/Mol        Cal/Mol-Kelvin    Cal/Mol-Kelvin
 Total                  114.616             38.040             99.941
 Electronic               0.000              0.000              0.000
 Translational            0.889              2.981             40.928
 Rotational               0.889              2.981             30.347
 Vibrational            112.838             32.078             28.666
 Vibration     1          0.595              1.978              4.884
 Vibration     2          0.598              1.970              4.263
 Vibration     3          0.608              1.936              3.167
 Vibration     4          0.619              1.900              2.643
 Vibration     5          0.646              1.813              1.974
 Vibration     6          0.654              1.790              1.853
 Vibration     7          0.687              1.691              1.469
 Vibration     8          0.713              1.615              1.259
 Vibration     9          0.750              1.512              1.037
 Vibration    10          0.772              1.454              0.935
 Vibration    11          0.788              1.414              0.872
 Vibration    12          0.820              1.335              0.761
 Vibration    13          0.910              1.129              0.534

 Optimization completed.
    -- Stationary point found.
 Normal termination of Gaussian 16 at Tue Dec  8 19:50:32 2020.

 ----------------------------------------------------------------------
 # B3LYP/6-311++G(d,p) empiricaldispersion=gd3bj scf=xqc pop=npa geom=c
 heck
 ----------------------------------------------------------------------

 --------------------------------------
 CID_53920436_JID_1344_Energie_neutraal
 --------------------------------------
 Structure from the checkpoint file:  "JID_1344.chk"
 Charge =  0 Multiplicity = 1

 SCF Done:  E(RB3LYP) =  -495.695410593     A.U. after   15 cycles
 Normal termination of Gaussian 16 at Tue Dec  8 19:53:29 2020.

 ----------------------------------------------------------------------
 # B3LYP/6-311++G(d,p) empiricaldispersion=gd3bj scf=xqc pop=npa geom=c
 heck
 ----------------------------------------------------------------------

 ------------------------------------
 CID_53920436_JID_1344_Energie_kation
 ------------------------------------
 Structure from the checkpoint file:  "JID_1344.chk"
 Charge =  1 Multiplicity = 2

 SCF Done:  E(UB3LYP) =  -495.391209713     A.U. after   28 cycles
 Normal termination of Gaussian 16 at Tue Dec  8 19:58:22 2020.
 Gaussian 16:  ES64L-G16RevA.03 25-Dec-2016

 ----------------------------------------------------------------------
 # B3LYP/6-311++G(d,p) empiricaldispersion=gd3bj scf=xqc pop=npa geom=c
 heck
 ----------------------------------------------------------------------

 -----------------------------------
 CID_53920436_JID_1344_Energie_anion
 -----------------------------------
 Structure from the checkpoint file:  "JID_1344.chk"
 Charge = -1 Multiplicity = 2

                         Standard orientation:
 ---------------------------------------------------------------------
 Center     Atomic      Atomic             Coordinates (Angstroms)
 Number     Number       Type             X           Y           Z
 ---------------------------------------------------------------------
      1          6           0       -0.185001    1.500634   -0.062463
      2          6           0        1.170579    1.384650   -0.351025
      3          6           0        1.837501    0.188064   -0.071318
      4          6           0        1.152742   -0.894950    0.497422
      5          6           0       -0.198111   -0.768490    0.783162
      6          6           0       -0.887393    0.429416    0.508012
      7          6           0       -2.369328    0.534052    0.767879
      8          6           0       -3.205041    0.080854   -0.444576
      9          7           0       -2.969420   -1.334839   -0.732551
     10          7           0        3.233682    0.165463   -0.404583
     11          8           0        3.806409   -0.887414   -0.154632
     12          1           0       -0.708843    2.428885   -0.275030
     13          1           0        1.735045    2.202640   -0.788484
     14          1           0        1.702368   -1.807400    0.702453
     15          1           0       -0.745549   -1.598607    1.220077
     16          1           0       -2.645178   -0.090398    1.623970
     17          1           0       -2.633133    1.571070    1.006569
     18          1           0       -4.265496    0.202022   -0.195661
     19          1           0       -2.992541    0.757536   -1.291698
     20          1           0       -3.612003   -1.651251   -1.455989
     21          1           0       -2.031472   -1.454934   -1.111763
 ---------------------------------------------------------------------

 SCF Done:  E(UB3LYP) =  -495.736607167     A.U. after   24 cycles

 The electronic state is 2-A.
 Alpha  occ. eigenvalues --  -18.92359 -14.19372 -14.16879 -10.09033 -10.05406
 Alpha  occ. eigenvalues --  -10.03056 -10.02982 -10.02947 -10.02267 -10.02057
 Alpha  occ. eigenvalues --  -10.01358  -0.91591  -0.78428  -0.71366  -0.65119
 Alpha  occ. eigenvalues --   -0.60303  -0.59447  -0.52496  -0.47314  -0.46248
 Alpha  occ. eigenvalues --   -0.41705  -0.39364  -0.36600  -0.34720  -0.31620
 Alpha  occ. eigenvalues --   -0.30889  -0.29322  -0.27828  -0.27437  -0.26089
 Alpha  occ. eigenvalues --   -0.25529  -0.25403  -0.20840  -0.20502  -0.20427
 Alpha  occ. eigenvalues --   -0.18020  -0.14630  -0.11601  -0.10291  -0.01203
 Alpha  occ. eigenvalues --    0.02746
 Alpha virt. eigenvalues --    0.06987   0.08902   0.09854   0.10314   0.11856
 Alpha virt. eigenvalues --    0.12229   0.12787   0.13429   0.13810   0.14830
 Alpha virt. eigenvalues --    0.15364   0.15921   0.17265   0.18180   0.18559

  Beta  occ. eigenvalues --  -18.91376 -14.19372 -14.16198 -10.09001 -10.05427
  Beta  occ. eigenvalues --  -10.03049 -10.03034 -10.02765 -10.02262 -10.01949
  Beta  occ. eigenvalues --  -10.01162  -0.89877  -0.78407  -0.71098  -0.64813
  Beta  occ. eigenvalues --   -0.60068  -0.58996  -0.51769  -0.46729  -0.46045
  Beta  occ. eigenvalues --   -0.41295  -0.39323  -0.36566  -0.34353  -0.31483
  Beta  occ. eigenvalues --   -0.30417  -0.29178  -0.27777  -0.27176  -0.25622
  Beta  occ. eigenvalues --   -0.25293  -0.22810  -0.20551  -0.20167  -0.18097
  Beta  occ. eigenvalues --   -0.17414  -0.14591  -0.11009  -0.08407  -0.00206
  Beta virt. eigenvalues --    0.06867   0.08796   0.09755   0.10270   0.11083
  Beta virt. eigenvalues --    0.11920   0.12208   0.12833   0.13553   0.13869
  Beta virt. eigenvalues --    0.14909   0.15346   0.16801   0.18068   0.18395

 Mulliken charges and spin densities:
               1          2
     1  C   -0.314713  -0.016822
     2  C   -0.069770   0.100351
     3  C   -0.188327  -0.017980
     4  C   -0.374921   0.177655
     5  C   -0.522264  -0.086892
     6  C    0.944968   0.189954
     7  C   -0.485942   0.012395
     8  C   -0.366888  -0.083140
     9  N   -0.420363  -0.001060
    10  N   -0.304270   0.317530
    11  O   -0.235586   0.338545
    12  H    0.098118   0.004424
    13  H    0.095767  -0.014414
    14  H    0.155984  -0.018272
    15  H    0.139031   0.005572
    16  H    0.123236   0.014369
    17  H    0.110621   0.018687
    18  H    0.045016   0.057984
    19  H    0.125914  -0.003734
    20  H    0.210051   0.004796
    21  H    0.234338   0.000051
 Sum of Mulliken charges =  -1.00000   1.00000

 Dipole moment (field-independent basis, Debye):
    X=            -10.4444    Y=              1.1528    Z=             -0.3982  Tot=             10.5153
 Quadrupole moment (field-independent basis, Debye-Ang):
   XX=           -122.8881   YY=            -75.8439   ZZ=            -72.0034
   XY=              2.2363   XZ=              6.8296   YZ=              1.2613

 Summary of Natural Population Analysis:

                                       Natural Population
                Natural  -----------------------------------------------
    Atom  No    Charge         Core      Valence    Rydberg      Total
 -----------------------------------------------------------------------
      C    1   -0.12716      0.99952     2.11916    0.00847     3.12716
      C    2   -0.07206      0.99952     2.06236    0.01018     3.07206
      C    3    0.03279      0.99945     1.95211    0.01565     2.96721
      C    4   -0.06017      0.99951     2.05072    0.00994     3.06017
      C    5   -0.13421      0.99953     2.12631    0.00837     3.13421
      C    6    0.01727      0.99951     1.97390    0.00931     2.98273
      C    7   -0.19897      0.99960     2.18996    0.00940     3.19897
      C    8   -0.08056      0.99964     2.07088    0.01004     3.08056
      N    9   -0.42622      0.99977     2.91624    0.01021     3.92622
      N   10    0.06665      0.99976     2.39959    0.03401     3.43335
      O   11   -0.09125      0.99990     3.07930    0.01205     4.09125
      H   12    0.08779      0.00000     0.41076    0.00145     0.41221
      H   13    0.09177      0.00000     0.40210    0.00613     0.40823
      H   14    0.10223      0.00000     0.39372    0.00406     0.39777
      H   15    0.09355      0.00000     0.40498    0.00146     0.40645
      H   16    0.09817      0.00000     0.40011    0.00172     0.40183
      H   17    0.09567      0.00000     0.40276    0.00157     0.40433
      H   18    0.08007      0.00000     0.41766    0.00227     0.41993
      H   19    0.07583      0.00000     0.42270    0.00146     0.42417
      H   20    0.16764      0.00000     0.33071    0.00165     0.33236
      H   21    0.18118      0.00000     0.31720    0.00163     0.31882
 =======================================================================
   * Total *   -0.00000     10.99573    28.84321    0.16106    40.00000

 Normal termination of Gaussian 16 at Tue Dec  8 20:03:00 2020.
