 Gaussian 16, Revision A.03,

 -----------------------------------------------------------
 # opt freq B3LYP/6-31G(d) empiricaldispersion=gd3bj scf=xqc
 -----------------------------------------------------------

 -------------------------------
 CID_142678827_JID_9326_neutraal
 -------------------------------
 Symbolic Z-matrix:
 Charge =  0 Multiplicity = 1

 SCF Done:  E(RB3LYP) =  -898.174848937     A.U. after   15 cycles
 SCF Done:  E(RB3LYP) =  -898.182321745     A.U. after   12 cycles
 SCF Done:  E(RB3LYP) =  -898.183159126     A.U. after   12 cycles
 SCF Done:  E(RB3LYP) =  -898.183134243     A.U. after   13 cycles
 SCF Done:  E(RB3LYP) =  -898.182742691     A.U. after   13 cycles
 SCF Done:  E(RB3LYP) =  -898.182484573     A.U. after   12 cycles
 SCF Done:  E(RB3LYP) =  -898.183299567     A.U. after    9 cycles
 SCF Done:  E(RB3LYP) =  -898.183915198     A.U. after   12 cycles
 SCF Done:  E(RB3LYP) =  -898.184143508     A.U. after   11 cycles
 SCF Done:  E(RB3LYP) =  -898.184214074     A.U. after   11 cycles
 SCF Done:  E(RB3LYP) =  -898.184243548     A.U. after   10 cycles
 SCF Done:  E(RB3LYP) =  -898.184249838     A.U. after    9 cycles
 SCF Done:  E(RB3LYP) =  -898.184253049     A.U. after    8 cycles
 SCF Done:  E(RB3LYP) =  -898.184253402     A.U. after    8 cycles
 Optimization completed.
    -- Stationary point found.
 Normal termination of Gaussian 16 at Sun Dec 13 12:37:32 2020.

 --------------------------------------------------------------------
 #N Geom=AllCheck Guess=TCheck SCRF=Check GenChk RB3LYP/6-31G(d) Freq
 --------------------------------------------------------------------

 Structure from the checkpoint file:  "JID_9326.chk"
 -------------------------------
 CID_142678827_JID_9326_neutraal
 -------------------------------
 Charge =  0 Multiplicity = 1

 SCF Done:  E(RB3LYP) =  -898.184253402     A.U. after    1 cycles

  Exact polarizability: 233.374  -8.557 200.597   9.779  12.862  90.167
 Approx polarizability: 370.551 -28.286 324.885  19.659  35.356 142.142

                      1                      2                      3
                      A                      A                      A
 Frequencies --     38.8722                46.8600                53.3756
 Red. masses --      5.1089                 5.4523                 4.3055
 Frc consts  --      0.0045                 0.0071                 0.0072
 IR Inten    --      0.4280                 4.7286                 0.2201

                      4                      5                      6
                      A                      A                      A
 Frequencies --     67.9415                77.5263                98.7546
 Red. masses --      3.4423                 3.3000                 2.5224
 Frc consts  --      0.0094                 0.0117                 0.0145
 IR Inten    --      0.7289                 4.4401                 5.1452

                      7                      8                      9
                      A                      A                      A
 Frequencies --    115.4502               130.2951               148.9862
 Red. masses --      3.9441                 3.1621                 1.6654
 Frc consts  --      0.0310                 0.0316                 0.0218
 IR Inten    --      1.1529                 1.8219                 0.2952

                     10                     11                     12
                      A                      A                      A
 Frequencies --    154.6834               166.1144               187.9051
 Red. masses --      1.2248                 1.7070                 3.2312
 Frc consts  --      0.0173                 0.0278                 0.0672
 IR Inten    --      0.6430                 0.4664                 1.3353

                     13                     14                     15
                      A                      A                      A
 Frequencies --    207.2895               236.0504               266.1408
 Red. masses --      4.8478                 3.5587                 3.6487
 Frc consts  --      0.1227                 0.1168                 0.1523
 IR Inten    --      4.9542                11.0470                 0.7300

                     16                     17                     18
                      A                      A                      A
 Frequencies --    290.4187               332.4988               349.6644
 Red. masses --      5.6905                 6.8699                 7.0138
 Frc consts  --      0.2828                 0.4475                 0.5052
 IR Inten    --      7.8923                 1.7790                 1.3242

                     19                     20                     21
                      A                      A                      A
 Frequencies --    366.5743               367.8279               400.3562
 Red. masses --      4.5425                 1.1862                 4.4619
 Frc consts  --      0.3596                 0.0946                 0.4214
 IR Inten    --      2.4691               130.5859                 3.1270

                     22                     23                     24
                      A                      A                      A
 Frequencies --    421.2935               433.4275               474.9819
 Red. masses --      3.7798                 3.5753                 4.9434
 Frc consts  --      0.3953                 0.3957                 0.6571
 IR Inten    --      2.0727                12.0273                 2.8144

                     25                     26                     27
                      A                      A                      A
 Frequencies --    491.2802               520.0740               588.1753
 Red. masses --      2.8458                 3.7166                 5.1903
 Frc consts  --      0.4047                 0.5923                 1.0579
 IR Inten    --      4.5471                 4.5246                 5.9579

                     28                     29                     30
                      A                      A                      A
 Frequencies --    611.5357               627.5781               661.9700
 Red. masses --      5.5354                 6.3020                 4.5539
 Frc consts  --      1.2197                 1.4624                 1.1757
 IR Inten    --      2.1010                10.1102                 8.1668

                     31                     32                     33
                      A                      A                      A
 Frequencies --    715.7698               729.0797               750.9393
 Red. masses --      5.6275                 5.1960                 3.8678
 Frc consts  --      1.6987                 1.6273                 1.2851
 IR Inten    --      1.5618                13.1669                 1.9570

                     34                     35                     36
                      A                      A                      A
 Frequencies --    779.0162               795.2071               837.6214
 Red. masses --      4.1943                 6.2990                 4.9017
 Frc consts  --      1.4997                 2.3468                 2.0263
 IR Inten    --     31.9774                15.2505                45.9158

                     37                     38                     39
                      A                      A                      A
 Frequencies --    875.5103               889.9148               898.6555
 Red. masses --      2.1306                 1.5814                 1.5500
 Frc consts  --      0.9622                 0.7379                 0.7375
 IR Inten    --      0.5445                 3.0374                22.6829

                     40                     41                     42
                      A                      A                      A
 Frequencies --    925.9220               950.0771               980.7023
 Red. masses --      1.5422                 1.8123                 4.7805
 Frc consts  --      0.7790                 0.9638                 2.7090
 IR Inten    --      3.4049                 7.5321                49.4371

                     43                     44                     45
                      A                      A                      A
 Frequencies --   1005.5184              1024.4057              1047.5211
 Red. masses --      1.9391                 3.3146                 4.3452
 Frc consts  --      1.1551                 2.0494                 2.8092
 IR Inten    --      0.2774                22.8705               115.9946

                     46                     47                     48
                      A                      A                      A
 Frequencies --   1057.5587              1080.1411              1103.0585
 Red. masses --      3.6970                 3.3558                 2.9180
 Frc consts  --      2.4362                 2.3068                 2.0919
 IR Inten    --     19.8868               131.9924                 5.8228

                     49                     50                     51
                      A                      A                      A
 Frequencies --   1181.1637              1186.4468              1187.5293
 Red. masses --      2.2145                 1.2542                 1.3976
 Frc consts  --      1.8203                 1.0402                 1.1612
 IR Inten    --     43.5203                27.1240                 9.8273

                     52                     53                     54
                      A                      A                      A
 Frequencies --   1206.3201              1215.6213              1230.4087
 Red. masses --      1.2712                 1.3949                 1.3757
 Frc consts  --      1.0899                 1.2145                 1.2270
 IR Inten    --     19.8369                 6.7759                16.7456

                     55                     56                     57
                      A                      A                      A
 Frequencies --   1233.3903              1242.9763              1275.2424
 Red. masses --      1.7540                 2.5959                 1.6437
 Frc consts  --      1.5721                 2.3630                 1.5749
 IR Inten    --      6.5339                37.1353                42.6752

                     58                     59                     60
                      A                      A                      A
 Frequencies --   1293.1300              1323.3250              1334.3689
 Red. masses --      2.7510                 1.8383                 3.4504
 Frc consts  --      2.7104                 1.8967                 3.6196
 IR Inten    --    215.3803                55.1949                58.8713

                     61                     62                     63
                      A                      A                      A
 Frequencies --   1371.1324              1379.7779              1392.2403
 Red. masses --      2.0550                 2.5956                 4.8906
 Frc consts  --      2.2763                 2.9114                 5.5853
 IR Inten    --      9.3376                32.5009                 0.4254

                     64                     65                     66
                      A                      A                      A
 Frequencies --   1406.8394              1430.7566              1436.4858
 Red. masses --      1.2632                 2.1088                 1.6756
 Frc consts  --      1.4731                 2.5434                 2.0371
 IR Inten    --      4.7087                96.8344                16.5515

                     67                     68                     69
                      A                      A                      A
 Frequencies --   1473.7603              1486.0727              1499.2325
 Red. masses --      1.4571                 1.3305                 1.3658
 Frc consts  --      1.8647                 1.7312                 1.8088
 IR Inten    --     95.1215                 3.1086                 5.9436

                     70                     71                     72
                      A                      A                      A
 Frequencies --   1513.6382              1515.7306              1518.7583
 Red. masses --      1.2676                 1.0570                 1.1011
 Frc consts  --      1.7112                 1.4307                 1.4964
 IR Inten    --     37.8294                 7.3387                 6.3775

                     73                     74                     75
                      A                      A                      A
 Frequencies --   1523.4148              1536.3632              1539.2395
 Red. masses --      1.7687                 1.1016                 1.0536
 Frc consts  --      2.4184                 1.5320                 1.4708
 IR Inten    --     20.4084                 2.7598                 2.6781

                     76                     77                     78
                      A                      A                      A
 Frequencies --   1542.8623              1546.5309              1600.6189
 Red. masses --      1.7243                 1.5189                 8.6010
 Frc consts  --      2.4184                 2.1404                12.9829
 IR Inten    --     44.6025               135.3033                47.4556

                     79                     80                     81
                      A                      A                      A
 Frequencies --   1617.9239              1680.3948              1811.6229
 Red. masses --      5.6047                 6.5004                10.3622
 Frc consts  --      8.6441                10.8147                20.0372
 IR Inten    --      5.6528                11.8897               228.4162

                     82                     83                     84
                      A                      A                      A
 Frequencies --   2955.6035              3002.8816              3048.0847
 Red. masses --      1.0824                 1.0708                 1.0353
 Frc consts  --      5.5710                 5.6892                 5.6671
 IR Inten    --     98.4655                46.4662                78.3694

                     85                     86                     87
                      A                      A                      A
 Frequencies --   3049.1720              3064.2046              3107.3697
 Red. masses --      1.0360                 1.0608                 1.0985
 Frc consts  --      5.6749                 5.8682                 6.2491
 IR Inten    --     45.1231                18.1413                23.2874

                     88                     89                     90
                      A                      A                      A
 Frequencies --   3111.8108              3125.6081              3128.7666
 Red. masses --      1.0987                 1.1013                 1.0998
 Frc consts  --      6.2683                 6.3393                 6.3435
 IR Inten    --     47.3284                20.6567                26.5194

                     91                     92                     93
                      A                      A                      A
 Frequencies --   3167.5720              3169.2828              3174.8945
 Red. masses --      1.1056                 1.1062                 1.0905
 Frc consts  --      6.5357                 6.5463                 6.4765
 IR Inten    --     22.4348                19.8951                24.4646

                     94                     95                     96
                      A                      A                      A
 Frequencies --   3234.8435              3244.0469              3724.5509
 Red. masses --      1.0899                 1.0899                 1.0656
 Frc consts  --      6.7198                 6.7577                 8.7098
 IR Inten    --      3.5571                 3.1625                14.0565

 - Thermochemistry -
 -------------------
 Temperature   298.150 Kelvin.  Pressure   1.00000 Atm.
 Atom     1 has atomic number  6 and mass  12.00000

 Molecular mass:   261.10011 amu.
 Principal axes and moments of inertia in atomic units:
                           1         2         3
     Eigenvalues --  4020.051946171.631989524.13717
           X            0.99929   0.03741   0.00329
           Y           -0.03740   0.99929  -0.00339
           Z           -0.00341   0.00327   0.99999
 This molecule is an asymmetric top.
 Rotational symmetry number  1.
 Warning -- assumption of classical behavior for rotation
           may cause significant error
 Rotational temperatures (Kelvin)      0.02155     0.01403     0.00909
 Rotational constants (GHZ):           0.44893     0.29243     0.18949
 Zero-point vibrational energy     714305.4 (Joules/Mol)
                                  170.72308 (Kcal/Mol)
 Warning -- explicit consideration of  28 degrees of freedom as
           vibrations may cause significant error
 Vibrational temperatures:     55.93    67.42    76.80    97.75   111.54
          (Kelvin)            142.09   166.11   187.47   214.36   222.55
                              239.00   270.35   298.24   339.62   382.92
                              417.85   478.39   503.09   527.42   529.22
                              576.02   606.15   623.61   683.39   706.84
                              748.27   846.25   879.86   902.94   952.43
                             1029.83  1048.98  1080.43  1120.83  1144.13
                             1205.15  1259.66  1280.39  1292.96  1332.20
                             1366.95  1411.01  1446.72  1473.89  1507.15
                             1521.59  1554.08  1587.06  1699.43  1707.03
                             1708.59  1735.63  1749.01  1770.28  1774.57
                             1788.37  1834.79  1860.53  1903.97  1919.86
                             1972.75  1985.19  2003.12  2024.13  2058.54
                             2066.78  2120.41  2138.13  2157.06  2177.79
                             2180.80  2185.15  2191.85  2210.48  2214.62
                             2219.83  2225.11  2302.93  2327.83  2417.71
                             2606.52  4252.45  4320.48  4385.51  4387.08
                             4408.71  4470.81  4477.20  4497.05  4501.60
                             4557.43  4559.89  4567.97  4654.22  4667.46
                             5358.80

 Zero-point correction=                           0.272065 (Hartree/Particle)
 Thermal correction to Energy=                    0.290429
 Thermal correction to Enthalpy=                  0.291373
 Thermal correction to Gibbs Free Energy=         0.224645
 Sum of electronic and zero-point Energies=           -897.912189
 Sum of electronic and thermal Energies=              -897.893825
 Sum of electronic and thermal Enthalpies=            -897.892880
 Sum of electronic and thermal Free Energies=         -897.959608

                     E (Thermal)             CV                S
                      KCal/Mol        Cal/Mol-Kelvin    Cal/Mol-Kelvin
 Total                  182.247             67.286            140.441
 Electronic               0.000              0.000              0.000
 Translational            0.889              2.981             42.579
 Rotational               0.889              2.981             33.824
 Vibrational            180.469             61.324             64.039
 Vibration     1          0.594              1.981              5.316
 Vibration     2          0.595              1.979              4.946
 Vibration     3          0.596              1.976              4.688
 Vibration     4          0.598              1.969              4.212
 Vibration     5          0.599              1.964              3.953
 Vibration     6          0.604              1.950              3.479
 Vibration     7          0.608              1.937              3.175
 Vibration     8          0.612              1.923              2.942
 Vibration     9          0.618              1.904              2.685
 Vibration    10          0.620              1.897              2.614
 Vibration    11          0.624              1.884              2.479
 Vibration    12          0.633              1.856              2.248
 Vibration    13          0.641              1.829              2.067
 Vibration    14          0.655              1.786              1.832
 Vibration    15          0.672              1.735              1.621
 Vibration    16          0.686              1.692              1.472
 Vibration    17          0.714              1.611              1.248
 Vibration    18          0.727              1.576              1.168
 Vibration    19          0.739              1.541              1.094
 Vibration    20          0.740              1.538              1.089
 Vibration    21          0.766              1.469              0.961
 Vibration    22          0.784              1.424              0.888
 Vibration    23          0.794              1.397              0.848
 Vibration    24          0.832              1.306              0.724
 Vibration    25          0.847              1.269              0.680
 Vibration    26          0.875              1.206              0.610
 Vibration    27          0.945              1.057              0.470
 Vibration    28          0.971              1.007              0.430

                           ! Non-Optimized Parameters !
 Normal termination of Gaussian 16 at Sun Dec 13 12:54:56 2020.

 ----------------------------------------------------------------------
 # B3LYP/6-311++G(d,p) empiricaldispersion=gd3bj scf=xqc pop=npa geom=c
 heck
 ----------------------------------------------------------------------

 ---------------------------------------
 CID_142678827_JID_9326_Energie_neutraal
 ---------------------------------------
 Structure from the checkpoint file:  "JID_9326.chk"
 Charge =  0 Multiplicity = 1

 SCF Done:  E(RB3LYP) =  -898.438299221     A.U. after   16 cycles
 Normal termination of Gaussian 16 at Sun Dec 13 13:02:46 2020.

 ----------------------------------------------------------------------
 # B3LYP/6-311++G(d,p) empiricaldispersion=gd3bj scf=xqc pop=npa geom=c
 heck
 ----------------------------------------------------------------------

 -------------------------------------
 CID_142678827_JID_9326_Energie_kation
 -------------------------------------
 Structure from the checkpoint file:  "JID_9326.chk"
 Charge =  1 Multiplicity = 2

 SCF Done:  E(UB3LYP) =  -898.131747773     A.U. after   29 cycles
 Normal termination of Gaussian 16 at Sun Dec 13 13:23:19 2020.
 Gaussian 16:  ES64L-G16RevA.03 25-Dec-2016

 ----------------------------------------------------------------------
 # B3LYP/6-311++G(d,p) empiricaldispersion=gd3bj scf=xqc pop=npa geom=c
 heck
 ----------------------------------------------------------------------

 ------------------------------------
 CID_142678827_JID_9326_Energie_anion
 ------------------------------------
 Structure from the checkpoint file:  "JID_9326.chk"
 Charge = -1 Multiplicity = 2

                         Standard orientation:
 ---------------------------------------------------------------------
 Center     Atomic      Atomic             Coordinates (Angstroms)
 Number     Number       Type             X           Y           Z
 ---------------------------------------------------------------------
      1          6           0        3.550058   -1.983573    1.000697
      2          8           0        2.884247   -1.723344   -0.244498
      3          6           0        1.857656   -0.819337   -0.172027
      4          6           0        2.106392    0.556645    0.122670
      5          6           0        1.060380    1.445493    0.189511
      6          6           0       -0.278613    1.033042   -0.047695
      7          6           0       -0.520156   -0.338769   -0.392347
      8          6           0        0.575905   -1.239778   -0.434016
      9          6           0       -1.859722   -0.741696   -0.663904
     10          6           0       -2.853069    0.220882   -0.562811
     11          7           0       -2.647518    1.508575   -0.229104
     12          6           0       -1.410285    1.909469    0.021388
     13          6           0       -1.269445    3.353450    0.398494
     14          8           0       -2.194558    4.135116    0.437500
     15          6           0       -2.230554   -2.169190   -0.968147
     16          6           0       -2.403415   -2.999288    0.320052
     17          8           0       -3.466205   -2.525702    1.126728
     18          8           0        3.377714    1.002756    0.378582
     19          6           0        4.260300    0.979277   -0.753167
     20          1           0        4.337204   -2.704560    0.774045
     21          1           0        2.847512   -2.420569    1.720701
     22          1           0        3.984466   -1.070498    1.416690
     23          1           0        1.306384    2.473838    0.420252
     24          1           0        0.427850   -2.287446   -0.665611
     25          1           0       -3.886593   -0.053037   -0.767221
     26          1           0       -0.246772    3.691921    0.656599
     27          1           0       -3.181436   -2.189351   -1.510759
     28          1           0       -1.481202   -2.645517   -1.610576
     29          1           0       -2.661706   -4.029618    0.057901
     30          1           0       -1.453866   -3.022268    0.878145
     31          1           0       -3.258743   -1.610305    1.375375
     32          1           0        4.375019   -0.035330   -1.145395
     33          1           0        3.881923    1.640088   -1.542487
     34          1           0        5.220403    1.352266   -0.392612
 ---------------------------------------------------------------------

 SCF Done:  E(UB3LYP) =  -898.480859792     A.U. after   25 cycles

 The electronic state is 2-A.
 Alpha  occ. eigenvalues --  -19.04366 -19.04277 -19.01927 -18.94623 -14.14834
 Alpha  occ. eigenvalues --  -10.12884 -10.12843 -10.11384 -10.10979 -10.10929
 Alpha  occ. eigenvalues --  -10.08435 -10.06351 -10.06290 -10.06110 -10.06107
 Alpha  occ. eigenvalues --  -10.05060 -10.04936 -10.04889 -10.03960  -0.96801
 Alpha  occ. eigenvalues --   -0.94756  -0.92164  -0.88238  -0.79604  -0.73354
 Alpha  occ. eigenvalues --   -0.68818  -0.65186  -0.64319  -0.61625  -0.59253
 Alpha  occ. eigenvalues --   -0.58647  -0.53790  -0.51201  -0.49853  -0.48343
 Alpha  occ. eigenvalues --   -0.44010  -0.42239  -0.41704  -0.40474  -0.39096
 Alpha  occ. eigenvalues --   -0.37740  -0.37169  -0.36565  -0.35272  -0.34729
 Alpha  occ. eigenvalues --   -0.34651  -0.32908  -0.32452  -0.31268  -0.30557
 Alpha  occ. eigenvalues --   -0.28871  -0.28451  -0.27593  -0.26894  -0.26627
 Alpha  occ. eigenvalues --   -0.26389  -0.25466  -0.24225  -0.23464  -0.22087
 Alpha  occ. eigenvalues --   -0.21540  -0.19824  -0.17892  -0.17369  -0.15821
 Alpha  occ. eigenvalues --   -0.12843  -0.11110  -0.10219  -0.09638   0.01413
 Alpha virt. eigenvalues --    0.06389   0.07716   0.08132   0.08724   0.09566
 Alpha virt. eigenvalues --    0.09911   0.10330   0.10566   0.10826   0.11255
 Alpha virt. eigenvalues --    0.11350   0.12340   0.13001   0.13091   0.13485

  Beta  occ. eigenvalues --  -19.04359 -19.04275 -19.01925 -18.94204 -14.14485
  Beta  occ. eigenvalues --  -10.12872 -10.12840 -10.11351 -10.10941 -10.10822
  Beta  occ. eigenvalues --  -10.08303 -10.06393 -10.06316 -10.06185 -10.06163
  Beta  occ. eigenvalues --  -10.04950 -10.04727 -10.04687 -10.03611  -0.96749
  Beta  occ. eigenvalues --   -0.94729  -0.92154  -0.87494  -0.79057  -0.73073
  Beta  occ. eigenvalues --   -0.68451  -0.64967  -0.64226  -0.61419  -0.59069
  Beta  occ. eigenvalues --   -0.58455  -0.53432  -0.50904  -0.49753  -0.48026
  Beta  occ. eigenvalues --   -0.43756  -0.42128  -0.41554  -0.40405  -0.38961
  Beta  occ. eigenvalues --   -0.37607  -0.37049  -0.36502  -0.35154  -0.34649
  Beta  occ. eigenvalues --   -0.34578  -0.32731  -0.32351  -0.31120  -0.30359
  Beta  occ. eigenvalues --   -0.28668  -0.27985  -0.27257  -0.26532  -0.26432
  Beta  occ. eigenvalues --   -0.26011  -0.25260  -0.23937  -0.22646  -0.21648
  Beta  occ. eigenvalues --   -0.20964  -0.19091  -0.17687  -0.17223  -0.14932
  Beta  occ. eigenvalues --   -0.12053  -0.10669  -0.09238  -0.08649
  Beta virt. eigenvalues --    0.06346   0.06905   0.07835   0.08192   0.09116
  Beta virt. eigenvalues --    0.09774   0.10225   0.10347   0.10833   0.11048
  Beta virt. eigenvalues --    0.11281   0.11482   0.12310   0.13051   0.13100

 Mulliken charges and spin densities:
               1          2
     1  C   -0.235616  -0.006962
     2  O   -0.155703  -0.002194
     3  C   -0.229806   0.050102
     4  C   -0.654151  -0.021322
     5  C   -0.703227   0.108135
     6  C    1.437591  -0.005934
     7  C    0.921080  -0.020434
     8  C   -0.386801   0.100815
     9  C    0.125673   0.228693
    10  C   -0.152636  -0.069522
    11  N    0.021727   0.171065
    12  C   -0.820264   0.187446
    13  C   -0.352938   0.088522
    14  O   -0.327839   0.147699
    15  C   -0.488614   0.017323
    16  C   -0.439330  -0.026383
    17  O   -0.290038  -0.001758
    18  O   -0.157128   0.000099
    19  C   -0.264628   0.002852
    20  H    0.116852   0.013141
    21  H    0.120455  -0.000382
    22  H    0.181479  -0.002402
    23  H    0.122460  -0.009148
    24  H    0.137513  -0.002828
    25  H    0.156007   0.003657
    26  H    0.073047  -0.009338
    27  H    0.183940   0.008638
    28  H    0.095390   0.029181
    29  H    0.108546   0.024467
    30  H    0.161884  -0.007126
    31  H    0.271150   0.000300
    32  H    0.176105  -0.000318
    33  H    0.123086  -0.001093
    34  H    0.124730   0.005009
 Sum of Mulliken charges =  -1.00000   1.00000

 Dipole moment (field-independent basis, Debye):
    X=              8.8667    Y=             -6.9747    Z=             -0.7638  Tot=             11.3070
 Quadrupole moment (field-independent basis, Debye-Ang):
   XX=           -153.5851   YY=           -161.1017   ZZ=           -120.0829
   XY=             16.9274   XZ=              4.1276   YZ=             -2.4259

 Summary of Natural Population Analysis:

                                       Natural Population
                Natural  -----------------------------------------------
    Atom  No    Charge         Core      Valence    Rydberg      Total
 -----------------------------------------------------------------------
      C    1   -0.10014      0.99960     2.09156    0.00898     3.10014
      O    2   -0.30280      0.99987     3.28753    0.01540     4.30280
      C    3    0.20407      0.99933     1.78560    0.01099     2.79593
      C    4    0.11034      0.99938     1.87148    0.01881     2.88966
      C    5   -0.07915      0.99951     2.07118    0.00846     3.07915
      C    6   -0.03679      0.99943     2.02878    0.00859     3.03679
      C    7   -0.02546      0.99941     2.01780    0.00825     3.02546
      C    8   -0.12224      0.99954     2.10501    0.01769     3.12224
      C    9    0.02207      0.99948     1.96872    0.00973     2.97793
      C   10   -0.00800      0.99953     1.99333    0.01515     3.00800
      N   11   -0.16661      0.99968     2.65416    0.01278     3.66661
      C   12    0.10560      0.99941     1.88171    0.01327     2.89440
      C   13    0.21074      0.99972     1.76854    0.02100     2.78926
      O   14   -0.23315      0.99988     3.22497    0.00829     4.23315
      C   15   -0.21350      0.99961     2.20590    0.00798     3.21350
      C   16   -0.00079      0.99961     1.98953    0.01165     3.00079
      O   17   -0.37460      0.99990     3.36766    0.00705     4.37460
      O   18   -0.29649      0.99986     3.28497    0.01166     4.29649
      C   19   -0.09973      0.99960     2.09206    0.00807     3.09973
      H   20    0.08323      0.00000     0.41573    0.00104     0.41677
      H   21    0.08080      0.00000     0.41755    0.00165     0.41920
      H   22    0.08914      0.00000     0.40927    0.00159     0.41086
      H   23    0.10081      0.00000     0.39694    0.00225     0.39919
      H   24    0.09839      0.00000     0.39983    0.00177     0.40161
      H   25    0.08263      0.00000     0.41593    0.00143     0.41737
      H   26    0.03274      0.00000     0.46522    0.00203     0.46726
      H   27    0.10081      0.00000     0.39782    0.00137     0.39919
      H   28    0.09986      0.00000     0.39805    0.00208     0.40014
      H   29    0.07676      0.00000     0.42105    0.00219     0.42324
      H   30    0.07426      0.00000     0.42422    0.00151     0.42574
      H   31    0.23378      0.00000     0.26359    0.00263     0.26622
      H   32    0.08807      0.00000     0.41032    0.00161     0.41193
      H   33    0.08195      0.00000     0.41675    0.00130     0.41805
      H   34    0.08352      0.00000     0.41560    0.00088     0.41648
 =======================================================================
   * Total *    0.00011     18.99235    49.75839    0.24915    68.99989

 Normal termination of Gaussian 16 at Sun Dec 13 13:40:50 2020.
