 Gaussian 16, Revision A.03,

 -----------------------------------------------------------
 # opt freq B3LYP/6-31G(d) empiricaldispersion=gd3bj scf=xqc
 -----------------------------------------------------------

 ------------------------------
 CID_80244294_JID_6126_neutraal
 ------------------------------
 Symbolic Z-matrix:
 Charge =  0 Multiplicity = 1

 SCF Done:  E(RB3LYP) =  -728.159478506     A.U. after   15 cycles
 SCF Done:  E(RB3LYP) =  -728.162550781     A.U. after   12 cycles
 SCF Done:  E(RB3LYP) =  -728.162842875     A.U. after   12 cycles
 SCF Done:  E(RB3LYP) =  -728.162871564     A.U. after   11 cycles
 SCF Done:  E(RB3LYP) =  -728.163061586     A.U. after   10 cycles
 SCF Done:  E(RB3LYP) =  -728.163123476     A.U. after   11 cycles
 SCF Done:  E(RB3LYP) =  -728.163148078     A.U. after   11 cycles
 SCF Done:  E(RB3LYP) =  -728.163158184     A.U. after   10 cycles
 SCF Done:  E(RB3LYP) =  -728.163187541     A.U. after   11 cycles
 SCF Done:  E(RB3LYP) =  -728.163213165     A.U. after   11 cycles
 SCF Done:  E(RB3LYP) =  -728.163926602     A.U. after   10 cycles
 SCF Done:  E(RB3LYP) =  -728.163927875     A.U. after    9 cycles
 SCF Done:  E(RB3LYP) =  -728.163928071     A.U. after    7 cycles
 SCF Done:  E(RB3LYP) =  -728.163928107     A.U. after    7 cycles
 SCF Done:  E(RB3LYP) =  -728.163928111     A.U. after    6 cycles
 Optimization completed.
    -- Stationary point found.
 Normal termination of Gaussian 16 at Thu Dec 10 22:02:25 2020.

 --------------------------------------------------------------------
 #N Geom=AllCheck Guess=TCheck SCRF=Check GenChk RB3LYP/6-31G(d) Freq
 --------------------------------------------------------------------

 Structure from the checkpoint file:  "JID_6126.chk"
 ------------------------------
 CID_80244294_JID_6126_neutraal
 ------------------------------
 Charge =  0 Multiplicity = 1

 SCF Done:  E(RB3LYP) =  -728.163928111     A.U. after    1 cycles

  Exact polarizability: 173.386   8.356 153.889  -9.922   2.833  98.547
 Approx polarizability: 235.222  12.975 224.939 -13.907   5.628 156.791

                      1                      2                      3
                      A                      A                      A
 Frequencies --     12.0364                38.1521                50.9390
 Red. masses --      3.9448                 3.4869                 2.8457
 Frc consts  --      0.0003                 0.0030                 0.0044
 IR Inten    --      0.2626                 0.2789                 0.0398

                      4                      5                      6
                      A                      A                      A
 Frequencies --     53.7564                56.9942                73.3301
 Red. masses --      2.3506                 1.2035                 3.0758
 Frc consts  --      0.0040                 0.0023                 0.0097
 IR Inten    --      0.1734                 0.6110                 1.8511

                      7                      8                      9
                      A                      A                      A
 Frequencies --     86.9606               128.2091               157.1114
 Red. masses --      4.4547                 5.4273                 4.6523
 Frc consts  --      0.0198                 0.0526                 0.0677
 IR Inten    --      3.6382                 0.7897                 2.2007

                     10                     11                     12
                      A                      A                      A
 Frequencies --    172.5576               203.3548               220.8205
 Red. masses --      3.1566                 3.0452                 1.3380
 Frc consts  --      0.0554                 0.0742                 0.0384
 IR Inten    --      0.5178                 3.3911                 2.1986

                     13                     14                     15
                      A                      A                      A
 Frequencies --    236.9346               266.0545               303.6012
 Red. masses --      1.2569                 2.9080                 1.8629
 Frc consts  --      0.0416                 0.1213                 0.1012
 IR Inten    --      1.4318                 3.0244                 2.5250

                     16                     17                     18
                      A                      A                      A
 Frequencies --    353.0324               378.4760               407.3323
 Red. masses --      2.7778                 3.1556                 3.7500
 Frc consts  --      0.2040                 0.2663                 0.3666
 IR Inten    --      5.4126                12.8078                 1.4094

                     19                     20                     21
                      A                      A                      A
 Frequencies --    428.9620               445.0070               461.1930
 Red. masses --      2.7521                 3.1527                 2.4831
 Frc consts  --      0.2984                 0.3678                 0.3112
 IR Inten    --      6.6730                 3.4486                 2.1796

                     22                     23                     24
                      A                      A                      A
 Frequencies --    537.5872               550.5024               564.9981
 Red. masses --      4.1634                 4.3796                 3.5756
 Frc consts  --      0.7089                 0.7820                 0.6725
 IR Inten    --      4.1131                 6.5728                 3.5201

                     25                     26                     27
                      A                      A                      A
 Frequencies --    612.9671               675.7980               736.9415
 Red. masses --      4.9079                 3.8208                 5.0391
 Frc consts  --      1.0865                 1.0281                 1.6124
 IR Inten    --     10.8273                 5.7326                 1.6555

                     28                     29                     30
                      A                      A                      A
 Frequencies --    756.0175               775.8451               788.3818
 Red. masses --      9.2797                 1.9399                 1.5254
 Frc consts  --      3.1250                 0.6880                 0.5586
 IR Inten    --     20.1273                15.7284                 8.9784

                     31                     32                     33
                      A                      A                      A
 Frequencies --    802.4441               830.8324               850.1337
 Red. masses --      1.2058                 1.7218                 2.5046
 Frc consts  --      0.4575                 0.7003                 1.0665
 IR Inten    --     19.0322                 6.1668                 4.9959

                     34                     35                     36
                      A                      A                      A
 Frequencies --    889.4056               919.9003               925.5764
 Red. masses --      2.6988                 1.7074                 1.8692
 Frc consts  --      1.2578                 0.8513                 0.9435
 IR Inten    --      1.7320                 0.5168                 4.1531

                     37                     38                     39
                      A                      A                      A
 Frequencies --    955.7685               989.2798              1002.4019
 Red. masses --      2.2978                 2.0826                 1.2945
 Frc consts  --      1.2367                 1.2009                 0.7664
 IR Inten    --      2.3504                 7.8998                 0.5905

                     40                     41                     42
                      A                      A                      A
 Frequencies --   1017.6783              1039.5996              1053.0539
 Red. masses --      5.0824                 2.6177                 2.0598
 Frc consts  --      3.1013                 1.6669                 1.3458
 IR Inten    --     12.3063                13.8338                 4.3535

                     43                     44                     45
                      A                      A                      A
 Frequencies --   1074.9619              1102.8402              1115.0102
 Red. masses --      1.5758                 2.6782                 1.9213
 Frc consts  --      1.0729                 1.9192                 1.4073
 IR Inten    --      5.3383                56.3783                10.7144

                     46                     47                     48
                      A                      A                      A
 Frequencies --   1128.2052              1135.2136              1164.0111
 Red. masses --      1.5427                 1.9974                 2.1958
 Frc consts  --      1.1569                 1.5166                 1.7529
 IR Inten    --     12.5531                56.3967                71.4720

                     49                     50                     51
                      A                      A                      A
 Frequencies --   1194.2699              1207.6318              1246.8332
 Red. masses --      1.2281                 1.7534                 2.1302
 Frc consts  --      1.0320                 1.5066                 1.9512
 IR Inten    --      1.6283                23.2171               177.3062

                     52                     53                     54
                      A                      A                      A
 Frequencies --   1264.8123              1280.1377              1298.1850
 Red. masses --      2.2091                 2.1051                 3.5495
 Frc consts  --      2.0822                 2.0325                 3.5245
 IR Inten    --     13.5763               131.5553                 0.2976

                     55                     56                     57
                      A                      A                      A
 Frequencies --   1325.4379              1345.3641              1358.1379
 Red. masses --      3.6433                 1.1040                 1.4118
 Frc consts  --      3.7711                 1.1773                 1.5343
 IR Inten    --     70.2907                 3.0134                48.1084

                     58                     59                     60
                      A                      A                      A
 Frequencies --   1395.5769              1413.6381              1418.8524
 Red. masses --      1.3465                 1.2416                 1.3014
 Frc consts  --      1.5452                 1.4619                 1.5437
 IR Inten    --     26.7861                 1.0457                10.7717

                     61                     62                     63
                      A                      A                      A
 Frequencies --   1437.6247              1438.9960              1440.9582
 Red. masses --      1.2973                 1.3101                 1.2975
 Frc consts  --      1.5798                 1.5984                 1.5873
 IR Inten    --      8.6089                39.2681                12.9546

                     64                     65                     66
                      A                      A                      A
 Frequencies --   1470.6665              1481.1109              1502.4471
 Red. masses --      2.3088                 1.9579                 2.2873
 Frc consts  --      2.9422                 2.5306                 3.0421
 IR Inten    --     66.8926                51.0732                43.8988

                     67                     68                     69
                      A                      A                      A
 Frequencies --   1506.7233              1507.7402              1513.2195
 Red. masses --      1.0465                 1.1092                 1.0659
 Frc consts  --      1.3998                 1.4857                 1.4381
 IR Inten    --      7.7744                10.5291                14.3240

                     70                     71                     72
                      A                      A                      A
 Frequencies --   1517.5099              1521.4492              1525.6902
 Red. masses --      1.0677                 1.0573                 1.2170
 Frc consts  --      1.4486                 1.4420                 1.6691
 IR Inten    --      3.7560                 4.2366                21.6163

                     73                     74                     75
                      A                      A                      A
 Frequencies --   1531.3688              1535.2290              1540.2958
 Red. masses --      1.1557                 1.0742                 1.1363
 Frc consts  --      1.5969                 1.4917                 1.5883
 IR Inten    --     40.4968                12.0025                50.0909

                     76                     77                     78
                      A                      A                      A
 Frequencies --   1638.7933              1650.3783              1793.6357
 Red. masses --      6.5710                 5.2259                10.1151
 Frc consts  --     10.3976                 8.3865                19.1729
 IR Inten    --     51.1952                39.6249               407.9321

                     79                     80                     81
                      A                      A                      A
 Frequencies --   3051.8633              3056.4298              3057.8933
 Red. masses --      1.0358                 1.0360                 1.0368
 Frc consts  --      5.6839                 5.7024                 5.7119
 IR Inten    --     24.1688                18.9410                16.5533

                     82                     83                     84
                      A                      A                      A
 Frequencies --   3084.3498              3091.5361              3094.4805
 Red. masses --      1.0633                 1.0597                 1.0653
 Frc consts  --      5.9599                 5.9672                 6.0104
 IR Inten    --     13.1239                35.3914                15.7966

                     85                     86                     87
                      A                      A                      A
 Frequencies --   3114.0445              3115.5334              3120.6412
 Red. masses --      1.1024                 1.1008                 1.1022
 Frc consts  --      6.2982                 6.2955                 6.3241
 IR Inten    --     25.1265                13.5047                34.3423

                     88                     89                     90
                      A                      A                      A
 Frequencies --   3133.0350              3138.5026              3141.1371
 Red. masses --      1.1001                 1.1030                 1.1033
 Frc consts  --      6.3625                 6.4015                 6.4137
 IR Inten    --     18.4306                17.8256                12.6064

                     91                     92                     93
                      A                      A                      A
 Frequencies --   3148.9041              3158.9484              3167.4164
 Red. masses --      1.1056                 1.1060                 1.1005
 Frc consts  --      6.4590                 6.5026                 6.5048
 IR Inten    --     18.7599                24.9182                 4.3281

                     94                     95                     96
                      A                      A                      A
 Frequencies --   3190.5094              3208.3230              3227.4586
 Red. masses --      1.0875                 1.0940                 1.0941
 Frc consts  --      6.5221                 6.6347                 6.7149
 IR Inten    --      8.0728                21.0444                 4.8778

 - Thermochemistry -
 -------------------
 Temperature   298.150 Kelvin.  Pressure   1.00000 Atm.
 Atom     1 has atomic number  6 and mass  12.00000

 Molecular mass:   222.13683 amu.
 Principal axes and moments of inertia in atomic units:
                           1         2         3
     Eigenvalues --  2400.243305213.761266951.66388
           X            0.99972   0.02297  -0.00505
           Y           -0.02293   0.99971   0.00772
           Z            0.00522  -0.00760   0.99996
 This molecule is an asymmetric top.
 Rotational symmetry number  1.
 Warning -- assumption of classical behavior for rotation
           may cause significant error
 Rotational temperatures (Kelvin)      0.03609     0.01661     0.01246
 Rotational constants (GHZ):           0.75190     0.34615     0.25961
 Zero-point vibrational energy     766410.9 (Joules/Mol)
                                  183.17659 (Kcal/Mol)
 Warning -- explicit consideration of  25 degrees of freedom as
           vibrations may cause significant error
 Vibrational temperatures:     17.32    54.89    73.29    77.34    82.00
          (Kelvin)            105.51   125.12   184.46   226.05   248.27
                              292.58   317.71   340.90   382.79   436.81
                              507.93   544.54   586.06   617.18   640.27
                              663.55   773.47   792.05   812.91   881.92
                              972.32  1060.29  1087.74  1116.27  1134.31
                             1154.54  1195.38  1223.15  1279.66  1323.53
                             1331.70  1375.14  1423.35  1442.23  1464.21
                             1495.75  1515.11  1546.63  1586.74  1604.25
                             1623.24  1633.32  1674.75  1718.29  1737.51
                             1793.91  1819.78  1841.83  1867.80  1907.01
                             1935.68  1954.06  2007.92  2033.91  2041.41
                             2068.42  2070.39  2073.22  2115.96  2130.99
                             2161.69  2167.84  2169.30  2177.19  2183.36
                             2189.03  2195.13  2203.30  2208.85  2216.14
                             2357.86  2374.53  2580.64  4390.95  4397.52
                             4399.63  4437.69  4448.03  4452.27  4480.42
                             4482.56  4489.91  4507.74  4515.61  4519.40
                             4530.57  4545.02  4557.21  4590.43  4616.06
                             4643.59

 Zero-point correction=                           0.291910 (Hartree/Particle)
 Thermal correction to Energy=                    0.308869
 Thermal correction to Enthalpy=                  0.309813
 Thermal correction to Gibbs Free Energy=         0.244301
 Sum of electronic and zero-point Energies=           -727.872018
 Sum of electronic and thermal Energies=              -727.855059
 Sum of electronic and thermal Enthalpies=            -727.854115
 Sum of electronic and thermal Free Energies=         -727.919627

                     E (Thermal)             CV                S
                      KCal/Mol        Cal/Mol-Kelvin    Cal/Mol-Kelvin
 Total                  193.818             61.180            137.880
 Electronic               0.000              0.000              0.000
 Translational            0.889              2.981             42.097
 Rotational               0.889              2.981             32.831
 Vibrational            192.041             55.218             62.952
 Vibration     1          0.593              1.987              7.643
 Vibration     2          0.594              1.982              5.353
 Vibration     3          0.595              1.977              4.781
 Vibration     4          0.596              1.976              4.674
 Vibration     5          0.596              1.975              4.559
 Vibration     6          0.599              1.967              4.062
 Vibration     7          0.601              1.958              3.727
 Vibration     8          0.611              1.925              2.973
 Vibration     9          0.621              1.895              2.584
 Vibration    10          0.626              1.876              2.407
 Vibration    11          0.639              1.835              2.103
 Vibration    12          0.648              1.809              1.952
 Vibration    13          0.656              1.784              1.826
 Vibration    14          0.672              1.735              1.622
 Vibration    15          0.695              1.667              1.397
 Vibration    16          0.729              1.569              1.153
 Vibration    17          0.749              1.516              1.045
 Vibration    18          0.772              1.454              0.936
 Vibration    19          0.790              1.407              0.862
 Vibration    20          0.804              1.372              0.811
 Vibration    21          0.819              1.336              0.763
 Vibration    22          0.893              1.167              0.570
 Vibration    23          0.906              1.139              0.543
 Vibration    24          0.921              1.107              0.514
 Vibration    25          0.972              1.004              0.428

 Optimization completed.
    -- Stationary point found.
 Normal termination of Gaussian 16 at Thu Dec 10 22:13:54 2020.

 ----------------------------------------------------------------------
 # B3LYP/6-311++G(d,p) empiricaldispersion=gd3bj scf=xqc pop=npa geom=c
 heck
 ----------------------------------------------------------------------

 --------------------------------------
 CID_80244294_JID_6126_Energie_neutraal
 --------------------------------------
 Structure from the checkpoint file:  "JID_6126.chk"
 Charge =  0 Multiplicity = 1

 SCF Done:  E(RB3LYP) =  -728.365237838     A.U. after   15 cycles
 Normal termination of Gaussian 16 at Thu Dec 10 22:18:34 2020.

 ----------------------------------------------------------------------
 # B3LYP/6-311++G(d,p) empiricaldispersion=gd3bj scf=xqc pop=npa geom=c
 heck
 ----------------------------------------------------------------------

 ------------------------------------
 CID_80244294_JID_6126_Energie_kation
 ------------------------------------
 Structure from the checkpoint file:  "JID_6126.chk"
 Charge =  1 Multiplicity = 2

 SCF Done:  E(UB3LYP) =  -728.063039142     A.U. after   26 cycles
 Normal termination of Gaussian 16 at Thu Dec 10 22:29:26 2020.
 Gaussian 16:  ES64L-G16RevA.03 25-Dec-2016

 ----------------------------------------------------------------------
 # B3LYP/6-311++G(d,p) empiricaldispersion=gd3bj scf=xqc pop=npa geom=c
 heck
 ----------------------------------------------------------------------

 -----------------------------------
 CID_80244294_JID_6126_Energie_anion
 -----------------------------------
 Structure from the checkpoint file:  "JID_6126.chk"
 Charge = -1 Multiplicity = 2

                         Standard orientation:
 ---------------------------------------------------------------------
 Center     Atomic      Atomic             Coordinates (Angstroms)
 Number     Number       Type             X           Y           Z
 ---------------------------------------------------------------------
      1          6           0        1.096528   -3.534707    0.052541
      2          6           0        0.518558   -2.230818    0.601077
      3          7           0        0.895107   -1.072581   -0.213034
      4          6           0       -0.031735   -0.637327   -1.258703
      5          6           0       -1.169236    0.185823   -0.688854
      6          6           0       -1.009139    1.552920   -0.433639
      7          6           0       -2.069802    2.245153    0.139700
      8          6           0       -3.243041    1.554822    0.442151
      9          6           0       -3.317903    0.187578    0.160646
     10          7           0       -2.294224   -0.481321   -0.399381
     11          6           0       -4.552173   -0.620713    0.466386
     12          6           0        2.039311   -0.406891    0.102841
     13          8           0        2.821962   -0.746797    0.977789
     14          8           0        2.216928    0.698121   -0.683127
     15          6           0        3.398049    1.472837   -0.393632
     16          6           0        3.166295    2.417313    0.774887
     17          1           0        0.763405   -3.713569   -0.976274
     18          1           0        0.776082   -4.384878    0.665513
     19          1           0        2.189727   -3.492907    0.061951
     20          1           0       -0.574899   -2.263991    0.625760
     21          1           0        0.877759   -2.057012    1.617517
     22          1           0       -0.450729   -1.528802   -1.733633
     23          1           0        0.526288   -0.072221   -2.004413
     24          1           0       -0.070816    2.040122   -0.674695
     25          1           0       -1.987712    3.308265    0.349186
     26          1           0       -4.090350    2.065299    0.889679
     27          1           0       -4.945350   -1.077504   -0.448576
     28          1           0       -4.310714   -1.438809    1.154168
     29          1           0       -5.337414   -0.006446    0.916335
     30          1           0        4.226765    0.791554   -0.188643
     31          1           0        3.596188    2.018685   -1.319708
     32          1           0        2.973283    1.845888    1.686317
     33          1           0        4.053402    3.040394    0.936603
     34          1           0        2.313511    3.076701    0.580126
 ---------------------------------------------------------------------

 SCF Done:  E(UB3LYP) =  -728.352861752     A.U. after   33 cycles
 SCF Done:  E(UB3LYP) =  -728.352861751     a.u. after    1 cycles

 The electronic state is 2-A.
 Alpha  occ. eigenvalues --  -19.06127 -18.99417 -14.24422 -14.18927 -10.21607
 Alpha  occ. eigenvalues --  -10.12881 -10.10811 -10.10610 -10.10421 -10.09727
 Alpha  occ. eigenvalues --  -10.07450 -10.07066 -10.06682 -10.06566 -10.06560
 Alpha  occ. eigenvalues --  -10.06468  -1.00625  -0.91484  -0.85074  -0.82940
 Alpha  occ. eigenvalues --   -0.69056  -0.69005  -0.68130  -0.65604  -0.61972
 Alpha  occ. eigenvalues --   -0.58618  -0.56886  -0.52730  -0.50807  -0.49662
 Alpha  occ. eigenvalues --   -0.45185  -0.43867  -0.40089  -0.39824  -0.38602
 Alpha  occ. eigenvalues --   -0.37966  -0.36343  -0.35354  -0.35027  -0.33811
 Alpha  occ. eigenvalues --   -0.32734  -0.32626  -0.31427  -0.30627  -0.29975
 Alpha  occ. eigenvalues --   -0.29390  -0.28484  -0.28276  -0.28063  -0.27356
 Alpha  occ. eigenvalues --   -0.26708  -0.25787  -0.25560  -0.24499  -0.20343
 Alpha  occ. eigenvalues --   -0.18393  -0.17841  -0.16166  -0.14771  -0.13798
 Alpha  occ. eigenvalues --    0.04478
 Alpha virt. eigenvalues --    0.06195   0.06686   0.06776   0.07813   0.08180
 Alpha virt. eigenvalues --    0.08650   0.08955   0.09378   0.09981   0.10419
 Alpha virt. eigenvalues --    0.10641   0.11369   0.12090   0.12432   0.12811

  Beta  occ. eigenvalues --  -19.06124 -18.99409 -14.24414 -14.18753 -10.21603
  Beta  occ. eigenvalues --  -10.12861 -10.10810 -10.10611 -10.10424 -10.09639
  Beta  occ. eigenvalues --  -10.07442 -10.06914 -10.06656 -10.06582 -10.06550
  Beta  occ. eigenvalues --  -10.06423  -1.00614  -0.91471  -0.85009  -0.82740
  Beta  occ. eigenvalues --   -0.68934  -0.68792  -0.68095  -0.65570  -0.61906
  Beta  occ. eigenvalues --   -0.58558  -0.56853  -0.52689  -0.50549  -0.49572
  Beta  occ. eigenvalues --   -0.45157  -0.43826  -0.40014  -0.39779  -0.38541
  Beta  occ. eigenvalues --   -0.37896  -0.36321  -0.35291  -0.34971  -0.33781
  Beta  occ. eigenvalues --   -0.32608  -0.32553  -0.31391  -0.30586  -0.29938
  Beta  occ. eigenvalues --   -0.29348  -0.28449  -0.28205  -0.28034  -0.27263
  Beta  occ. eigenvalues --   -0.26398  -0.25748  -0.25484  -0.24457  -0.20324
  Beta  occ. eigenvalues --   -0.18335  -0.17081  -0.16031  -0.14513  -0.13645
  Beta virt. eigenvalues --    0.06486   0.07047   0.07134   0.07931   0.08412
  Beta virt. eigenvalues --    0.08456   0.08809   0.09236   0.09635   0.10057
  Beta virt. eigenvalues --    0.10649   0.10900   0.11365   0.12268   0.12625

 Mulliken charges and spin densities:
               1          2
     1  C   -0.078791  -0.392956
     2  C   -0.435974   0.279725
     3  N   -0.015189   0.058455
     4  C   -0.249691  -0.974412
     5  C   -0.805517   0.926457
     6  C    1.264507  -0.677910
     7  C   -0.501645  -0.408572
     8  C    0.379216  -0.220839
     9  C   -1.134982   1.161922
    10  N    0.056798   0.162027
    11  C    1.454624  -1.820989
    12  C   -0.014365  -0.126363
    13  O   -0.320781   0.008011
    14  O   -0.098422   0.031213
    15  C    0.247879  -0.347405
    16  C    0.209559  -0.599486
    17  H    0.028921   0.103318
    18  H    0.047628   0.079277
    19  H    0.117076   0.052130
    20  H    0.206263  -0.011860
    21  H    0.122289   0.055372
    22  H    0.113452   0.098502
    23  H    0.086050   0.143732
    24  H    0.190968   0.000742
    25  H   -0.634278   0.798179
    26  H   -0.462149   0.618934
    27  H   -0.038763   0.194581
    28  H    0.091593   0.049415
    29  H   -0.276726   0.423339
    30  H    0.158898   0.008991
    31  H   -0.509157   0.673002
    32  H    0.037968   0.136971
    33  H   -0.322956   0.462381
    34  H    0.085697   0.054117
 Sum of Mulliken charges =  -1.00000   1.00000

 Dipole moment (field-independent basis, Debye):
    X=              1.4657    Y=             -5.1621    Z=             -0.6228  Tot=              5.4022
 Quadrupole moment (field-independent basis, Debye-Ang):
   XX=           -180.1099   YY=           -146.8179   ZZ=           -124.0587
   XY=             -1.0175   XZ=              2.7115   YZ=             -0.2659

 Summary of Natural Population Analysis:

                                       Natural Population
                Natural  -----------------------------------------------
    Atom  No    Charge         Core      Valence    Rydberg      Total
 -----------------------------------------------------------------------
      C    1   -0.28984      0.99966     2.28615    0.00402     3.28984
      C    2   -0.08809      0.99962     2.07908    0.00939     3.08809
      N    3   -0.25694      0.99963     2.74641    0.01091     3.75694
      C    4   -0.09798      0.99956     2.08637    0.01205     3.09798
      C    5    0.11334      0.99953     1.87341    0.01372     2.88666
      C    6   -0.12943      0.99950     2.12078    0.00915     3.12943
      C    7   -0.05358      0.99957     2.04334    0.01067     3.05358
      C    8   -0.12067      0.99951     2.11178    0.00938     3.12067
      C    9    0.10560      0.99955     1.88115    0.01370     2.89440
      N   10   -0.23417      0.99965     2.72329    0.01123     3.73417
      C   11   -0.29471      0.99963     2.28975    0.00533     3.29471
      C   12    0.46831      0.99963     1.50798    0.02407     2.53169
      O   13   -0.34251      0.99987     3.33776    0.00488     4.34251
      O   14   -0.29339      0.99987     3.28501    0.00852     4.29339
      C   15   -0.01373      0.99958     2.00202    0.01213     3.01373
      C   16   -0.30028      0.99966     2.29531    0.00530     3.30028
      H   17    0.09607      0.00000     0.40284    0.00109     0.40393
      H   18    0.09589      0.00000     0.40316    0.00094     0.40411
      H   19    0.10259      0.00000     0.39631    0.00109     0.39741
      H   20    0.10483      0.00000     0.39363    0.00154     0.39517
      H   21    0.10490      0.00000     0.39396    0.00113     0.39510
      H   22    0.10242      0.00000     0.39619    0.00139     0.39758
      H   23    0.11202      0.00000     0.38665    0.00132     0.38798
      H   24    0.10804      0.00000     0.39035    0.00162     0.39196
      H   25    0.09953      0.00000     0.39925    0.00122     0.40047
      H   26    0.10159      0.00000     0.39700    0.00141     0.39841
      H   27    0.10519      0.00000     0.39343    0.00138     0.39481
      H   28    0.10380      0.00000     0.39503    0.00117     0.39620
      H   29    0.09952      0.00000     0.39946    0.00101     0.40048
      H   30    0.09345      0.00000     0.40537    0.00117     0.40655
      H   31    0.09012      0.00000     0.40816    0.00172     0.40988
      H   32    0.10625      0.00000     0.39283    0.00092     0.39375
      H   33    0.10104      0.00000     0.39771    0.00125     0.39896
      H   34    0.10080      0.00000     0.39787    0.00133     0.39920
 =======================================================================
   * Total *    0.00000     15.99402    43.81881    0.18717    60.00000

 Normal termination of Gaussian 16 at Thu Dec 10 22:43:53 2020.
