 Gaussian 16, Revision A.03,

 -----------------------------------------------------------
 # opt freq B3LYP/6-31G(d) empiricaldispersion=gd3bj scf=xqc
 -----------------------------------------------------------

 -------------------------------
 CID_136220639_JID_4582_neutraal
 -------------------------------
 Symbolic Z-matrix:
 Charge =  0 Multiplicity = 1

 SCF Done:  E(RB3LYP) =  -676.641733100     A.U. after   16 cycles
 SCF Done:  E(RB3LYP) =  -676.648304915     A.U. after   13 cycles
 SCF Done:  E(RB3LYP) =  -676.649235582     A.U. after   12 cycles
 SCF Done:  E(RB3LYP) =  -676.649280060     A.U. after   11 cycles
 SCF Done:  E(RB3LYP) =  -676.649284585     A.U. after    9 cycles
 SCF Done:  E(RB3LYP) =  -676.649285727     A.U. after    9 cycles
 Optimization completed.
    -- Stationary point found.
 Normal termination of Gaussian 16 at Thu Dec 10 10:01:25 2020.

 --------------------------------------------------------------------
 #N Geom=AllCheck Guess=TCheck SCRF=Check GenChk RB3LYP/6-31G(d) Freq
 --------------------------------------------------------------------

 Structure from the checkpoint file:  "JID_4582.chk"
 -------------------------------
 CID_136220639_JID_4582_neutraal
 -------------------------------
 Charge =  0 Multiplicity = 1

 SCF Done:  E(RB3LYP) =  -676.649285727     A.U. after    1 cycles

  Exact polarizability: 210.831   2.140 116.133   0.001  -0.000  39.407
 Approx polarizability: 389.423  11.627 219.977   0.003  -0.002  62.280

                      1                      2                      3
                      A                      A                      A
 Frequencies --     65.9930               108.9187               124.2432
 Red. masses --     11.0471                12.8598                11.7220
 Frc consts  --      0.0283                 0.0899                 0.1066
 IR Inten    --      2.3439                 1.8576                 5.4569

                      4                      5                      6
                      A                      A                      A
 Frequencies --    146.3680               173.0656               280.9464
 Red. masses --      5.6598                 7.5943                 8.0578
 Frc consts  --      0.0714                 0.1340                 0.3747
 IR Inten    --      0.9044                 4.7471                 2.7772

                      7                      8                      9
                      A                      A                      A
 Frequencies --    319.9439               349.6751               408.8816
 Red. masses --      9.6552                13.2074                11.9195
 Frc consts  --      0.5823                 0.9515                 1.1741
 IR Inten    --      0.0012                 6.3954                 6.5423

                     10                     11                     12
                      A                      A                      A
 Frequencies --    430.4509               489.4959               500.4747
 Red. masses --      3.4977                 6.0196                 8.4011
 Frc consts  --      0.3818                 0.8498                 1.2398
 IR Inten    --      2.8966                 1.8751                 5.8122

                     13                     14                     15
                      A                      A                      A
 Frequencies --    539.1867               555.8352               578.7820
 Red. masses --     10.8153                 1.3277                 7.6789
 Frc consts  --      1.8525                 0.2417                 1.5156
 IR Inten    --      4.2576                64.1790                 3.8636

                     16                     17                     18
                      A                      A                      A
 Frequencies --    599.3847               617.7708               669.4675
 Red. masses --      2.9651                 8.6224                 6.2757
 Frc consts  --      0.6276                 1.9388                 1.6572
 IR Inten    --     85.2168                12.0021                10.3233

                     19                     20                     21
                      A                      A                      A
 Frequencies --    689.4181               711.8519               737.2478
 Red. masses --      7.6321                 6.8085                 6.9164
 Frc consts  --      2.1373                 2.0327                 2.2149
 IR Inten    --      2.7900                 0.8677                 4.6610

                     22                     23                     24
                      A                      A                      A
 Frequencies --    773.6558               862.5793               878.2977
 Red. masses --      5.5957                 1.4647                 6.5385
 Frc consts  --      1.9733                 0.6421                 2.9718
 IR Inten    --      4.8316                26.7238                17.0414

                     25                     26                     27
                      A                      A                      A
 Frequencies --    949.2807               953.8219               993.0069
 Red. masses --      1.4107                 5.3292                 1.3194
 Frc consts  --      0.7490                 2.8566                 0.7666
 IR Inten    --      8.9927                 7.7614                 0.0794

                     28                     29                     30
                      A                      A                      A
 Frequencies --   1008.8773              1115.3369              1173.5218
 Red. masses --      5.0755                 2.3021                 1.4229
 Frc consts  --      3.0438                 1.6873                 1.1545
 IR Inten    --     23.6976                 5.8843                26.2805

                     31                     32                     33
                      A                      A                      A
 Frequencies --   1190.1902              1243.5846              1288.4716
 Red. masses --      5.0847                 3.8470                 1.7817
 Frc consts  --      4.2437                 3.5053                 1.7427
 IR Inten    --     39.7399                41.0338                16.1573

                     34                     35                     36
                      A                      A                      A
 Frequencies --   1305.6675              1357.1251              1375.0846
 Red. masses --      4.6544                 2.0471                 5.8959
 Frc consts  --      4.6750                 2.2214                 6.5684
 IR Inten    --     33.0948               101.8949                40.0427

                     37                     38                     39
                      A                      A                      A
 Frequencies --   1390.1061              1486.5819              1527.4306
 Red. masses --      3.6194                 5.3661                 2.9870
 Frc consts  --      4.1208                 6.9870                 4.1058
 IR Inten    --      2.4352                 4.5736                72.0566

                     40                     41                     42
                      A                      A                      A
 Frequencies --   1600.7346              1643.3583              1675.2373
 Red. masses --      7.2449                 5.8273                 6.3628
 Frc consts  --     10.9375                 9.2723                10.5209
 IR Inten    --     71.2609               655.0092                31.0097

                     43                     44                     45
                      A                      A                      A
 Frequencies --   1820.2748              2354.1022              3222.6594
 Red. masses --     10.9987                12.6779                 1.0894
 Frc consts  --     21.4716                41.3950                 6.6660
 IR Inten    --    372.3252                24.7866                 0.9758

                     46                     47                     48
                      A                      A                      A
 Frequencies --   3237.0514              3238.0238              3606.8976
 Red. masses --      1.0928                 1.0950                 1.0798
 Frc consts  --      6.7468                 6.7644                 8.2769
 IR Inten    --      0.7028                 2.0720               129.0160

 - Thermochemistry -
 -------------------
 Temperature   298.150 Kelvin.  Pressure   1.00000 Atm.
 Atom     1 has atomic number  6 and mass  12.00000

 Molecular mass:   188.03343 amu.
 Principal axes and moments of inertia in atomic units:
                           1         2         3
     Eigenvalues --  1087.488604021.941645109.43023
           X            0.99994  -0.01066   0.00000
           Y            0.01066   0.99994  -0.00000
           Z           -0.00000   0.00000   1.00000
 This molecule is an asymmetric top.
 Rotational symmetry number  1.
 Warning -- assumption of classical behavior for rotation
           may cause significant error
 Rotational temperatures (Kelvin)      0.07965     0.02154     0.01695
 Rotational constants (GHZ):           1.65955     0.44872     0.35322
 Zero-point vibrational energy     313232.4 (Joules/Mol)
                                   74.86433 (Kcal/Mol)
 Warning -- explicit consideration of  17 degrees of freedom as
           vibrations may cause significant error
 Vibrational temperatures:     94.95   156.71   178.76   210.59   249.00
          (Kelvin)            404.22   460.33   503.10   588.29   619.32
                              704.28   720.07   775.77   799.72   832.74
                              862.38   888.83   963.21   991.92  1024.20
                             1060.74  1113.12  1241.06  1263.67  1365.80
                             1372.34  1428.72  1451.55  1604.72  1688.44
                             1712.42  1789.24  1853.82  1878.56  1952.60
                             1978.44  2000.05  2138.86  2197.63  2303.10
                             2364.43  2410.29  2618.97  3387.03  4636.69
                             4657.39  4658.79  5189.52

 Zero-point correction=                           0.119304 (Hartree/Particle)
 Thermal correction to Energy=                    0.129663
 Thermal correction to Enthalpy=                  0.130607
 Thermal correction to Gibbs Free Energy=         0.082662
 Sum of electronic and zero-point Energies=           -676.529982
 Sum of electronic and thermal Energies=              -676.519623
 Sum of electronic and thermal Enthalpies=            -676.518679
 Sum of electronic and thermal Free Energies=         -676.566623

                     E (Thermal)             CV                S
                      KCal/Mol        Cal/Mol-Kelvin    Cal/Mol-Kelvin
 Total                   81.365             39.816            100.907
 Electronic               0.000              0.000              0.000
 Translational            0.889              2.981             41.600
 Rotational               0.889              2.981             31.480
 Vibrational             79.587             33.855             27.827
 Vibration     1          0.597              1.970              4.269
 Vibration     2          0.606              1.942              3.288
 Vibration     3          0.610              1.929              3.033
 Vibration     4          0.617              1.907              2.719
 Vibration     5          0.627              1.876              2.402
 Vibration     6          0.681              1.709              1.528
 Vibration     7          0.706              1.635              1.310
 Vibration     8          0.727              1.576              1.168
 Vibration     9          0.773              1.451              0.931
 Vibration    10          0.792              1.404              0.857
 Vibration    11          0.845              1.273              0.685
 Vibration    12          0.856              1.249              0.657
 Vibration    13          0.894              1.163              0.567
 Vibration    14          0.911              1.127              0.532
 Vibration    15          0.935              1.077              0.488
 Vibration    16          0.957              1.033              0.451
 Vibration    17          0.978              0.994              0.420

 Optimization completed.
    -- Stationary point found.
 Normal termination of Gaussian 16 at Thu Dec 10 10:05:42 2020.

 ----------------------------------------------------------------------
 # B3LYP/6-311++G(d,p) empiricaldispersion=gd3bj scf=xqc pop=npa geom=c
 heck
 ----------------------------------------------------------------------

 ---------------------------------------
 CID_136220639_JID_4582_Energie_neutraal
 ---------------------------------------
 Structure from the checkpoint file:  "JID_4582.chk"
 Charge =  0 Multiplicity = 1

 SCF Done:  E(RB3LYP) =  -676.834885473     A.U. after   17 cycles
 Normal termination of Gaussian 16 at Thu Dec 10 10:07:30 2020.

 ----------------------------------------------------------------------
 # B3LYP/6-311++G(d,p) empiricaldispersion=gd3bj scf=xqc pop=npa geom=c
 heck
 ----------------------------------------------------------------------

 -------------------------------------
 CID_136220639_JID_4582_Energie_kation
 -------------------------------------
 Structure from the checkpoint file:  "JID_4582.chk"
 Charge =  1 Multiplicity = 2

 SCF Done:  E(UB3LYP) =  -676.494002925     A.U. after   25 cycles
 Normal termination of Gaussian 16 at Thu Dec 10 10:10:58 2020.
 Gaussian 16:  ES64L-G16RevA.03 25-Dec-2016

 ----------------------------------------------------------------------
 # B3LYP/6-311++G(d,p) empiricaldispersion=gd3bj scf=xqc pop=npa geom=c
 heck
 ----------------------------------------------------------------------

 ------------------------------------
 CID_136220639_JID_4582_Energie_anion
 ------------------------------------
 Structure from the checkpoint file:  "JID_4582.chk"
 Charge = -1 Multiplicity = 2

                         Standard orientation:
 ---------------------------------------------------------------------
 Center     Atomic      Atomic             Coordinates (Angstroms)
 Number     Number       Type             X           Y           Z
 ---------------------------------------------------------------------
      1          6           0        1.946061   -1.525587    0.000002
      2          6           0        0.616912   -1.901358    0.000022
      3          6           0       -0.395131   -0.920772    0.000047
      4          6           0       -0.026285    0.441786    0.000053
      5          6           0        1.315733    0.822360    0.000015
      6          6           0        2.308209   -0.157877   -0.000006
      7          6           0        3.690584    0.213008   -0.000034
      8          7           0        4.816222    0.504885   -0.000054
      9          6           0       -1.086352    1.448688    0.000122
     10          8           0       -0.966372    2.657957   -0.000070
     11          7           0       -2.360760    0.863563    0.000069
     12          7           0       -2.639957   -0.499093    0.000026
     13          7           0       -1.699122   -1.381893    0.000027
     14          8           0       -3.839080   -0.784695   -0.000150
     15          1           0        2.726453   -2.278865   -0.000021
     16          1           0        0.324425   -2.945230    0.000014
     17          1           0        1.563919    1.877726    0.000022
     18          1           0       -3.204247    1.426549   -0.000057
 ---------------------------------------------------------------------

 SCF Done:  E(UB3LYP) =  -676.897077364     A.U. after   25 cycles

 The electronic state is 2-A.
 Alpha  occ. eigenvalues --  -18.99259 -18.98426 -14.36446 -14.26697 -14.21297
 Alpha  occ. eigenvalues --  -14.18480 -10.17927 -10.09747 -10.08731 -10.08061
 Alpha  occ. eigenvalues --  -10.07837 -10.07628 -10.06927 -10.06382  -1.05639
 Alpha  occ. eigenvalues --   -0.94495  -0.86203  -0.81108  -0.78789  -0.75273
 Alpha  occ. eigenvalues --   -0.67169  -0.65809  -0.57867  -0.56806  -0.52200
 Alpha  occ. eigenvalues --   -0.47390  -0.45958  -0.42967  -0.40592  -0.38352
 Alpha  occ. eigenvalues --   -0.36032  -0.34934  -0.33183  -0.32712  -0.31391
 Alpha  occ. eigenvalues --   -0.29276  -0.28420  -0.26494  -0.24673  -0.24444
 Alpha  occ. eigenvalues --   -0.21576  -0.18705  -0.18191  -0.18183  -0.17711
 Alpha  occ. eigenvalues --   -0.16001  -0.15257  -0.11557  -0.00064
 Alpha virt. eigenvalues --    0.06023   0.08836   0.09903   0.09960   0.11022
 Alpha virt. eigenvalues --    0.12065   0.14081   0.14318   0.14559   0.14582
 Alpha virt. eigenvalues --    0.14623   0.16195   0.16616   0.17778   0.18009

  Beta  occ. eigenvalues --  -18.99268 -18.97802 -14.35484 -14.26619 -14.21460
  Beta  occ. eigenvalues --  -14.18292 -10.17940 -10.09505 -10.08761 -10.07866
  Beta  occ. eigenvalues --  -10.07803 -10.07566 -10.06850 -10.06370  -1.04380
  Beta  occ. eigenvalues --   -0.94449  -0.85604  -0.80934  -0.78508  -0.74963
  Beta  occ. eigenvalues --   -0.66636  -0.65525  -0.57279  -0.56416  -0.51926
  Beta  occ. eigenvalues --   -0.47276  -0.45745  -0.42684  -0.38106  -0.37856
  Beta  occ. eigenvalues --   -0.35469  -0.34642  -0.33095  -0.32674  -0.30422
  Beta  occ. eigenvalues --   -0.29114  -0.27665  -0.26419  -0.24387  -0.23465
  Beta  occ. eigenvalues --   -0.21477  -0.18130  -0.17845  -0.17660  -0.16669
  Beta  occ. eigenvalues --   -0.15334  -0.14880  -0.09645
  Beta virt. eigenvalues --    0.06147   0.06748   0.08825   0.09956   0.11016
  Beta virt. eigenvalues --    0.12047   0.12150   0.14318   0.14562   0.14652
  Beta virt. eigenvalues --    0.14660   0.14766   0.16244   0.16610   0.17802

 Mulliken charges and spin densities:
               1          2
     1  C   -0.807923   0.058992
     2  C    0.410496   0.037202
     3  C   -2.365595   0.127215
     4  C    1.259262   0.076997
     5  C   -0.147943  -0.010217
     6  C    1.822101   0.185178
     7  C   -1.365594  -0.074514
     8  N   -0.288979   0.098966
     9  C    0.578032  -0.007100
    10  O   -0.354177  -0.000635
    11  N   -0.334498   0.039017
    12  N   -0.116707   0.311428
    13  N    0.078314  -0.079679
    14  O   -0.214829   0.243894
    15  H    0.140801  -0.003516
    16  H    0.181599  -0.000587
    17  H    0.172034  -0.000065
    18  H    0.353606  -0.002576
 Sum of Mulliken charges =  -1.00000   1.00000

 Dipole moment (field-independent basis, Debye):
    X=             -1.2124    Y=             -0.5523    Z=              0.0005  Tot=              1.3323
 Quadrupole moment (field-independent basis, Debye-Ang):
   XX=           -151.9309   YY=            -97.3110   ZZ=            -83.7216
   XY=            -15.0214   XZ=             -0.0007   YZ=              0.0003

 Summary of Natural Population Analysis:

                                       Natural Population
                Natural  -----------------------------------------------
    Atom  No    Charge         Core      Valence    Rydberg      Total
 -----------------------------------------------------------------------
      C    1   -0.05930      0.99956     2.05198    0.00776     3.05930
      C    2   -0.10370      0.99954     2.09413    0.01003     3.10370
      C    3    0.12297      0.99947     1.86494    0.01262     2.87703
      C    4   -0.08964      0.99943     2.08222    0.00799     3.08964
      C    5   -0.05285      0.99953     2.04544    0.00789     3.05285
      C    6   -0.07249      0.99943     2.06371    0.00935     3.07249
      C    7    0.14687      0.99964     1.83536    0.01813     2.85313
      N    8   -0.17487      0.99979     2.66346    0.01162     3.67487
      C    9    0.32984      0.99962     1.64868    0.02187     2.67016
      O   10   -0.32193      0.99988     3.31551    0.00655     4.32193
      N   11   -0.21840      0.99967     2.70940    0.00933     3.71840
      N   12    0.34198      0.99972     2.13908    0.01921     3.15802
      N   13   -0.20050      0.99969     2.68838    0.01243     3.70050
      O   14   -0.16474      0.99990     3.15663    0.00820     4.16474
      H   15    0.09899      0.00000     0.40013    0.00089     0.40101
      H   16    0.10371      0.00000     0.39495    0.00134     0.39629
      H   17    0.11126      0.00000     0.38764    0.00111     0.38874
      H   18    0.20282      0.00000     0.29407    0.00311     0.29718
 =======================================================================
   * Total *   -0.00000     13.99485    33.83572    0.16942    48.00000

 Normal termination of Gaussian 16 at Thu Dec 10 10:14:43 2020.
