 Gaussian 16, Revision A.03,

 -----------------------------------------------------------
 # opt freq B3LYP/6-31G(d) empiricaldispersion=gd3bj scf=xqc
 -----------------------------------------------------------

 -------------------------------
 CID_116163012_JID_9988_neutraal
 -------------------------------
 Symbolic Z-matrix:
 Charge =  0 Multiplicity = 1

 SCF Done:  E(RB3LYP) =  -826.176362405     A.U. after   14 cycles
 SCF Done:  E(RB3LYP) =  -826.181844731     A.U. after   12 cycles
 SCF Done:  E(RB3LYP) =  -826.182378311     A.U. after   12 cycles
 SCF Done:  E(RB3LYP) =  -826.183288416     A.U. after   12 cycles
 SCF Done:  E(RB3LYP) =  -826.183530063     A.U. after   11 cycles
 SCF Done:  E(RB3LYP) =  -826.183687355     A.U. after   11 cycles
 SCF Done:  E(RB3LYP) =  -826.183820326     A.U. after   11 cycles
 SCF Done:  E(RB3LYP) =  -826.184043746     A.U. after   11 cycles
 SCF Done:  E(RB3LYP) =  -826.184273140     A.U. after   11 cycles
 SCF Done:  E(RB3LYP) =  -826.184850966     A.U. after   12 cycles
 SCF Done:  E(RB3LYP) =  -826.187495070     A.U. after   12 cycles
 SCF Done:  E(RB3LYP) =  -826.187546584     A.U. after   12 cycles
 SCF Done:  E(RB3LYP) =  -826.187569493     A.U. after   11 cycles
 SCF Done:  E(RB3LYP) =  -826.187570243     A.U. after    9 cycles
 SCF Done:  E(RB3LYP) =  -826.187568960     A.U. after    9 cycles
 SCF Done:  E(RB3LYP) =  -826.187570683     A.U. after    9 cycles
 Optimization completed.
    -- Stationary point found.
 Normal termination of Gaussian 16 at Sat Dec 12 11:18:19 2020.

 --------------------------------------------------------------------
 #N Geom=AllCheck Guess=TCheck SCRF=Check GenChk RB3LYP/6-31G(d) Freq
 --------------------------------------------------------------------

 Structure from the checkpoint file:  "JID_9988.chk"
 -------------------------------
 CID_116163012_JID_9988_neutraal
 -------------------------------
 Charge =  0 Multiplicity = 1

 SCF Done:  E(RB3LYP) =  -826.187570683     A.U. after    1 cycles

  Exact polarizability: 192.513  -8.405 154.961   5.708   6.660 157.742
 Approx polarizability: 266.490 -17.759 220.814   4.467  14.888 248.679

                      1                      2                      3
                      A                      A                      A
 Frequencies --     23.5880                34.3836                46.3728
 Red. masses --      3.4884                 3.8331                 3.7784
 Frc consts  --      0.0011                 0.0027                 0.0048
 IR Inten    --      0.1427                 0.1661                 0.5778

                      4                      5                      6
                      A                      A                      A
 Frequencies --     56.7792                86.1588                91.4280
 Red. masses --      2.9766                 3.9239                 2.8755
 Frc consts  --      0.0057                 0.0172                 0.0142
 IR Inten    --      0.1859                 1.2611                 4.0447

                      7                      8                      9
                      A                      A                      A
 Frequencies --    129.3543               164.2592               196.3232
 Red. masses --      4.2602                 3.3477                 3.9200
 Frc consts  --      0.0420                 0.0532                 0.0890
 IR Inten    --      1.1348                 1.4763                 4.7563

                     10                     11                     12
                      A                      A                      A
 Frequencies --    207.3903               229.5922               256.1389
 Red. masses --      2.8547                 2.7320                 1.7737
 Frc consts  --      0.0723                 0.0849                 0.0686
 IR Inten    --      0.3701                 2.2891                 1.1270

                     13                     14                     15
                      A                      A                      A
 Frequencies --    284.7724               285.9008               307.8559
 Red. masses --      2.3135                 1.9652                 1.9225
 Frc consts  --      0.1105                 0.0946                 0.1074
 IR Inten    --      1.2120                 2.7717                 0.3433

                     16                     17                     18
                      A                      A                      A
 Frequencies --    356.8787               369.7189               387.7289
 Red. masses --      2.4796                 2.2629                 2.3504
 Frc consts  --      0.1861                 0.1822                 0.2082
 IR Inten    --      1.8604                 1.0202                 5.0783

                     19                     20                     21
                      A                      A                      A
 Frequencies --    397.1187               412.1966               431.8076
 Red. masses --      2.0699                 2.5754                 2.0751
 Frc consts  --      0.1923                 0.2578                 0.2280
 IR Inten    --      1.0987                 1.6301                 0.9542

                     22                     23                     24
                      A                      A                      A
 Frequencies --    484.6051               514.1722               536.3347
 Red. masses --      2.2844                 2.8246                 3.1200
 Frc consts  --      0.3161                 0.4400                 0.5288
 IR Inten    --      2.6108                 1.6371                 2.8345

                     25                     26                     27
                      A                      A                      A
 Frequencies --    567.3626               611.4249               633.6148
 Red. masses --      2.5285                 3.2705                 5.4582
 Frc consts  --      0.4795                 0.7204                 1.2911
 IR Inten    --      6.4217                13.6049                 1.3216

                     28                     29                     30
                      A                      A                      A
 Frequencies --    666.8591               705.1349               727.1282
 Red. masses --      3.8038                 3.6949                 2.5048
 Frc consts  --      0.9966                 1.0824                 0.7803
 IR Inten    --      4.0496                 8.9009                51.8576

                     31                     32                     33
                      A                      A                      A
 Frequencies --    745.0163               756.4093               763.9098
 Red. masses --      2.3891                 1.6586                 1.4903
 Frc consts  --      0.7813                 0.5591                 0.5124
 IR Inten    --      7.0374                19.5945                23.8101

                     34                     35                     36
                      A                      A                      A
 Frequencies --    797.0648               799.1336               816.5024
 Red. masses --      1.7091                 2.2855                 3.3484
 Frc consts  --      0.6397                 0.8600                 1.3152
 IR Inten    --     17.9383                45.3731                 1.0259

                     37                     38                     39
                      A                      A                      A
 Frequencies --    835.1963               842.5557               878.1591
 Red. masses --      1.3336                 1.8013                 2.3306
 Frc consts  --      0.5481                 0.7534                 1.0589
 IR Inten    --      0.6626                26.9454                 1.1843

                     40                     41                     42
                      A                      A                      A
 Frequencies --    882.3311               890.8140               892.8633
 Red. masses --      2.2176                 1.8579                 1.9996
 Frc consts  --      1.0172                 0.8686                 0.9392
 IR Inten    --      0.7253                 2.3827                 7.0267

                     43                     44                     45
                      A                      A                      A
 Frequencies --    915.5436               945.4761               951.4232
 Red. masses --      2.2406                 2.5074                 1.3807
 Frc consts  --      1.1066                 1.3206                 0.7364
 IR Inten    --     12.7917                12.0704                 3.3105

                     46                     47                     48
                      A                      A                      A
 Frequencies --    987.4095               997.8746              1018.5790
 Red. masses --      1.9560                 2.3392                 4.0142
 Frc consts  --      1.1236                 1.3724                 2.4538
 IR Inten    --      1.2911                 9.7328                 8.9540

                     49                     50                     51
                      A                      A                      A
 Frequencies --   1030.4216              1035.7026              1042.7007
 Red. masses --      2.7117                 1.5633                 2.5973
 Frc consts  --      1.6964                 0.9880                 1.6638
 IR Inten    --      6.2922                12.6872                 7.7398

                     52                     53                     54
                      A                      A                      A
 Frequencies --   1046.4155              1051.7729              1057.9127
 Red. masses --      1.7197                 1.8756                 1.7077
 Frc consts  --      1.1094                 1.2225                 1.1261
 IR Inten    --      3.3609                 0.2318                 0.1656

                     55                     56                     57
                      A                      A                      A
 Frequencies --   1083.7134              1097.0828              1102.8412
 Red. masses --      1.3127                 5.3625                 1.7038
 Frc consts  --      0.9083                 3.8027                 1.2210
 IR Inten    --     23.4818                86.6093                 0.1801

                     58                     59                     60
                      A                      A                      A
 Frequencies --   1132.4513              1145.4550              1149.3617
 Red. masses --      4.1227                 1.8777                 1.0687
 Frc consts  --      3.1151                 1.4515                 0.8318
 IR Inten    --     20.2328                 6.9689                 0.3184

                     61                     62                     63
                      A                      A                      A
 Frequencies --   1171.2821              1179.5972              1202.5573
 Red. masses --      1.7787                 1.7892                 1.5872
 Frc consts  --      1.4377                 1.4668                 1.3524
 IR Inten    --      2.3061                 1.2245                12.7629

                     64                     65                     66
                      A                      A                      A
 Frequencies --   1209.2071              1222.2293              1244.5407
 Red. masses --      2.0188                 1.8620                 1.2597
 Frc consts  --      1.7391                 1.6389                 1.1496
 IR Inten    --     17.7491                33.0886                 6.9434

                     67                     68                     69
                      A                      A                      A
 Frequencies --   1255.0119              1271.1537              1294.1223
 Red. masses --      1.3397                 1.6168                 1.6711
 Frc consts  --      1.2432                 1.5392                 1.6490
 IR Inten    --      3.1727                 1.1476                 2.2221

                     70                     71                     72
                      A                      A                      A
 Frequencies --   1299.8756              1307.0466              1308.7234
 Red. masses --      1.4874                 1.5860                 1.3400
 Frc consts  --      1.4807                 1.5964                 1.3522
 IR Inten    --      5.3075                29.1690                 2.7716

                     73                     74                     75
                      A                      A                      A
 Frequencies --   1316.3047              1330.4059              1362.4358
 Red. masses --      1.2995                 1.4010                 1.7657
 Frc consts  --      1.3266                 1.4610                 1.9311
 IR Inten    --      4.3285                 3.4188                11.8755

                     76                     77                     78
                      A                      A                      A
 Frequencies --   1371.0361              1373.2185              1378.2607
 Red. masses --      1.4567                 1.3875                 1.4164
 Frc consts  --      1.6133                 1.5415                 1.5852
 IR Inten    --     25.6528                 0.9918                 3.0121

                     79                     80                     81
                      A                      A                      A
 Frequencies --   1393.8778              1401.4318              1408.7179
 Red. masses --      1.4058                 1.4305                 1.5889
 Frc consts  --      1.6092                 1.6554                 1.8578
 IR Inten    --     16.6122                 1.7474                 0.6503

                     82                     83                     84
                      A                      A                      A
 Frequencies --   1412.4585              1414.0987              1415.2235
 Red. masses --      1.5434                 1.5123                 1.5085
 Frc consts  --      1.8142                 1.7817                 1.7801
 IR Inten    --      3.7364                 1.7405                13.3116

                     85                     86                     87
                      A                      A                      A
 Frequencies --   1428.7561              1437.1893              1444.3377
 Red. masses --      2.9352                 1.2988                 2.8215
 Frc consts  --      3.5303                 1.5806                 3.4680
 IR Inten    --     10.6033                12.0673                13.4562

                     88                     89                     90
                      A                      A                      A
 Frequencies --   1501.5024              1504.3975              1509.0353
 Red. masses --      1.0973                 1.1603                 2.4103
 Frc consts  --      1.4575                 1.5471                 3.2338
 IR Inten    --      3.0559                10.6739                 0.8748

                     91                     92                     93
                      A                      A                      A
 Frequencies --   1515.6307              1517.2314              1519.8676
 Red. masses --      1.2121                 1.1143                 1.1195
 Frc consts  --      1.6405                 1.5114                 1.5236
 IR Inten    --     11.2418                 1.3049                 5.6761

                     94                     95                     96
                      A                      A                      A
 Frequencies --   1520.9765              1523.7096              1528.5261
 Red. masses --      1.1695                 1.0673                 1.1020
 Frc consts  --      1.5940                 1.4599                 1.5170
 IR Inten    --     14.7165                 3.2602                 8.2911

                     97                     98                     99
                      A                      A                      A
 Frequencies --   1533.6850              1538.8259              1550.0091
 Red. masses --      1.0945                 1.0964                 1.0679
 Frc consts  --      1.5168                 1.5296                 1.5117
 IR Inten    --      6.5266                 4.0425                 3.1533

                    100                    101                    102
                      A                      A                      A
 Frequencies --   1560.9370              1574.0425              2985.8323
 Red. masses --      1.1126                 4.7529                 1.0717
 Frc consts  --      1.5972                 6.9381                 5.6295
 IR Inten    --      2.0934                17.4888                74.8118

                    103                    104                    105
                      A                      A                      A
 Frequencies --   3021.9772              3028.4337              3032.3863
 Red. masses --      1.0671                 1.0650                 1.0813
 Frc consts  --      5.7418                 5.7551                 5.8584
 IR Inten    --     30.5341                69.2115                17.2134

                    106                    107                    108
                      A                      A                      A
 Frequencies --   3044.9364              3045.9309              3054.0415
 Red. masses --      1.0694                 1.0619                 1.0407
 Frc consts  --      5.8418                 5.8047                 5.7191
 IR Inten    --     16.2114                 7.7878                16.0325

                    109                    110                    111
                      A                      A                      A
 Frequencies --   3055.4141              3059.2151              3060.7012
 Red. masses --      1.0707                 1.0682                 1.0728
 Frc consts  --      5.8891                 5.8901                 5.9213
 IR Inten    --     78.2762                32.7033                40.2259

                    112                    113                    114
                      A                      A                      A
 Frequencies --   3062.5248              3075.3127              3076.5382
 Red. masses --      1.0658                 1.0938                 1.0952
 Frc consts  --      5.8896                 6.0951                 6.1074
 IR Inten    --     26.6247                18.4629                83.5046

                    115                    116                    117
                      A                      A                      A
 Frequencies --   3084.9769              3090.9296              3113.1858
 Red. masses --      1.0982                 1.1039                 1.0970
 Frc consts  --      6.1577                 6.2140                 6.2641
 IR Inten    --     47.7083                53.1371                42.0230

                    118                    119                    120
                      A                      A                      A
 Frequencies --   3113.6662              3122.1266              3135.2983
 Red. masses --      1.1005                 1.1021                 1.0933
 Frc consts  --      6.2863                 6.3296                 6.3322
 IR Inten    --     22.3381                19.9346                14.1977

                    121                    122                    123
                      A                      A                      A
 Frequencies --   3135.3985              3136.7469              3186.8162
 Red. masses --      1.0936                 1.1015                 1.0906
 Frc consts  --      6.3341                 6.3855                 6.5256
 IR Inten    --     30.5721                10.3241                 7.3870

                    124                    125                    126
                      A                      A                      A
 Frequencies --   3263.5125              3290.8471              3517.0100
 Red. masses --      1.0927                 1.1017                 1.0738
 Frc consts  --      6.8567                 7.0294                 7.8256
 IR Inten    --      2.3933                 2.6440                 1.0164

 - Thermochemistry -
 -------------------
 Temperature   298.150 Kelvin.  Pressure   1.00000 Atm.
 Atom     1 has atomic number  6 and mass  12.00000

 Molecular mass:   263.19976 amu.
 Principal axes and moments of inertia in atomic units:
                           1         2         3
     Eigenvalues --  2941.581426892.466827599.55727
           X            0.99989  -0.01210   0.00855
           Y            0.01189   0.99965   0.02372
           Z           -0.00883  -0.02361   0.99968
 This molecule is an asymmetric top.
 Rotational symmetry number  1.
 Warning -- assumption of classical behavior for rotation
           may cause significant error
 Rotational temperatures (Kelvin)      0.02944     0.01257     0.01140
 Rotational constants (GHZ):           0.61353     0.26184     0.23748
 Zero-point vibrational energy    1040390.5 (Joules/Mol)
                                  248.65930 (Kcal/Mol)
 Warning -- explicit consideration of  26 degrees of freedom as
           vibrations may cause significant error
 Vibrational temperatures:     33.94    49.47    66.72    81.69   123.96
          (Kelvin)            131.54   186.11   236.33   282.47   298.39
                              330.33   368.53   409.72   411.35   442.94
                              513.47   531.94   557.86   571.37   593.06
                              621.27   697.24   739.78   771.67   816.31
                              879.70   911.63   959.46  1014.53  1046.18
                             1071.91  1088.30  1099.10  1146.80  1149.77
                             1174.76  1201.66  1212.25  1263.48  1269.48
                             1281.68  1284.63  1317.26  1360.33  1368.89
                             1420.66  1435.72  1465.51  1482.55  1490.14
                             1500.21  1505.56  1513.27  1522.10  1559.22
                             1578.46  1586.74  1629.34  1648.05  1653.68
                             1685.21  1697.18  1730.21  1739.78  1758.52
                             1790.62  1805.68  1828.91  1861.95  1870.23
                             1880.55  1882.96  1893.87  1914.16  1960.24
                             1972.62  1975.76  1983.01  2005.48  2016.35
                             2026.83  2032.21  2034.57  2036.19  2055.66
                             2067.79  2078.08  2160.33  2164.49  2171.17
                             2180.65  2182.96  2186.75  2188.35  2192.28
                             2199.21  2206.63  2214.03  2230.12  2245.84
                             2264.70  4295.95  4347.95  4357.24  4362.93
                             4380.98  4382.42  4394.08  4396.06  4401.53
                             4403.67  4406.29  4424.69  4426.45  4438.59
                             4447.16  4479.18  4479.87  4492.04  4510.99
                             4511.14  4513.08  4585.12  4695.47  4734.79
                             5060.19

 Zero-point correction=                           0.396264 (Hartree/Particle)
 Thermal correction to Energy=                    0.413892
 Thermal correction to Enthalpy=                  0.414836
 Thermal correction to Gibbs Free Energy=         0.349678
 Sum of electronic and zero-point Energies=           -825.791307
 Sum of electronic and thermal Energies=              -825.773679
 Sum of electronic and thermal Enthalpies=            -825.772735
 Sum of electronic and thermal Free Energies=         -825.837893

                     E (Thermal)             CV                S
                      KCal/Mol        Cal/Mol-Kelvin    Cal/Mol-Kelvin
 Total                  259.721             70.199            137.138
 Electronic               0.000              0.000              0.000
 Translational            0.889              2.981             42.603
 Rotational               0.889              2.981             33.399
 Vibrational            257.944             64.238             61.136
 Vibration     1          0.593              1.985              6.307
 Vibration     2          0.594              1.983              5.559
 Vibration     3          0.595              1.979              4.966
 Vibration     4          0.596              1.975              4.566
 Vibration     5          0.601              1.959              3.745
 Vibration     6          0.602              1.955              3.629
 Vibration     7          0.612              1.924              2.956
 Vibration     8          0.623              1.886              2.500
 Vibration     9          0.636              1.845              2.167
 Vibration    10          0.641              1.829              2.067
 Vibration    11          0.652              1.796              1.882
 Vibration    12          0.666              1.752              1.688
 Vibration    13          0.683              1.702              1.505
 Vibration    14          0.684              1.700              1.498
 Vibration    15          0.698              1.659              1.374
 Vibration    16          0.732              1.561              1.136
 Vibration    17          0.742              1.534              1.081
 Vibration    18          0.756              1.496              1.009
 Vibration    19          0.764              1.476              0.973
 Vibration    20          0.776              1.444              0.919
 Vibration    21          0.793              1.401              0.853
 Vibration    22          0.841              1.284              0.698
 Vibration    23          0.869              1.219              0.624
 Vibration    24          0.891              1.170              0.573
 Vibration    25          0.923              1.102              0.509
 Vibration    26          0.971              1.008              0.430

                           ! Non-Optimized Parameters !
 Normal termination of Gaussian 16 at Sat Dec 12 11:48:25 2020.

 ----------------------------------------------------------------------
 # B3LYP/6-311++G(d,p) empiricaldispersion=gd3bj scf=xqc pop=npa geom=c
 heck
 ----------------------------------------------------------------------

 ---------------------------------------
 CID_116163012_JID_9988_Energie_neutraal
 ---------------------------------------
 Structure from the checkpoint file:  "JID_9988.chk"
 Charge =  0 Multiplicity = 1

 SCF Done:  E(RB3LYP) =  -826.412051587     A.U. after   14 cycles
 Normal termination of Gaussian 16 at Sat Dec 12 12:01:18 2020.

 ----------------------------------------------------------------------
 # B3LYP/6-311++G(d,p) empiricaldispersion=gd3bj scf=xqc pop=npa geom=c
 heck
 ----------------------------------------------------------------------

 -------------------------------------
 CID_116163012_JID_9988_Energie_kation
 -------------------------------------
 Structure from the checkpoint file:  "JID_9988.chk"
 Charge =  1 Multiplicity = 2

 SCF Done:  E(UB3LYP) =  -826.129066068     A.U. after   25 cycles
 Normal termination of Gaussian 16 at Sat Dec 12 12:33:06 2020.
 Gaussian 16:  ES64L-G16RevA.03 25-Dec-2016

 ----------------------------------------------------------------------
 # B3LYP/6-311++G(d,p) empiricaldispersion=gd3bj scf=xqc pop=npa geom=c
 heck
 ----------------------------------------------------------------------

 ------------------------------------
 CID_116163012_JID_9988_Energie_anion
 ------------------------------------
 Structure from the checkpoint file:  "JID_9988.chk"
 Charge = -1 Multiplicity = 2

                         Standard orientation:
 ---------------------------------------------------------------------
 Center     Atomic      Atomic             Coordinates (Angstroms)
 Number     Number       Type             X           Y           Z
 ---------------------------------------------------------------------
      1          6           0        2.025731    0.701679    2.012574
      2          6           0        2.454956    0.386692    0.582972
      3          6           0        1.509137    1.010146   -0.488172
      4          6           0        2.422570    1.176389   -1.717555
      5          8           0        3.774184    1.010631   -1.257163
      6          6           0        3.756864    1.090121    0.166416
      7          7           0        2.714128   -1.054650    0.429887
      8          6           0        1.687870   -2.020955    0.830314
      9          6           0        0.344032   -1.901604    0.161359
     10          7           0       -0.670765   -1.309854    0.797751
     11          7           0       -1.677729   -1.233956   -0.106120
     12          6           0       -1.321350   -1.788924   -1.298019
     13          6           0       -0.019032   -2.230157   -1.166857
     14          6           0       -2.993058   -0.690778    0.280172
     15          6           0       -2.864800    0.224795    1.507390
     16          6           0       -2.116887    1.527882    1.196671
     17          6           0       -2.737947    2.272010    0.007016
     18          6           0       -2.850493    1.362201   -1.223878
     19          6           0       -3.624531    0.079897   -0.891713
     20          1           0        2.727844    0.260303    2.728356
     21          1           0        1.025793    0.309608    2.219789
     22          1           0        2.001999    1.785235    2.170497
     23          1           0        0.633340    0.397849   -0.693517
     24          1           0        1.159518    1.986825   -0.133550
     25          1           0        2.305256    2.161920   -2.188758
     26          1           0        2.237858    0.412582   -2.482014
     27          1           0        3.756182    2.140075    0.504675
     28          1           0        4.647999    0.585147    0.545272
     29          1           0        3.018866   -1.232381   -0.523927
     30          1           0        2.108862   -3.014092    0.635212
     31          1           0        1.537662   -1.948236    1.911267
     32          1           0       -2.005122   -1.837091   -2.131521
     33          1           0        0.586429   -2.709736   -1.923079
     34          1           0       -3.635167   -1.542715    0.539828
     35          1           0       -3.888042    0.453786    1.834230
     36          1           0       -2.372340   -0.315591    2.318331
     37          1           0       -1.070514    1.291066    0.978190
     38          1           0       -2.117283    2.168473    2.086841
     39          1           0       -2.145164    3.162619   -0.234657
     40          1           0       -3.741939    2.627506    0.282307
     41          1           0       -1.845281    1.099069   -1.577850
     42          1           0       -3.347460    1.889569   -2.046869
     43          1           0       -3.722435   -0.560819   -1.775186
     44          1           0       -4.648145    0.336834   -0.589318
 ---------------------------------------------------------------------

 SCF Done:  E(UB3LYP) =  -826.401849051     A.U. after   31 cycles

 The electronic state is 2-A.
 Alpha  occ. eigenvalues --  -19.03657 -14.29031 -14.22953 -14.20980 -10.12598
 Alpha  occ. eigenvalues --  -10.12544 -10.12260 -10.11941 -10.10998 -10.10891
 Alpha  occ. eigenvalues --  -10.09661 -10.07513 -10.07376 -10.07203 -10.07083
 Alpha  occ. eigenvalues --  -10.06856 -10.06618 -10.06490 -10.06391  -0.95344
 Alpha  occ. eigenvalues --   -0.95209  -0.82216  -0.76593  -0.71662  -0.69635
 Alpha  occ. eigenvalues --   -0.68697  -0.65733  -0.64641  -0.64053  -0.60550
 Alpha  occ. eigenvalues --   -0.58466  -0.53198  -0.51821  -0.51007  -0.49687
 Alpha  occ. eigenvalues --   -0.47925  -0.46352  -0.45606  -0.42527  -0.41396
 Alpha  occ. eigenvalues --   -0.40236  -0.39998  -0.38092  -0.36623  -0.35803
 Alpha  occ. eigenvalues --   -0.35406  -0.34628  -0.34025  -0.33835  -0.33175
 Alpha  occ. eigenvalues --   -0.32658  -0.31427  -0.31086  -0.29297  -0.28995
 Alpha  occ. eigenvalues --   -0.28645  -0.28289  -0.28115  -0.27838  -0.26349
 Alpha  occ. eigenvalues --   -0.25647  -0.25374  -0.24687  -0.22756  -0.22594
 Alpha  occ. eigenvalues --   -0.21368  -0.21117  -0.19514  -0.17720  -0.15889
 Alpha  occ. eigenvalues --   -0.15568  -0.13338   0.04022
 Alpha virt. eigenvalues --    0.06201   0.06432   0.06923   0.07806   0.08032
 Alpha virt. eigenvalues --    0.08309   0.08840   0.09215   0.09749   0.10050
 Alpha virt. eigenvalues --    0.10414   0.10584   0.10692   0.11434   0.11911

  Beta  occ. eigenvalues --  -19.03657 -14.29022 -14.22935 -14.20974 -10.12588
  Beta  occ. eigenvalues --  -10.12539 -10.12260 -10.11930 -10.10995 -10.10860
  Beta  occ. eigenvalues --  -10.09659 -10.07507 -10.07370 -10.07172 -10.07076
  Beta  occ. eigenvalues --  -10.06841 -10.06604 -10.06471 -10.06384  -0.95340
  Beta  occ. eigenvalues --   -0.95183  -0.82205  -0.76558  -0.71633  -0.69618
  Beta  occ. eigenvalues --   -0.68664  -0.65716  -0.64604  -0.64021  -0.60535
  Beta  occ. eigenvalues --   -0.58446  -0.53152  -0.51780  -0.50983  -0.49650
  Beta  occ. eigenvalues --   -0.47889  -0.46328  -0.45554  -0.42511  -0.41367
  Beta  occ. eigenvalues --   -0.40160  -0.39967  -0.38080  -0.36599  -0.35775
  Beta  occ. eigenvalues --   -0.35380  -0.34599  -0.34002  -0.33817  -0.33129
  Beta  occ. eigenvalues --   -0.32641  -0.31414  -0.31072  -0.29274  -0.28961
  Beta  occ. eigenvalues --   -0.28614  -0.28254  -0.28090  -0.27802  -0.26340
  Beta  occ. eigenvalues --   -0.25630  -0.25361  -0.24654  -0.22746  -0.22563
  Beta  occ. eigenvalues --   -0.21330  -0.21076  -0.19487  -0.17712  -0.15800
  Beta  occ. eigenvalues --   -0.15524  -0.13321
  Beta virt. eigenvalues --    0.06012   0.06925   0.06985   0.07238   0.08229
  Beta virt. eigenvalues --    0.08513   0.08695   0.09065   0.09325   0.09941
  Beta virt. eigenvalues --    0.10346   0.10767   0.10942   0.11001   0.11639

 Mulliken charges and spin densities:
               1          2
     1  C   -0.449477  -0.213766
     2  C   -0.216944   0.101049
     3  C   -0.104766   0.223789
     4  C   -0.254942  -0.195598
     5  O   -0.105172   0.017472
     6  C   -0.314869  -0.096046
     7  N    0.178509   0.028691
     8  C   -0.076262  -0.940404
     9  C    0.681693  -0.478605
    10  N   -0.264478   0.266539
    11  N    0.355963  -0.261033
    12  C    0.252040  -0.409816
    13  C   -0.311546   0.341948
    14  C   -0.084294   0.588430
    15  C   -0.025390  -0.662350
    16  C   -0.281086   0.245728
    17  C    0.753747  -1.331457
    18  C   -0.534477   0.434918
    19  C    0.889672  -1.619750
    20  H    0.109441   0.049939
    21  H    0.160719  -0.003877
    22  H    0.038297   0.096188
    23  H    0.442113  -0.617150
    24  H    0.074619   0.130198
    25  H   -0.046193   0.196019
    26  H    0.067909   0.118109
    27  H    0.042181   0.091555
    28  H    0.162000   0.022194
    29  H    0.230538   0.025745
    30  H    0.105776   0.067910
    31  H    0.138022   0.041421
    32  H   -0.728265   0.888171
    33  H   -0.288367   0.444815
    34  H   -0.441703   0.728020
    35  H   -0.217887   0.377838
    36  H    0.104731   0.089807
    37  H    0.281193  -0.256748
    38  H   -0.010216   0.192473
    39  H   -0.237152   0.385826
    40  H   -0.093890   0.238071
    41  H   -0.089535   0.231836
    42  H   -0.304033   0.505929
    43  H   -0.169483   0.326551
    44  H   -0.418737   0.589422
 Sum of Mulliken charges =  -1.00000   1.00000

 Dipole moment (field-independent basis, Debye):
    X=              7.5787    Y=             -0.4065    Z=              2.8213  Tot=              8.0970
 Quadrupole moment (field-independent basis, Debye-Ang):
   XX=           -211.3383   YY=           -164.6544   ZZ=           -160.0347
   XY=             -1.3382   XZ=             -2.9888   YZ=             -0.4735

 Summary of Natural Population Analysis:

                                       Natural Population
                Natural  -----------------------------------------------
    Atom  No    Charge         Core      Valence    Rydberg      Total
 -----------------------------------------------------------------------
      C    1   -0.29412      0.99961     2.28885    0.00566     3.29412
      C    2    0.05097      0.99956     1.93574    0.01373     2.94903
      C    3   -0.21938      0.99959     2.20963    0.01016     3.21938
      C    4   -0.01229      0.99961     2.00233    0.01035     3.01229
      O    5   -0.30635      0.99990     3.29831    0.00815     4.30635
      C    6   -0.00785      0.99952     1.99595    0.01238     3.00785
      N    7   -0.34472      0.99972     2.83321    0.01179     3.84472
      C    8   -0.10117      0.99957     2.09015    0.01145     3.10117
      C    9    0.05782      0.99958     1.92725    0.01536     2.94218
      N   10   -0.15993      0.99969     2.64943    0.01080     3.65993
      N   11   -0.10974      0.99965     2.59520    0.01489     3.60974
      C   12    0.00070      0.99954     1.98814    0.01162     2.99930
      C   13   -0.16512      0.99950     2.15637    0.00925     3.16512
      C   14    0.00107      0.99956     1.98520    0.01417     2.99893
      C   15   -0.19324      0.99961     2.18462    0.00900     3.19324
      C   16   -0.19435      0.99962     2.18655    0.00818     3.19435
      C   17   -0.18776      0.99963     2.18010    0.00803     3.18776
      C   18   -0.19209      0.99962     2.18404    0.00843     3.19209
      C   19   -0.19376      0.99961     2.18427    0.00987     3.19376
      H   20    0.10064      0.00000     0.39849    0.00086     0.39936
      H   21    0.11318      0.00000     0.38568    0.00114     0.38682
      H   22    0.10132      0.00000     0.39784    0.00084     0.39868
      H   23    0.11526      0.00000     0.38199    0.00275     0.38474
      H   24    0.09983      0.00000     0.39853    0.00164     0.40017
      H   25    0.08334      0.00000     0.41525    0.00141     0.41666
      H   26    0.08619      0.00000     0.41228    0.00153     0.41381
      H   27    0.07745      0.00000     0.42128    0.00127     0.42255
      H   28    0.09527      0.00000     0.40336    0.00136     0.40473
      H   29    0.17747      0.00000     0.31963    0.00290     0.32253
      H   30    0.09870      0.00000     0.40041    0.00090     0.40130
      H   31    0.10051      0.00000     0.39835    0.00114     0.39949
      H   32    0.10926      0.00000     0.38905    0.00169     0.39074
      H   33    0.10787      0.00000     0.39118    0.00095     0.39213
      H   34    0.10329      0.00000     0.39477    0.00193     0.39671
      H   35    0.10038      0.00000     0.39838    0.00124     0.39962
      H   36    0.11066      0.00000     0.38788    0.00146     0.38934
      H   37    0.09961      0.00000     0.39760    0.00279     0.40039
      H   38    0.09712      0.00000     0.40194    0.00095     0.40288
      H   39    0.09805      0.00000     0.40085    0.00110     0.40195
      H   40    0.09304      0.00000     0.40554    0.00142     0.40696
      H   41    0.09430      0.00000     0.40331    0.00239     0.40570
      H   42    0.10132      0.00000     0.39747    0.00122     0.39868
      H   43    0.10287      0.00000     0.39480    0.00234     0.39713
      H   44    0.10438      0.00000     0.39340    0.00222     0.39562
 =======================================================================
   * Total *    0.00000     18.99268    52.76460    0.24272    72.00000

 Normal termination of Gaussian 16 at Sat Dec 12 13:12:33 2020.
