 Gaussian 16, Revision A.03,

 -----------------------------------------------------------
 # opt freq B3LYP/6-31G(d) empiricaldispersion=gd3bj scf=xqc
 -----------------------------------------------------------

 -------------------------------
 CID_103155471_JID_6068_neutraal
 -------------------------------
 Symbolic Z-matrix:
 Charge =  0 Multiplicity = 1

 SCF Done:  E(RB3LYP) =  -747.768220941     A.U. after   14 cycles
 SCF Done:  E(RB3LYP) =  -747.772461611     A.U. after   12 cycles
 SCF Done:  E(RB3LYP) =  -747.773011869     A.U. after   12 cycles
 SCF Done:  E(RB3LYP) =  -747.773396540     A.U. after   10 cycles
 SCF Done:  E(RB3LYP) =  -747.773478521     A.U. after   11 cycles
 SCF Done:  E(RB3LYP) =  -747.773583379     A.U. after   10 cycles
 SCF Done:  E(RB3LYP) =  -747.773696856     A.U. after   11 cycles
 SCF Done:  E(RB3LYP) =  -747.773707050     A.U. after   11 cycles
 SCF Done:  E(RB3LYP) =  -747.773783564     A.U. after   10 cycles
 SCF Done:  E(RB3LYP) =  -747.773856566     A.U. after   10 cycles
 SCF Done:  E(RB3LYP) =  -747.774016347     A.U. after    7 cycles
 SCF Done:  E(RB3LYP) =  -747.774016438     A.U. after    7 cycles
 SCF Done:  E(RB3LYP) =  -747.774016512     A.U. after    6 cycles
 SCF Done:  E(RB3LYP) =  -747.774016621     A.U. after    7 cycles
 SCF Done:  E(RB3LYP) =  -747.774016679     A.U. after    7 cycles
 SCF Done:  E(RB3LYP) =  -747.774016698     A.U. after    6 cycles
 Optimization completed.
    -- Stationary point found.
 Normal termination of Gaussian 16 at Thu Dec 10 21:27:19 2020.

 --------------------------------------------------------------------
 #N Geom=AllCheck Guess=TCheck SCRF=Check GenChk RB3LYP/6-31G(d) Freq
 --------------------------------------------------------------------

 Structure from the checkpoint file:  "JID_6068.chk"
 -------------------------------
 CID_103155471_JID_6068_neutraal
 -------------------------------
 Charge =  0 Multiplicity = 1

 SCF Done:  E(RB3LYP) =  -747.774016698     A.U. after    1 cycles

  Exact polarizability: 163.483  -1.271 138.199  -2.745   1.984 120.343
 Approx polarizability: 207.100  -7.036 191.518  -3.415  10.618 181.378

                      1                      2                      3
                      A                      A                      A
 Frequencies --     24.0757                41.0990                44.9165
 Red. masses --      4.0140                 4.4890                 3.6753
 Frc consts  --      0.0014                 0.0045                 0.0044
 IR Inten    --      0.2399                 1.4449                 0.7132

                      4                      5                      6
                      A                      A                      A
 Frequencies --     55.7338                73.6574                85.0939
 Red. masses --      1.8582                 3.3418                 3.6359
 Frc consts  --      0.0034                 0.0107                 0.0155
 IR Inten    --      1.4593                 0.8040                 1.8078

                      7                      8                      9
                      A                      A                      A
 Frequencies --    125.6939               160.4133               172.5771
 Red. masses --      3.2837                 2.2675                 2.0777
 Frc consts  --      0.0306                 0.0344                 0.0365
 IR Inten    --      0.5757                 4.3734                 0.5885

                     10                     11                     12
                      A                      A                      A
 Frequencies --    199.1470               207.2387               226.1548
 Red. masses --      1.7134                 1.5043                 1.7773
 Frc consts  --      0.0400                 0.0381                 0.0536
 IR Inten    --     12.0788                22.5032                39.6926

                     13                     14                     15
                      A                      A                      A
 Frequencies --    251.2926               270.4171               272.6926
 Red. masses --      1.4349                 2.2545                 2.5500
 Frc consts  --      0.0534                 0.0971                 0.1117
 IR Inten    --      0.3271                 0.9444                 2.9179

                     16                     17                     18
                      A                      A                      A
 Frequencies --    289.2243               297.7402               345.3824
 Red. masses --      3.4847                 2.0683                 4.9226
 Frc consts  --      0.1717                 0.1080                 0.3460
 IR Inten    --      3.1067                 0.0358                 2.4769

                     19                     20                     21
                      A                      A                      A
 Frequencies --    357.5155               409.1924               426.6316
 Red. masses --      2.7673                 2.4514                 3.3219
 Frc consts  --      0.2084                 0.2418                 0.3562
 IR Inten    --      1.4045                 7.5650                 3.1477

                     22                     23                     24
                      A                      A                      A
 Frequencies --    432.9820               437.9755               474.4338
 Red. masses --      3.6699                 3.1004                 2.4212
 Frc consts  --      0.4054                 0.3504                 0.3211
 IR Inten    --      1.4965                 0.6784                 5.5551

                     25                     26                     27
                      A                      A                      A
 Frequencies --    513.0972               531.4692               571.6776
 Red. masses --      1.4562                 2.3669                 2.5690
 Frc consts  --      0.2259                 0.3939                 0.4947
 IR Inten    --     39.0764                 4.4448                20.6339

                     28                     29                     30
                      A                      A                      A
 Frequencies --    637.6773               657.6128               681.6101
 Red. masses --      1.8584                 3.0433                 3.4797
 Frc consts  --      0.4452                 0.7754                 0.9525
 IR Inten    --     42.9498                 2.2962                30.9035

                     31                     32                     33
                      A                      A                      A
 Frequencies --    797.2628               808.9366               880.9731
 Red. masses --      2.3706                 2.3134                 3.0407
 Frc consts  --      0.8878                 0.8919                 1.3905
 IR Inten    --     25.0118                 5.7230                 4.2989

                     34                     35                     36
                      A                      A                      A
 Frequencies --    886.5859               888.2219               904.5461
 Red. masses --      1.7919                 1.7791                 2.4399
 Frc consts  --      0.8298                 0.8270                 1.1762
 IR Inten    --     19.1061                11.7830                 7.8981

                     37                     38                     39
                      A                      A                      A
 Frequencies --    920.8253               927.7193               981.5815
 Red. masses --      2.0179                 2.2599                 2.0797
 Frc consts  --      1.0081                 1.1460                 1.1806
 IR Inten    --     35.0070                 2.0023                11.7810

                     40                     41                     42
                      A                      A                      A
 Frequencies --    986.0548              1009.8752              1023.3855
 Red. masses --      2.2691                 1.6044                 1.7678
 Frc consts  --      1.2999                 0.9641                 1.0908
 IR Inten    --     25.6811                 7.5138                67.3920

                     43                     44                     45
                      A                      A                      A
 Frequencies --   1045.1142              1066.7413              1089.8067
 Red. masses --      1.8782                 2.4173                 1.8427
 Frc consts  --      1.2087                 1.6207                 1.2895
 IR Inten    --      8.7745                 6.5306                17.2551

                     46                     47                     48
                      A                      A                      A
 Frequencies --   1120.8121              1124.7481              1129.6192
 Red. masses --      2.5708                 2.7450                 2.1758
 Frc consts  --      1.9028                 2.0460                 1.6358
 IR Inten    --     14.5528                58.6571                11.1461

                     49                     50                     51
                      A                      A                      A
 Frequencies --   1153.1655              1157.2400              1186.3409
 Red. masses --      1.8682                 2.4540                 1.2503
 Frc consts  --      1.4637                 1.9363                 1.0367
 IR Inten    --     19.2946                 2.8603                 9.2840

                     52                     53                     54
                      A                      A                      A
 Frequencies --   1189.3330              1191.1981              1199.0919
 Red. masses --      1.3351                 2.1225                 1.4173
 Frc consts  --      1.1127                 1.7745                 1.2006
 IR Inten    --      6.3963                22.2420                30.9780

                     55                     56                     57
                      A                      A                      A
 Frequencies --   1204.4261              1236.4401              1246.5724
 Red. masses --      2.3709                 1.4680                 1.6331
 Frc consts  --      2.0264                 1.3223                 1.4952
 IR Inten    --     22.3469                13.9932                28.6416

                     58                     59                     60
                      A                      A                      A
 Frequencies --   1258.1343              1299.0106              1304.9521
 Red. masses --      1.4162                 1.8898                 1.4352
 Frc consts  --      1.3208                 1.8789                 1.4399
 IR Inten    --     24.3413                25.0073                 7.0929

                     61                     62                     63
                      A                      A                      A
 Frequencies --   1307.7615              1334.7638              1349.8760
 Red. masses --      1.4003                 1.4615                 1.2699
 Frc consts  --      1.4110                 1.5341                 1.3633
 IR Inten    --     66.6705                 6.9374                 7.9510

                     64                     65                     66
                      A                      A                      A
 Frequencies --   1368.6050              1374.4256              1382.3053
 Red. masses --      1.2754                 1.2140                 1.5832
 Frc consts  --      1.4076                 1.3512                 1.7823
 IR Inten    --      3.5718                12.0163                45.9811

                     67                     68                     69
                      A                      A                      A
 Frequencies --   1393.9731              1403.7969              1404.5500
 Red. masses --      1.4017                 1.4174                 1.2590
 Frc consts  --      1.6048                 1.6457                 1.4633
 IR Inten    --      9.3537                 2.5681                 3.5871

                     70                     71                     72
                      A                      A                      A
 Frequencies --   1421.0680              1423.2925              1438.4749
 Red. masses --      1.4593                 1.5083                 1.4982
 Frc consts  --      1.7363                 1.8002                 1.8265
 IR Inten    --      4.8005                58.0787                69.0877

                     73                     74                     75
                      A                      A                      A
 Frequencies --   1439.3299              1485.4294              1491.2127
 Red. masses --      1.5192                 1.1894                 1.7171
 Frc consts  --      1.8543                 1.5462                 2.2497
 IR Inten    --     19.9673                 0.2633                77.8158

                     76                     77                     78
                      A                      A                      A
 Frequencies --   1496.5493              1508.7799              1511.6114
 Red. masses --      1.1608                 1.1313                 1.0916
 Frc consts  --      1.5318                 1.5173                 1.4696
 IR Inten    --     10.1536                 0.5458                 8.3566

                     79                     80                     81
                      A                      A                      A
 Frequencies --   1516.8256              1518.0320              1521.7257
 Red. masses --      1.0584                 1.0810                 1.0644
 Frc consts  --      1.4347                 1.4677                 1.4522
 IR Inten    --     18.0635                 2.6157                11.0849

                     82                     83                     84
                      A                      A                      A
 Frequencies --   1523.7470              1524.6660              1535.4438
 Red. masses --      1.1084                 1.0907                 1.0630
 Frc consts  --      1.5163                 1.4938                 1.4766
 IR Inten    --      4.6646                 2.0628                14.8161

                     85                     86                     87
                      A                      A                      A
 Frequencies --   1537.9276              1547.2478              1700.7964
 Red. masses --      1.0565                 1.0995                 1.0851
 Frc consts  --      1.4724                 1.5509                 1.8493
 IR Inten    --      3.3171                 6.2288                28.0888

                     88                     89                     90
                      A                      A                      A
 Frequencies --   1770.8944              2887.9772              2901.1086
 Red. masses --      7.7772                 1.0731                 1.0724
 Frc consts  --     14.3700                 5.2731                 5.3177
 IR Inten    --    387.7950                30.6188                82.4760

                     91                     92                     93
                      A                      A                      A
 Frequencies --   2940.3244              3017.4227              3024.4918
 Red. masses --      1.0619                 1.0686                 1.0355
 Frc consts  --      5.4090                 5.7323                 5.5808
 IR Inten    --    117.3648                26.3231                45.5357

                     94                     95                     96
                      A                      A                      A
 Frequencies --   3050.4315              3053.3971              3062.0250
 Red. masses --      1.0626                 1.0618                 1.0706
 Frc consts  --      5.8258                 5.8328                 5.9143
 IR Inten    --     27.2416                18.7222                 5.3512

                     97                     98                     99
                      A                      A                      A
 Frequencies --   3078.0699              3078.8933              3081.1905
 Red. masses --      1.0766                 1.1008                 1.0813
 Frc consts  --      6.0100                 6.1484                 6.0482
 IR Inten    --     19.0633                56.7180                69.1829

                    100                    101                    102
                      A                      A                      A
 Frequencies --   3083.3395              3091.9163              3095.8954
 Red. masses --      1.0847                 1.0902                 1.0951
 Frc consts  --      6.0756                 6.1408                 6.1841
 IR Inten    --      7.2422                30.7867                 6.8586

                    103                    104                    105
                      A                      A                      A
 Frequencies --   3100.8238              3102.9375              3108.2092
 Red. masses --      1.1003                 1.0999                 1.0891
 Frc consts  --      6.2334                 6.2394                 6.1994
 IR Inten    --     53.1118                30.1672                21.9300

                    106                    107                    108
                      A                      A                      A
 Frequencies --   3124.8292              3127.8429              3156.1266
 Red. masses --      1.1042                 1.1020                 1.0897
 Frc consts  --      6.3523                 6.3524                 6.3952
 IR Inten    --     33.1087                47.6183                14.2397

                    109                    110                    111
                      A                      A                      A
 Frequencies --   3472.3379              3553.3483              3578.9453
 Red. masses --      1.0506                 1.0921                 1.0756
 Frc consts  --      7.4634                 8.1245                 8.1172
 IR Inten    --      0.8105                 0.0494                14.3832

 - Thermochemistry -
 -------------------
 Temperature   298.150 Kelvin.  Pressure   1.00000 Atm.
 Atom     1 has atomic number  6 and mass  12.00000

 Molecular mass:   229.17903 amu.
 Principal axes and moments of inertia in atomic units:
                           1         2         3
     Eigenvalues --  2338.722976162.701237179.74084
           X            0.99995   0.00930  -0.00246
           Y           -0.00935   0.99968  -0.02345
           Z            0.00224   0.02347   0.99972
 This molecule is an asymmetric top.
 Rotational symmetry number  1.
 Warning -- assumption of classical behavior for rotation
           may cause significant error
 Rotational temperatures (Kelvin)      0.03703     0.01405     0.01206
 Rotational constants (GHZ):           0.77168     0.29285     0.25137
 Zero-point vibrational energy     924104.1 (Joules/Mol)
                                  220.86617 (Kcal/Mol)
 Warning -- explicit consideration of  27 degrees of freedom as
           vibrations may cause significant error
 Vibrational temperatures:     34.64    59.13    64.62    80.19   105.98
          (Kelvin)            122.43   180.85   230.80   248.30   286.53
                              298.17   325.39   361.55   389.07   392.34
                              416.13   428.38   496.93   514.39   588.74
                              613.83   622.96   630.15   682.60   738.23
                              764.67   822.52   917.48   946.16   980.68
                             1147.08  1163.88  1267.52  1275.60  1277.95
                             1301.44  1324.86  1334.78  1412.28  1418.71
                             1452.99  1472.42  1503.69  1534.80  1567.99
                             1612.60  1618.26  1625.27  1659.15  1665.01
                             1706.88  1711.18  1713.87  1725.23  1732.90
                             1778.96  1793.54  1810.17  1868.99  1877.54
                             1881.58  1920.43  1942.17  1969.12  1977.49
                             1988.83  2005.62  2019.75  2020.83  2044.60
                             2047.80  2069.64  2070.87  2137.20  2145.52
                             2153.20  2170.80  2174.87  2182.37  2184.11
                             2189.42  2192.33  2193.65  2209.16  2212.73
                             2226.14  2447.07  2547.92  4155.16  4174.05
                             4230.47  4341.40  4351.57  4388.89  4393.16
                             4405.57  4428.66  4429.84  4433.15  4436.24
                             4448.58  4454.30  4461.39  4464.44  4472.02
                             4495.93  4500.27  4540.96  4995.92  5112.48
                             5149.30

 Zero-point correction=                           0.351973 (Hartree/Particle)
 Thermal correction to Energy=                    0.369792
 Thermal correction to Enthalpy=                  0.370736
 Thermal correction to Gibbs Free Energy=         0.305078
 Sum of electronic and zero-point Energies=           -747.422044
 Sum of electronic and thermal Energies=              -747.404225
 Sum of electronic and thermal Enthalpies=            -747.403280
 Sum of electronic and thermal Free Energies=         -747.468939

                     E (Thermal)             CV                S
                      KCal/Mol        Cal/Mol-Kelvin    Cal/Mol-Kelvin
 Total                  232.048             66.151            138.190
 Electronic               0.000              0.000              0.000
 Translational            0.889              2.981             42.190
 Rotational               0.889              2.981             33.003
 Vibrational            230.271             60.190             62.997
 Vibration     1          0.593              1.985              6.266
 Vibration     2          0.594              1.981              5.205
 Vibration     3          0.595              1.979              5.030
 Vibration     4          0.596              1.975              4.603
 Vibration     5          0.599              1.966              4.053
 Vibration     6          0.601              1.960              3.770
 Vibration     7          0.611              1.927              3.011
 Vibration     8          0.622              1.891              2.545
 Vibration     9          0.626              1.876              2.407
 Vibration    10          0.637              1.841              2.141
 Vibration    11          0.641              1.830              2.068
 Vibration    12          0.650              1.801              1.909
 Vibration    13          0.663              1.761              1.721
 Vibration    14          0.674              1.728              1.594
 Vibration    15          0.676              1.724              1.579
 Vibration    16          0.686              1.694              1.478
 Vibration    17          0.691              1.678              1.430
 Vibration    18          0.724              1.585              1.187
 Vibration    19          0.733              1.560              1.133
 Vibration    20          0.774              1.450              0.929
 Vibration    21          0.788              1.412              0.870
 Vibration    22          0.794              1.398              0.849
 Vibration    23          0.798              1.387              0.833
 Vibration    24          0.831              1.307              0.725
 Vibration    25          0.868              1.221              0.626
 Vibration    26          0.886              1.180              0.584
 Vibration    27          0.928              1.093              0.501

 Optimization completed.
    -- Stationary point found.
 Normal termination of Gaussian 16 at Thu Dec 10 21:40:55 2020.

 ----------------------------------------------------------------------
 # B3LYP/6-311++G(d,p) empiricaldispersion=gd3bj scf=xqc pop=npa geom=c
 heck
 ----------------------------------------------------------------------

 ---------------------------------------
 CID_103155471_JID_6068_Energie_neutraal
 ---------------------------------------
 Structure from the checkpoint file:  "JID_6068.chk"
 Charge =  0 Multiplicity = 1

 SCF Done:  E(RB3LYP) =  -747.999963809     A.U. after   14 cycles
 Normal termination of Gaussian 16 at Thu Dec 10 21:47:20 2020.

 ----------------------------------------------------------------------
 # B3LYP/6-311++G(d,p) empiricaldispersion=gd3bj scf=xqc pop=npa geom=c
 heck
 ----------------------------------------------------------------------

 -------------------------------------
 CID_103155471_JID_6068_Energie_kation
 -------------------------------------
 Structure from the checkpoint file:  "JID_6068.chk"
 Charge =  1 Multiplicity = 2

 SCF Done:  E(UB3LYP) =  -747.706489607     A.U. after   26 cycles
 Normal termination of Gaussian 16 at Thu Dec 10 22:05:12 2020.
 Gaussian 16:  ES64L-G16RevA.03 25-Dec-2016

 ----------------------------------------------------------------------
 # B3LYP/6-311++G(d,p) empiricaldispersion=gd3bj scf=xqc pop=npa geom=c
 heck
 ----------------------------------------------------------------------

 ------------------------------------
 CID_103155471_JID_6068_Energie_anion
 ------------------------------------
 Structure from the checkpoint file:  "JID_6068.chk"
 Charge = -1 Multiplicity = 2

                         Standard orientation:
 ---------------------------------------------------------------------
 Center     Atomic      Atomic             Coordinates (Angstroms)
 Number     Number       Type             X           Y           Z
 ---------------------------------------------------------------------
      1          6           0       -2.647257    2.539495   -0.716138
      2          7           0       -2.566450    1.279515    0.004665
      3          6           0       -3.867758    0.624840    0.106454
      4          6           0       -3.778334   -0.621723    0.988335
      5          6           0       -2.709991   -1.589170    0.467691
      6          6           0       -1.375355   -0.860190    0.290974
      7          6           0       -1.571152    0.391354   -0.581054
      8          7           0       -0.383210   -1.763777   -0.278917
      9          6           0        0.981383   -1.693692   -0.191466
     10          8           0        1.692031   -2.469967   -0.825879
     11          6           0        1.560734   -0.633873    0.733841
     12          6           0        2.997263   -0.248995    0.354522
     13          6           0        3.128637    0.248462   -1.098152
     14          7           0        1.969974    1.049240   -1.544939
     15          8           0        3.542655    0.654640    1.316825
     16          6           0        3.002071    1.963504    1.345281
     17          1           0       -2.982023    2.418388   -1.765276
     18          1           0       -3.351744    3.208782   -0.210829
     19          1           0       -1.663593    3.020259   -0.726647
     20          1           0       -4.579409    1.338959    0.535972
     21          1           0       -4.255317    0.343114   -0.895829
     22          1           0       -4.754267   -1.119001    1.026971
     23          1           0       -3.526464   -0.312353    2.010068
     24          1           0       -3.025477   -1.988485   -0.508481
     25          1           0       -2.584644   -2.443829    1.141945
     26          1           0       -1.028282   -0.536375    1.276858
     27          1           0       -1.856584    0.061701   -1.603762
     28          1           0       -0.623918    0.933597   -0.669834
     29          1           0       -0.708289   -2.472676   -0.926555
     30          1           0        0.934674    0.258493    0.735065
     31          1           0        1.564809   -1.027713    1.758324
     32          1           0        3.628211   -1.136387    0.448732
     33          1           0        4.026365    0.873668   -1.145123
     34          1           0        3.301175   -0.627227   -1.735366
     35          1           0        2.257426    1.663633   -2.304036
     36          1           0        1.274506    0.425498   -1.951483
     37          1           0        3.141304    2.495852    0.396177
     38          1           0        1.929279    1.976108    1.582638
     39          1           0        3.541127    2.493694    2.135520
 ---------------------------------------------------------------------

 SCF Done:  E(UB3LYP) =  -747.988901463     A.U. after   32 cycles

 The electronic state is 2-A.
 Alpha  occ. eigenvalues --  -19.03250 -18.99955 -14.24765 -14.21484 -14.20136
 Alpha  occ. eigenvalues --  -10.18733 -10.13082 -10.12572 -10.11666 -10.10011
 Alpha  occ. eigenvalues --  -10.09873 -10.09848 -10.09221 -10.08745 -10.08409
 Alpha  occ. eigenvalues --  -10.07797  -0.95110  -0.94235  -0.84949  -0.82923
 Alpha  occ. eigenvalues --   -0.79036  -0.70935  -0.68990  -0.66254  -0.62126
 Alpha  occ. eigenvalues --   -0.60464  -0.58223  -0.55050  -0.53042  -0.51000
 Alpha  occ. eigenvalues --   -0.47385  -0.46163  -0.42730  -0.41725  -0.41568
 Alpha  occ. eigenvalues --   -0.39352  -0.38339  -0.37996  -0.36390  -0.36193
 Alpha  occ. eigenvalues --   -0.35877  -0.34507  -0.34492  -0.33864  -0.32719
 Alpha  occ. eigenvalues --   -0.31491  -0.31274  -0.30850  -0.29803  -0.28901
 Alpha  occ. eigenvalues --   -0.28025  -0.27309  -0.26883  -0.25740  -0.24895
 Alpha  occ. eigenvalues --   -0.24362  -0.23503  -0.22160  -0.18351  -0.16995
 Alpha  occ. eigenvalues --   -0.16646  -0.14789  -0.13150   0.04020
 Alpha virt. eigenvalues --    0.05773   0.06782   0.06867   0.07831   0.08083
 Alpha virt. eigenvalues --    0.08649   0.09098   0.09468   0.09808   0.10230
 Alpha virt. eigenvalues --    0.10667   0.11139   0.11475   0.11848   0.12230

  Beta  occ. eigenvalues --  -19.03248 -18.99952 -14.24757 -14.21470 -14.20093
  Beta  occ. eigenvalues --  -10.18733 -10.13083 -10.12569 -10.11650 -10.09995
  Beta  occ. eigenvalues --  -10.09850 -10.09835 -10.09196 -10.08736 -10.08388
  Beta  occ. eigenvalues --  -10.07776  -0.95105  -0.94230  -0.84929  -0.82902
  Beta  occ. eigenvalues --   -0.78971  -0.70903  -0.68968  -0.66222  -0.62101
  Beta  occ. eigenvalues --   -0.60418  -0.58173  -0.55012  -0.52985  -0.50974
  Beta  occ. eigenvalues --   -0.47324  -0.46135  -0.42709  -0.41683  -0.41530
  Beta  occ. eigenvalues --   -0.39324  -0.38311  -0.37971  -0.36353  -0.36169
  Beta  occ. eigenvalues --   -0.35853  -0.34471  -0.34453  -0.33842  -0.32684
  Beta  occ. eigenvalues --   -0.31468  -0.31254  -0.30811  -0.29771  -0.28874
  Beta  occ. eigenvalues --   -0.28004  -0.27287  -0.26849  -0.25721  -0.24857
  Beta  occ. eigenvalues --   -0.24326  -0.23466  -0.22142  -0.18336  -0.16987
  Beta  occ. eigenvalues --   -0.16636  -0.14758  -0.13069
  Beta virt. eigenvalues --    0.06164   0.06822   0.07187   0.07420   0.08350
  Beta virt. eigenvalues --    0.08409   0.08854   0.09321   0.09855   0.10130
  Beta virt. eigenvalues --    0.10547   0.10946   0.11336   0.11673   0.11962

 Mulliken charges and spin densities:
               1          2
     1  C    0.487646  -0.746554
     2  N    0.141661   0.125740
     3  C    0.418269  -0.681850
     4  C    0.464121  -0.894195
     5  C   -0.141475   0.018767
     6  C   -0.573674  -0.008212
     7  C   -0.831069   0.142904
     8  N   -0.023883   0.090842
     9  C   -0.413153   0.035839
    10  O   -0.307549   0.013231
    11  C    0.563202  -0.572189
    12  C   -0.847252   0.611631
    13  C    0.356687  -0.887651
    14  N   -0.463319   0.075872
    15  O   -0.112146   0.013788
    16  C    0.112425  -0.351809
    17  H   -0.172482   0.286358
    18  H   -0.148336   0.286181
    19  H   -0.251745   0.378523
    20  H   -0.409310   0.577564
    21  H    0.139845  -0.026563
    22  H   -0.634314   0.833866
    23  H    0.171936  -0.043573
    24  H   -0.024203   0.145125
    25  H   -0.275912   0.466820
    26  H    0.146316   0.022581
    27  H   -0.413727   0.550657
    28  H    1.365723  -1.161906
    29  H    0.146975   0.162053
    30  H    0.329648   0.019509
    31  H    0.154647   0.067155
    32  H    0.199675   0.020377
    33  H   -0.011544   0.189026
    34  H    0.150933   0.027696
    35  H   -0.221575   0.493111
    36  H   -0.019438   0.266381
    37  H   -0.038493   0.174169
    38  H   -0.037806   0.157991
    39  H    0.022697   0.120745
 Sum of Mulliken charges =  -1.00000   1.00000

 Dipole moment (field-independent basis, Debye):
    X=              3.4047    Y=             -1.2649    Z=              2.2856  Tot=              4.2914
 Quadrupole moment (field-independent basis, Debye-Ang):
   XX=           -189.9908   YY=           -152.7978   ZZ=           -139.0762
   XY=              0.2046   XZ=              5.9197   YZ=              4.2442

 Summary of Natural Population Analysis:

                                       Natural Population
                Natural  -----------------------------------------------
    Atom  No    Charge         Core      Valence    Rydberg      Total
 -----------------------------------------------------------------------
      C    1   -0.17525      0.99965     2.16717    0.00843     3.17525
      N    2   -0.27770      0.99971     2.76673    0.01126     3.77770
      C    3   -0.08324      0.99961     2.07205    0.01158     3.08324
      C    4   -0.19284      0.99962     2.18389    0.00934     3.19284
      C    5   -0.18998      0.99961     2.18107    0.00930     3.18998
      C    6   -0.01553      0.99956     2.00432    0.01165     3.01553
      C    7   -0.09188      0.99958     2.08045    0.01185     3.09188
      N    8   -0.31738      0.99966     2.80743    0.01029     3.81738
      C    9    0.34692      0.99967     1.63157    0.02184     2.65308
      O   10   -0.32942      0.99988     3.32394    0.00560     4.32942
      C   11   -0.25612      0.99955     2.24904    0.00753     3.25612
      C   12    0.07100      0.99954     1.91519    0.01427     2.92900
      C   13   -0.11030      0.99961     2.09860    0.01210     3.11030
      N   14   -0.43206      0.99977     2.92111    0.01118     3.93206
      O   15   -0.30396      0.99989     3.29462    0.00946     4.30396
      C   16   -0.10116      0.99960     2.09161    0.00994     3.10116
      H   17    0.08128      0.00000     0.41745    0.00127     0.41872
      H   18    0.09566      0.00000     0.40318    0.00116     0.40434
      H   19    0.09812      0.00000     0.40049    0.00139     0.40188
      H   20    0.09939      0.00000     0.39902    0.00159     0.40061
      H   21    0.07929      0.00000     0.41891    0.00180     0.42071
      H   22    0.10350      0.00000     0.39501    0.00149     0.39650
      H   23    0.09703      0.00000     0.40146    0.00151     0.40297
      H   24    0.09567      0.00000     0.40268    0.00164     0.40433
      H   25    0.10417      0.00000     0.39463    0.00121     0.39583
      H   26    0.09903      0.00000     0.39872    0.00224     0.40097
      H   27    0.07933      0.00000     0.41855    0.00212     0.42067
      H   28    0.10545      0.00000     0.39174    0.00281     0.39455
      H   29    0.19453      0.00000     0.30308    0.00239     0.30547
      H   30    0.11353      0.00000     0.38442    0.00205     0.38647
      H   31    0.11565      0.00000     0.38321    0.00114     0.38435
      H   32    0.09774      0.00000     0.40094    0.00132     0.40226
      H   33    0.09581      0.00000     0.40317    0.00102     0.40419
      H   34    0.09711      0.00000     0.40166    0.00124     0.40289
      H   35    0.18138      0.00000     0.31519    0.00344     0.31862
      H   36    0.17542      0.00000     0.32212    0.00246     0.32458
      H   37    0.08502      0.00000     0.41360    0.00138     0.41498
      H   38    0.07954      0.00000     0.41925    0.00120     0.42046
      H   39    0.08526      0.00000     0.41387    0.00087     0.41474
 =======================================================================
   * Total *   -0.00000     15.99452    46.79113    0.21435    63.00000

 Normal termination of Gaussian 16 at Thu Dec 10 22:27:32 2020.
