 Gaussian 16, Revision A.03,

 -----------------------------------------------------------
 # opt freq B3LYP/6-31G(d) empiricaldispersion=gd3bj scf=xqc
 -----------------------------------------------------------

 ------------------------------
 CID_124164087_JID_566_neutraal
 ------------------------------
 Symbolic Z-matrix:
 Charge =  0 Multiplicity = 1

 SCF Done:  E(RB3LYP) =  -446.275227669     A.U. after   13 cycles
 SCF Done:  E(RB3LYP) =  -446.277213668     A.U. after   11 cycles
 SCF Done:  E(RB3LYP) =  -446.275935693     A.U. after   11 cycles
 SCF Done:  E(RB3LYP) =  -446.277303144     A.U. after   11 cycles
 SCF Done:  E(RB3LYP) =  -446.278048808     A.U. after   10 cycles
 SCF Done:  E(RB3LYP) =  -446.278402257     A.U. after   10 cycles
 SCF Done:  E(RB3LYP) =  -446.278789341     A.U. after   11 cycles
 SCF Done:  E(RB3LYP) =  -446.278972916     A.U. after   11 cycles
 SCF Done:  E(RB3LYP) =  -446.279020544     A.U. after   10 cycles
 SCF Done:  E(RB3LYP) =  -446.279117292     A.U. after   10 cycles
 SCF Done:  E(RB3LYP) =  -446.279258749     A.U. after    9 cycles
 SCF Done:  E(RB3LYP) =  -446.279263103     A.U. after    9 cycles
 SCF Done:  E(RB3LYP) =  -446.279263145     A.U. after    6 cycles
 SCF Done:  E(RB3LYP) =  -446.279263117     A.U. after    6 cycles
 SCF Done:  E(RB3LYP) =  -446.279263191     A.U. after    7 cycles
 SCF Done:  E(RB3LYP) =  -446.279263208     A.U. after    6 cycles
 Optimization completed.
    -- Stationary point found.
 Normal termination of Gaussian 16 at Tue Dec  8 12:29:17 2020.

 --------------------------------------------------------------------
 #N Geom=AllCheck Guess=TCheck SCRF=Check GenChk RB3LYP/6-31G(d) Freq
 --------------------------------------------------------------------

 Structure from the checkpoint file:  "JID_566.chk"
 ------------------------------
 CID_124164087_JID_566_neutraal
 ------------------------------
 Charge =  0 Multiplicity = 1

 SCF Done:  E(RB3LYP) =  -446.279263208     A.U. after    1 cycles

  Exact polarizability: 107.161  -2.103  96.991  -0.808   1.355  85.257
 Approx polarizability: 129.349  -2.227 130.974  -2.010   0.766 125.697

                      1                      2                      3
                      A                      A                      A
 Frequencies --     32.4790                54.5355                80.6306
 Red. masses --      2.6732                 2.1895                 2.8410
 Frc consts  --      0.0017                 0.0038                 0.0109
 IR Inten    --      0.1729                 0.3322                 0.6686

                      4                      5                      6
                      A                      A                      A
 Frequencies --    112.1374               134.7612               177.0879
 Red. masses --      1.8579                 2.3472                 1.5824
 Frc consts  --      0.0138                 0.0251                 0.0292
 IR Inten    --      0.7069                 0.5284                 4.9828

                      7                      8                      9
                      A                      A                      A
 Frequencies --    183.1353               189.8020               245.4953
 Red. masses --      1.8738                 2.2757                 1.1280
 Frc consts  --      0.0370                 0.0483                 0.0401
 IR Inten    --      0.2031                 0.2357                 0.4785

                     10                     11                     12
                      A                      A                      A
 Frequencies --    255.7672               262.9347               292.3513
 Red. masses --      1.1621                 1.3321                 3.1303
 Frc consts  --      0.0448                 0.0543                 0.1576
 IR Inten    --      0.7028                 0.2229                 4.3478

                     13                     14                     15
                      A                      A                      A
 Frequencies --    345.5910               368.5544               417.8203
 Red. masses --      2.9614                 2.1312                 2.3981
 Frc consts  --      0.2084                 0.1706                 0.2467
 IR Inten    --      3.5264                 4.4873                 3.4747

                     16                     17                     18
                      A                      A                      A
 Frequencies --    438.9409               445.8371               499.4684
 Red. masses --      2.1597                 1.6703                 3.2928
 Frc consts  --      0.2452                 0.1956                 0.4840
 IR Inten    --      0.1001                 2.3527                 5.2026

                     19                     20                     21
                      A                      A                      A
 Frequencies --    664.5123               740.7085               803.5443
 Red. masses --      2.6217                 1.8179                 1.9134
 Frc consts  --      0.6821                 0.5876                 0.7279
 IR Inten    --      4.4592                12.1411                 8.5497

                     22                     23                     24
                      A                      A                      A
 Frequencies --    853.7790               897.8582               900.8950
 Red. masses --      2.3962                 1.9441                 2.5117
 Frc consts  --      1.0291                 0.9234                 1.2011
 IR Inten    --      6.7632                11.7521                 0.3939

                     25                     26                     27
                      A                      A                      A
 Frequencies --    962.4228               989.8466              1039.8485
 Red. masses --      1.7905                 2.2600                 1.8592
 Frc consts  --      0.9771                 1.3047                 1.1845
 IR Inten    --     23.7560                13.1572                30.1059

                     28                     29                     30
                      A                      A                      A
 Frequencies --   1067.2294              1075.8400              1095.8648
 Red. masses --      2.0237                 1.6128                 2.3010
 Frc consts  --      1.3581                 1.0998                 1.6281
 IR Inten    --     15.1884                15.9166                13.3168

                     31                     32                     33
                      A                      A                      A
 Frequencies --   1122.2785              1132.5053              1139.8928
 Red. masses --      2.5537                 1.3771                 1.5915
 Frc consts  --      1.8951                 1.0406                 1.2184
 IR Inten    --     68.6598                 2.2620                23.5392

                     34                     35                     36
                      A                      A                      A
 Frequencies --   1182.1082              1193.1103              1198.5365
 Red. masses --      2.3930                 1.3305                 1.5041
 Frc consts  --      1.9702                 1.1159                 1.2730
 IR Inten    --     51.9613                 5.4672                 1.3344

                     37                     38                     39
                      A                      A                      A
 Frequencies --   1229.0666              1234.8378              1271.8634
 Red. masses --      1.6534                 1.5677                 1.5022
 Frc consts  --      1.4716                 1.4084                 1.4317
 IR Inten    --      3.0497                16.4036                 2.6487

                     40                     41                     42
                      A                      A                      A
 Frequencies --   1311.5623              1313.8893              1364.5676
 Red. masses --      2.1118                 1.3490                 1.4078
 Frc consts  --      2.1404                 1.3721                 1.5445
 IR Inten    --     11.7320                 5.0850                16.4358

                     43                     44                     45
                      A                      A                      A
 Frequencies --   1373.6461              1387.1671              1403.9231
 Red. masses --      1.2605                 1.4892                 1.3984
 Frc consts  --      1.4014                 1.6883                 1.6240
 IR Inten    --      4.6473                 2.1004                 4.9317

                     46                     47                     48
                      A                      A                      A
 Frequencies --   1421.5316              1440.6905              1445.2602
 Red. masses --      1.2354                 1.3579                 1.2658
 Frc consts  --      1.4709                 1.6605                 1.5578
 IR Inten    --     17.5510                 7.6889                 2.2967

                     49                     50                     51
                      A                      A                      A
 Frequencies --   1468.7356              1488.8563              1493.2671
 Red. masses --      1.1562                 1.1363                 1.1253
 Frc consts  --      1.4696                 1.4841                 1.4783
 IR Inten    --      3.2930                 2.8948                 0.5782

                     52                     53                     54
                      A                      A                      A
 Frequencies --   1513.3494              1516.1481              1519.3496
 Red. masses --      1.0725                 1.0510                 1.0791
 Frc consts  --      1.4472                 1.4234                 1.4677
 IR Inten    --      1.9009                 5.4971                 2.3433

                     55                     56                     57
                      A                      A                      A
 Frequencies --   1523.2785              1526.7508              1530.1402
 Red. masses --      1.0591                 1.0828                 1.0825
 Frc consts  --      1.4479                 1.4871                 1.4933
 IR Inten    --      2.4304                 6.6394                 4.5497

                     58                     59                     60
                      A                      A                      A
 Frequencies --   1532.6194              1536.6249              1539.9721
 Red. masses --      1.0479                 1.0629                 1.0668
 Frc consts  --      1.4503                 1.4786                 1.4906
 IR Inten    --     10.5198                 5.6244                 3.4457

                     61                     62                     63
                      A                      A                      A
 Frequencies --   1543.6557              1555.8114              2929.8475
 Red. masses --      1.0587                 1.0520                 1.0625
 Frc consts  --      1.4863                 1.5003                 5.3738
 IR Inten    --      8.2881                 6.0653                54.6304

                     64                     65                     66
                      A                      A                      A
 Frequencies --   2941.8025              2970.4437              3016.9144
 Red. masses --      1.0619                 1.0716                 1.0455
 Frc consts  --      5.4144                 5.5710                 5.6065
 IR Inten    --    130.5014                77.4708                56.8243

                     67                     68                     69
                      A                      A                      A
 Frequencies --   3039.9835              3043.6308              3046.0354
 Red. masses --      1.0617                 1.0641                 1.0504
 Frc consts  --      5.7811                 5.8076                 5.7419
 IR Inten    --     28.6434                22.0469                 6.2305

                     70                     71                     72
                      A                      A                      A
 Frequencies --   3053.2993              3071.9238              3078.3831
 Red. masses --      1.0712                 1.0977                 1.0720
 Frc consts  --      5.8836                 6.1034                 5.9853
 IR Inten    --     50.3390                35.9972                25.7012

                     73                     74                     75
                      A                      A                      A
 Frequencies --   3086.9768              3091.4625              3093.1918
 Red. masses --      1.0769                 1.0868                 1.0980
 Frc consts  --      6.0462                 6.1194                 6.1898
 IR Inten    --     35.7390                13.8100                61.9940

                     76                     77                     78
                      A                      A                      A
 Frequencies --   3095.9139              3113.1731              3118.7285
 Red. masses --      1.0876                 1.1020                 1.1017
 Frc consts  --      6.1421                 6.2927                 6.3135
 IR Inten    --     38.8270                43.2574                52.9401

                     79                     80                     81
                      A                      A                      A
 Frequencies --   3126.3674              3136.1387              3146.1092
 Red. masses --      1.1029                 1.1066                 1.0985
 Frc consts  --      6.3516                 6.4127                 6.4063
 IR Inten    --     32.1716                27.1912                25.5337

 - Thermochemistry -
 -------------------
 Temperature   298.150 Kelvin.  Pressure   1.00000 Atm.
 Atom     1 has atomic number  6 and mass  12.00000

 Molecular mass:   145.14666 amu.
 Principal axes and moments of inertia in atomic units:
                           1         2         3
     Eigenvalues --  1169.453432012.892072678.28935
           X            0.99997  -0.00680  -0.00273
           Y            0.00686   0.99976   0.02059
           Z            0.00259  -0.02061   0.99978
 This molecule is an asymmetric top.
 Rotational symmetry number  1.
 Warning -- assumption of classical behavior for rotation
           may cause significant error
 Rotational temperatures (Kelvin)      0.07406     0.04303     0.03234
 Rotational constants (GHZ):           1.54323     0.89659     0.67384
 Zero-point vibrational energy     707501.4 (Joules/Mol)
                                  169.09690 (Kcal/Mol)
 Warning -- explicit consideration of  18 degrees of freedom as
           vibrations may cause significant error
 Vibrational temperatures:     46.73    78.46   116.01   161.34   193.89
          (Kelvin)            254.79   263.49   273.08   353.21   367.99
                              378.30   420.63   497.23   530.27   601.15
                              631.54   641.46   718.62   956.09  1065.71
                             1156.12  1228.40  1291.82  1296.19  1384.71
                             1424.17  1496.11  1535.51  1547.89  1576.71
                             1614.71  1629.42  1640.05  1700.79  1716.62
                             1724.43  1768.35  1776.66  1829.93  1887.05
                             1890.39  1963.31  1976.37  1995.82  2019.93
                             2045.27  2072.83  2079.41  2113.18  2142.13
                             2148.48  2177.37  2181.40  2186.01  2191.66
                             2196.65  2201.53  2205.10  2210.86  2215.68
                             2220.98  2238.47  4215.40  4232.60  4273.81
                             4340.67  4373.86  4379.11  4382.57  4393.02
                             4419.81  4429.11  4441.47  4447.93  4450.41
                             4454.33  4479.16  4487.15  4498.15  4512.20
                             4526.55

 Zero-point correction=                           0.269473 (Hartree/Particle)
 Thermal correction to Energy=                    0.282519
 Thermal correction to Enthalpy=                  0.283463
 Thermal correction to Gibbs Free Energy=         0.229896
 Sum of electronic and zero-point Energies=           -446.009790
 Sum of electronic and thermal Energies=              -445.996744
 Sum of electronic and thermal Enthalpies=            -445.995800
 Sum of electronic and thermal Free Energies=         -446.049367

                     E (Thermal)             CV                S
                      KCal/Mol        Cal/Mol-Kelvin    Cal/Mol-Kelvin
 Total                  177.283             46.666            112.741
 Electronic               0.000              0.000              0.000
 Translational            0.889              2.981             40.829
 Rotational               0.889              2.981             30.223
 Vibrational            175.506             40.704             41.689
 Vibration     1          0.594              1.983              5.672
 Vibration     2          0.596              1.976              4.646
 Vibration     3          0.600              1.962              3.875
 Vibration     4          0.607              1.939              3.232
 Vibration     5          0.613              1.919              2.877
 Vibration     6          0.628              1.871              2.359
 Vibration     7          0.631              1.863              2.296
 Vibration     8          0.633              1.854              2.230
 Vibration     9          0.660              1.770              1.763
 Vibration    10          0.666              1.753              1.690
 Vibration    11          0.670              1.741              1.642
 Vibration    12          0.688              1.688              1.460
 Vibration    13          0.724              1.584              1.186
 Vibration    14          0.741              1.537              1.086
 Vibration    15          0.781              1.432              0.899
 Vibration    16          0.799              1.385              0.830
 Vibration    17          0.805              1.370              0.808
 Vibration    18          0.855              1.251              0.659

 Optimization completed.
    -- Stationary point found.
 Normal termination of Gaussian 16 at Tue Dec  8 12:44:00 2020.

 ----------------------------------------------------------------------
 # B3LYP/6-311++G(d,p) empiricaldispersion=gd3bj scf=xqc pop=npa geom=c
 heck
 ----------------------------------------------------------------------

 --------------------------------------
 CID_124164087_JID_566_Energie_neutraal
 --------------------------------------
 Structure from the checkpoint file:  "JID_566.chk"
 Charge =  0 Multiplicity = 1

 SCF Done:  E(RB3LYP) =  -446.410205523     A.U. after   13 cycles
 Normal termination of Gaussian 16 at Tue Dec  8 13:05:02 2020.

 ----------------------------------------------------------------------
 # B3LYP/6-311++G(d,p) empiricaldispersion=gd3bj scf=xqc pop=npa geom=c
 heck
 ----------------------------------------------------------------------

 ------------------------------------
 CID_124164087_JID_566_Energie_kation
 ------------------------------------
 Structure from the checkpoint file:  "JID_566.chk"
 Charge =  1 Multiplicity = 2

 SCF Done:  E(UB3LYP) =  -446.124550055     A.U. after   18 cycles
 Normal termination of Gaussian 16 at Tue Dec  8 13:11:42 2020.
 Gaussian 16:  ES64L-G16RevA.03 25-Dec-2016

 ----------------------------------------------------------------------
 # B3LYP/6-311++G(d,p) empiricaldispersion=gd3bj scf=xqc pop=npa geom=c
 heck
 ----------------------------------------------------------------------

 -----------------------------------
 CID_124164087_JID_566_Energie_anion
 -----------------------------------
 Structure from the checkpoint file:  "JID_566.chk"
 Charge = -1 Multiplicity = 2

                         Standard orientation:
 ---------------------------------------------------------------------
 Center     Atomic      Atomic             Coordinates (Angstroms)
 Number     Number       Type             X           Y           Z
 ---------------------------------------------------------------------
      1          6           0        3.362814   -0.657654   -0.518725
      2          6           0        2.242096   -0.893275    0.499649
      3          6           0        1.304658    0.309748    0.696844
      4          6           0        0.478321    0.688123   -0.538217
      5          6           0       -0.589776   -0.338688   -0.952855
      6          7           0       -1.586150   -0.658151    0.079768
      7          6           0       -2.950520   -0.603078   -0.427692
      8          6           0       -1.328707   -1.925690    0.746014
      9          8           0       -0.077758    2.003214   -0.453325
     10          6           0       -0.768448    2.343175    0.740199
     11          1           0        2.973497   -0.513547   -1.532336
     12          1           0        4.049485   -1.510850   -0.550095
     13          1           0        3.946891    0.233650   -0.259395
     14          1           0        1.665451   -1.779152    0.204094
     15          1           0        2.690976   -1.138008    1.471009
     16          1           0        0.630977    0.116054    1.539182
     17          1           0        1.908078    1.185200    0.971046
     18          1           0        1.157645    0.769367   -1.395974
     19          1           0       -1.104350    0.096892   -1.815452
     20          1           0       -0.094136   -1.255277   -1.318885
     21          1           0       -3.159139   -1.358508   -1.210309
     22          1           0       -3.654077   -0.769631    0.395523
     23          1           0       -3.147633    0.388305   -0.846867
     24          1           0       -1.387362   -2.793572    0.058972
     25          1           0       -0.335161   -1.923464    1.199932
     26          1           0       -2.062267   -2.076615    1.545348
     27          1           0       -1.536053    1.606948    0.996994
     28          1           0       -0.085338    2.453479    1.595189
     29          1           0       -1.235001    3.314098    0.548938
 ---------------------------------------------------------------------

 SCF Done:  E(UB3LYP) =  -446.392999984     A.U. after   25 cycles

 The electronic state is 2-A.
 Alpha  occ. eigenvalues --  -19.01432 -14.20222 -10.11363 -10.09893 -10.08732
 Alpha  occ. eigenvalues --  -10.08302 -10.07965 -10.06419 -10.06035 -10.05691
 Alpha  occ. eigenvalues --   -0.92375  -0.81845  -0.69762  -0.64673  -0.60298
 Alpha  occ. eigenvalues --   -0.58890  -0.58188  -0.51541  -0.49518  -0.44644
 Alpha  occ. eigenvalues --   -0.39759  -0.38771  -0.36940  -0.35654  -0.34665
 Alpha  occ. eigenvalues --   -0.33284  -0.33054  -0.32192  -0.30170  -0.29552
 Alpha  occ. eigenvalues --   -0.28958  -0.27430  -0.26485  -0.26068  -0.24823
 Alpha  occ. eigenvalues --   -0.24600  -0.23196  -0.22843  -0.19355  -0.15848
 Alpha  occ. eigenvalues --   -0.11031   0.04703
 Alpha virt. eigenvalues --    0.06718   0.07589   0.07854   0.09184   0.09514
 Alpha virt. eigenvalues --    0.09560   0.10392   0.10766   0.11707   0.12309
 Alpha virt. eigenvalues --    0.12428   0.12666   0.13645   0.13917   0.14594

  Beta  occ. eigenvalues --  -19.01427 -14.20207 -10.11356 -10.09878 -10.08719
  Beta  occ. eigenvalues --  -10.08268 -10.07930 -10.06394 -10.06023 -10.05660
  Beta  occ. eigenvalues --   -0.92362  -0.81816  -0.69731  -0.64638  -0.60240
  Beta  occ. eigenvalues --   -0.58844  -0.58151  -0.51476  -0.49438  -0.44593
  Beta  occ. eigenvalues --   -0.39730  -0.38736  -0.36913  -0.35614  -0.34627
  Beta  occ. eigenvalues --   -0.33251  -0.33024  -0.32154  -0.30137  -0.29516
  Beta  occ. eigenvalues --   -0.28923  -0.27402  -0.26449  -0.26026  -0.24775
  Beta  occ. eigenvalues --   -0.24567  -0.23168  -0.22809  -0.19332  -0.15823
  Beta  occ. eigenvalues --   -0.10960
  Beta virt. eigenvalues --    0.06923   0.07690   0.08121   0.08468   0.09750
  Beta virt. eigenvalues --    0.10052   0.10246   0.10839   0.11077   0.12298
  Beta virt. eigenvalues --    0.12712   0.12905   0.12987   0.13899   0.14350

 Mulliken charges and spin densities:
               1          2
     1  C    1.188755  -1.793755
     2  C   -0.446316   0.206901
     3  C    0.194982  -0.304883
     4  C   -0.402842   0.310457
     5  C   -0.156421  -0.634969
     6  N   -0.205713   0.364041
     7  C    0.766801  -1.087902
     8  C    0.676648  -1.055738
     9  O   -0.099325   0.017423
    10  C    0.231670  -0.531456
    11  H   -0.171118   0.284137
    12  H   -0.505767   0.655266
    13  H   -0.045519   0.177982
    14  H    0.193636  -0.072429
    15  H   -0.574493   0.748358
    16  H    0.242564  -0.076797
    17  H   -0.104279   0.265198
    18  H    0.083965   0.119788
    19  H    0.230012  -0.042804
    20  H   -0.083345   0.210655
    21  H   -0.284304   0.403918
    22  H   -0.323416   0.463095
    23  H   -0.118295   0.256916
    24  H   -0.168043   0.290336
    25  H   -0.604632   0.725061
    26  H   -0.328528   0.477963
    27  H   -0.015413   0.200416
    28  H   -0.129217   0.251563
    29  H   -0.042045   0.171259
 Sum of Mulliken charges =  -1.00000   1.00000

 Dipole moment (field-independent basis, Debye):
    X=             -0.4446    Y=              3.4270    Z=             -1.9178  Tot=              3.9522
 Quadrupole moment (field-independent basis, Debye-Ang):
   XX=           -135.5365   YY=           -111.5038   ZZ=           -101.0370
   XY=              1.6281   XZ=              0.1720   YZ=              2.2019

 Summary of Natural Population Analysis:

                                       Natural Population
                Natural  -----------------------------------------------
    Atom  No    Charge         Core      Valence    Rydberg      Total
 -----------------------------------------------------------------------
      C    1   -0.28580      0.99967     2.28032    0.00581     3.28580
      C    2   -0.19174      0.99964     2.18360    0.00850     3.19174
      C    3   -0.20857      0.99960     2.19931    0.00965     3.20857
      C    4    0.06863      0.99952     1.91768    0.01417     2.93137
      C    5   -0.09413      0.99957     2.08312    0.01144     3.09413
      N    6   -0.29302      0.99974     2.77899    0.01430     3.79302
      C    7   -0.17418      0.99964     2.16552    0.00902     3.17418
      C    8   -0.17398      0.99963     2.16517    0.00918     3.17398
      O    9   -0.30644      0.99989     3.29674    0.00981     4.30644
      C   10   -0.10259      0.99959     2.09432    0.00868     3.10259
      H   11    0.09371      0.00000     0.40512    0.00117     0.40629
      H   12    0.10116      0.00000     0.39754    0.00130     0.39884
      H   13    0.09523      0.00000     0.40370    0.00107     0.40477
      H   14    0.09511      0.00000     0.40317    0.00172     0.40489
      H   15    0.09814      0.00000     0.40026    0.00159     0.40186
      H   16    0.10279      0.00000     0.39504    0.00216     0.39721
      H   17    0.10010      0.00000     0.39859    0.00131     0.39990
      H   18    0.08817      0.00000     0.40993    0.00191     0.41183
      H   19    0.09893      0.00000     0.39962    0.00145     0.40107
      H   20    0.09018      0.00000     0.40820    0.00162     0.40982
      H   21    0.08053      0.00000     0.41791    0.00156     0.41947
      H   22    0.09687      0.00000     0.40169    0.00145     0.40313
      H   23    0.09515      0.00000     0.40376    0.00109     0.40485
      H   24    0.08019      0.00000     0.41818    0.00163     0.41981
      H   25    0.09606      0.00000     0.40203    0.00191     0.40394
      H   26    0.09698      0.00000     0.40150    0.00151     0.40302
      H   27    0.09217      0.00000     0.40583    0.00200     0.40783
      H   28    0.07619      0.00000     0.42231    0.00150     0.42381
      H   29    0.08414      0.00000     0.41477    0.00109     0.41586
 =======================================================================
   * Total *    0.00000      9.99648    30.87393    0.12959    41.00000

 Normal termination of Gaussian 16 at Tue Dec  8 13:23:51 2020.
