 Gaussian 16, Revision A.03,

 -----------------------------------------------------------
 # opt freq B3LYP/6-31G(d) empiricaldispersion=gd3bj scf=xqc
 -----------------------------------------------------------

 -------------------------------
 CID_129105090_JID_6298_neutraal
 -------------------------------
 Symbolic Z-matrix:
 Charge =  0 Multiplicity = 1

 SCF Done:  E(RB3LYP) =  -756.594219641     A.U. after   15 cycles
 SCF Done:  E(RB3LYP) =  -756.600340355     A.U. after   13 cycles
 SCF Done:  E(RB3LYP) =  -756.602580792     A.U. after   13 cycles
 SCF Done:  E(RB3LYP) =  -756.604022551     A.U. after   13 cycles
 SCF Done:  E(RB3LYP) =  -756.604935308     A.U. after   13 cycles
 SCF Done:  E(RB3LYP) =  -756.605458631     A.U. after   12 cycles
 SCF Done:  E(RB3LYP) =  -756.605831686     A.U. after   12 cycles
 SCF Done:  E(RB3LYP) =  -756.606002773     A.U. after   11 cycles
 SCF Done:  E(RB3LYP) =  -756.605915134     A.U. after   11 cycles
 SCF Done:  E(RB3LYP) =  -756.606940317     A.U. after   13 cycles
 SCF Done:  E(RB3LYP) =  -756.610144762     A.U. after    8 cycles
 SCF Done:  E(RB3LYP) =  -756.610145102     A.U. after    8 cycles
 SCF Done:  E(RB3LYP) =  -756.610145356     A.U. after    8 cycles
 SCF Done:  E(RB3LYP) =  -756.610145515     A.U. after    7 cycles
 Optimization completed.
    -- Stationary point found.
 Normal termination of Gaussian 16 at Thu Dec 10 22:14:34 2020.

 --------------------------------------------------------------------
 #N Geom=AllCheck Guess=TCheck SCRF=Check GenChk RB3LYP/6-31G(d) Freq
 --------------------------------------------------------------------

 Structure from the checkpoint file:  "JID_6298.chk"
 -------------------------------
 CID_129105090_JID_6298_neutraal
 -------------------------------
 Charge =  0 Multiplicity = 1

 SCF Done:  E(RB3LYP) =  -756.610145515     A.U. after    1 cycles

  Exact polarizability: 130.881 -29.162 124.037 -25.295 -20.278 104.676
 Approx polarizability: 213.036 -56.303 220.730 -54.183 -57.054 195.819

                      1                      2                      3
                      A                      A                      A
 Frequencies --     29.9772                48.2201                54.6989
 Red. masses --      6.2742                 5.4690                 6.4578
 Frc consts  --      0.0033                 0.0075                 0.0114
 IR Inten    --      1.0914                 3.9707                 2.0979

                      4                      5                      6
                      A                      A                      A
 Frequencies --     73.0529                83.0643               102.2724
 Red. masses --      5.7551                 6.0925                 5.4642
 Frc consts  --      0.0181                 0.0248                 0.0337
 IR Inten    --      3.6453                 3.0152                 0.3548

                      7                      8                      9
                      A                      A                      A
 Frequencies --    132.4539               167.0416               186.1178
 Red. masses --      7.0622                 6.7837                 4.7290
 Frc consts  --      0.0730                 0.1115                 0.0965
 IR Inten    --      8.8788                 5.8878                 5.4411

                     10                     11                     12
                      A                      A                      A
 Frequencies --    213.5230               375.8617               383.9779
 Red. masses --      5.2275                 3.9857                 4.4795
 Frc consts  --      0.1404                 0.3318                 0.3891
 IR Inten    --      2.4306                 4.1384                 6.2026

                     13                     14                     15
                      A                      A                      A
 Frequencies --    397.9031               422.9422               481.6856
 Red. masses --      4.1311                 3.7437                 2.2154
 Frc consts  --      0.3854                 0.3946                 0.3028
 IR Inten    --      0.6692                 5.0955                24.4415

                     16                     17                     18
                      A                      A                      A
 Frequencies --    502.9573               525.0973               581.7579
 Red. masses --      6.7310                 3.6245                 8.5296
 Frc consts  --      1.0032                 0.5888                 1.7008
 IR Inten    --      3.5188                21.5432                 2.3655

                     19                     20                     21
                      A                      A                      A
 Frequencies --    606.1044               625.1087               639.2959
 Red. masses --      1.3898                 3.8805                 7.2039
 Frc consts  --      0.3008                 0.8934                 1.7347
 IR Inten    --     44.0906                20.5355                 1.7499

                     22                     23                     24
                      A                      A                      A
 Frequencies --    649.5192               707.4881               709.2239
 Red. masses --      4.9495                 1.2451                 1.2621
 Frc consts  --      1.2303                 0.3672                 0.3740
 IR Inten    --     18.6494               117.9947                80.8388

                     25                     26                     27
                      A                      A                      A
 Frequencies --    726.1359               761.5275               775.6385
 Red. masses --      2.2921                 2.5605                 1.2658
 Frc consts  --      0.7121                 0.8749                 0.4487
 IR Inten    --     19.5987                47.9517                15.6993

                     28                     29                     30
                      A                      A                      A
 Frequencies --    790.4944               793.2441               839.3083
 Red. masses --      5.3307                 9.3033                 2.0170
 Frc consts  --      1.9626                 3.4490                 0.8372
 IR Inten    --      7.7446                66.7986                 2.9943

                     31                     32                     33
                      A                      A                      A
 Frequencies --    858.3773               956.3559               961.0295
 Red. masses --      6.4744                 1.3292                 1.3010
 Frc consts  --      2.8107                 0.7163                 0.7080
 IR Inten    --      2.0535                 0.3967                 0.0022

                     34                     35                     36
                      A                      A                      A
 Frequencies --    978.6546               994.4455               996.9368
 Red. masses --      1.4098                 1.4245                 1.4483
 Frc consts  --      0.7956                 0.8300                 0.8481
 IR Inten    --      3.7555                 0.1673                 0.3689

                     37                     38                     39
                      A                      A                      A
 Frequencies --   1004.4689              1046.0071              1046.8499
 Red. masses --      6.6929                 3.7246                 3.0628
 Frc consts  --      3.9787                 2.4011                 1.9776
 IR Inten    --      7.2981                 8.5627                 8.1406

                     40                     41                     42
                      A                      A                      A
 Frequencies --   1070.5231              1127.4793              1142.0546
 Red. masses --      3.2472                 1.7042                 1.8679
 Frc consts  --      2.1926                 1.2764                 1.4354
 IR Inten    --      0.2215                11.5242                 6.4596

                     43                     44                     45
                      A                      A                      A
 Frequencies --   1159.1149              1174.8194              1179.6185
 Red. masses --      1.7400                 2.0551                 2.2054
 Frc consts  --      1.3773                 1.6712                 1.8081
 IR Inten    --      5.6141                 2.6980                12.5215

                     46                     47                     48
                      A                      A                      A
 Frequencies --   1234.4274              1235.1504              1312.3840
 Red. masses --      1.2813                 1.3772                 7.6163
 Frc consts  --      1.1503                 1.2379                 7.7288
 IR Inten    --     15.0341                 7.0232                 1.5922

                     49                     50                     51
                      A                      A                      A
 Frequencies --   1369.4311              1392.3449              1396.7484
 Red. masses --      1.3100                 2.6140                 1.6266
 Frc consts  --      1.4474                 2.9857                 1.8697
 IR Inten    --      3.6680                84.4153                69.2754

                     52                     53                     54
                      A                      A                      A
 Frequencies --   1456.1491              1468.3972              1497.0468
 Red. masses --      1.7604                 2.5858                 2.5563
 Frc consts  --      2.1993                 3.2850                 3.3754
 IR Inten    --     24.5002                10.6468                17.5924

                     55                     56                     57
                      A                      A                      A
 Frequencies --   1521.4491              1591.4677              1629.8664
 Red. masses --      2.2562                 4.6752                 5.2517
 Frc consts  --      3.0771                 6.9766                 8.2196
 IR Inten    --      4.2870               141.3255                 7.9352

                     58                     59                     60
                      A                      A                      A
 Frequencies --   1648.5864              1685.8869              1692.5127
 Red. masses --      5.4884                 1.2439                 4.8877
 Frc consts  --      8.7885                 2.0830                 8.2493
 IR Inten    --     16.3643               118.0374                51.9756

                     61                     62                     63
                      A                      A                      A
 Frequencies --   1776.9802              1789.5061              3166.5584
 Red. masses --      8.0254                 8.0733                 1.0884
 Frc consts  --     14.9308                15.2323                 6.4303
 IR Inten    --    584.6864               311.1188                19.4612

                     64                     65                     66
                      A                      A                      A
 Frequencies --   3174.8836              3199.3964              3203.8533
 Red. masses --      1.0911                 1.0912                 1.0916
 Frc consts  --      6.4797                 6.5809                 6.6016
 IR Inten    --     11.6419                22.6086                 1.4370

                     67                     68                     69
                      A                      A                      A
 Frequencies --   3223.6980              3228.1343              3260.3782
 Red. masses --      1.0941                 1.0923                 1.0971
 Frc consts  --      6.6992                 6.7064                 6.8714
 IR Inten    --      4.1240                 2.9526                 0.7508

                     70                     71                     72
                      A                      A                      A
 Frequencies --   3448.7530              3600.2317              3639.6613
 Red. masses --      1.0601                 1.0785                 1.0911
 Frc consts  --      7.4287                 8.2363                 8.5163
 IR Inten    --    331.4818                64.6407                79.4647

 - Thermochemistry -
 -------------------
 Temperature   298.150 Kelvin.  Pressure   1.00000 Atm.
 Atom     1 has atomic number  6 and mass  12.00000

 Molecular mass:   218.08038 amu.
 Principal axes and moments of inertia in atomic units:
                           1         2         3
     Eigenvalues --  2231.072043734.141474700.55223
           X            0.99952  -0.03081  -0.00330
           Y            0.03077   0.99947  -0.01062
           Z            0.00362   0.01051   0.99994
 This molecule is an asymmetric top.
 Rotational symmetry number  1.
 Warning -- assumption of classical behavior for rotation
           may cause significant error
 Rotational temperatures (Kelvin)      0.03882     0.02320     0.01843
 Rotational constants (GHZ):           0.80891     0.48331     0.38394
 Zero-point vibrational energy     525916.1 (Joules/Mol)
                                  125.69697 (Kcal/Mol)
 Warning -- explicit consideration of  19 degrees of freedom as
           vibrations may cause significant error
 Vibrational temperatures:     43.13    69.38    78.70   105.11   119.51
          (Kelvin)            147.15   190.57   240.34   267.78   307.21
                              540.78   552.46   572.49   608.52   693.04
                              723.64   755.50   837.02   872.05   899.39
                              919.80   934.51  1017.92  1020.42  1044.75
                             1095.67  1115.97  1137.35  1141.30  1207.58
                             1235.01  1375.98  1382.71  1408.07  1430.79
                             1434.37  1445.21  1504.97  1506.18  1540.24
                             1622.19  1643.16  1667.71  1690.30  1697.21
                             1776.07  1777.11  1888.23  1970.31  2003.27
                             2009.61  2095.07  2112.70  2153.92  2189.03
                             2289.77  2345.01  2371.95  2425.62  2435.15
                             2556.68  2574.70  4555.97  4567.95  4603.22
                             4609.63  4638.18  4644.57  4690.96  4961.99
                             5179.93  5236.66

 Zero-point correction=                           0.200311 (Hartree/Particle)
 Thermal correction to Energy=                    0.214370
 Thermal correction to Enthalpy=                  0.215315
 Thermal correction to Gibbs Free Energy=         0.157443
 Sum of electronic and zero-point Energies=           -756.409835
 Sum of electronic and thermal Energies=              -756.395775
 Sum of electronic and thermal Enthalpies=            -756.394831
 Sum of electronic and thermal Free Energies=         -756.452702

                     E (Thermal)             CV                S
                      KCal/Mol        Cal/Mol-Kelvin    Cal/Mol-Kelvin
 Total                  134.520             52.106            121.800
 Electronic               0.000              0.000              0.000
 Translational            0.889              2.981             42.042
 Rotational               0.889              2.981             32.038
 Vibrational            132.742             46.145             47.720
 Vibration     1          0.594              1.984              5.831
 Vibration     2          0.595              1.978              4.889
 Vibration     3          0.596              1.976              4.640
 Vibration     4          0.599              1.967              4.069
 Vibration     5          0.600              1.961              3.817
 Vibration     6          0.604              1.947              3.411
 Vibration     7          0.613              1.921              2.910
 Vibration     8          0.624              1.883              2.469
 Vibration     9          0.632              1.859              2.266
 Vibration    10          0.644              1.820              2.013
 Vibration    11          0.747              1.522              1.056
 Vibration    12          0.753              1.504              1.023
 Vibration    13          0.764              1.475              0.970
 Vibration    14          0.785              1.420              0.882
 Vibration    15          0.838              1.291              0.706
 Vibration    16          0.858              1.243              0.651
 Vibration    17          0.880              1.194              0.598
 Vibration    18          0.939              1.071              0.482
 Vibration    19          0.965              1.019              0.439

                           ! Non-Optimized Parameters !
 Normal termination of Gaussian 16 at Thu Dec 10 22:23:31 2020.

 ----------------------------------------------------------------------
 # B3LYP/6-311++G(d,p) empiricaldispersion=gd3bj scf=xqc pop=npa geom=c
 heck
 ----------------------------------------------------------------------

 ---------------------------------------
 CID_129105090_JID_6298_Energie_neutraal
 ---------------------------------------
 Structure from the checkpoint file:  "JID_6298.chk"
 Charge =  0 Multiplicity = 1

 SCF Done:  E(RB3LYP) =  -756.829961518     A.U. after   16 cycles
 Normal termination of Gaussian 16 at Thu Dec 10 22:26:58 2020.

 ----------------------------------------------------------------------
 # B3LYP/6-311++G(d,p) empiricaldispersion=gd3bj scf=xqc pop=npa geom=c
 heck
 ----------------------------------------------------------------------

 -------------------------------------
 CID_129105090_JID_6298_Energie_kation
 -------------------------------------
 Structure from the checkpoint file:  "JID_6298.chk"
 Charge =  1 Multiplicity = 2

 SCF Done:  E(UB3LYP) =  -756.514454569     A.U. after   33 cycles
 SCF Done:  E(UB3LYP) =  -756.514454569     a.u. after    1 cycles
 Normal termination of Gaussian 16 at Thu Dec 10 22:37:48 2020.
 Gaussian 16:  ES64L-G16RevA.03 25-Dec-2016

 ----------------------------------------------------------------------
 # B3LYP/6-311++G(d,p) empiricaldispersion=gd3bj scf=xqc pop=npa geom=c
 heck
 ----------------------------------------------------------------------

 ------------------------------------
 CID_129105090_JID_6298_Energie_anion
 ------------------------------------
 Structure from the checkpoint file:  "JID_6298.chk"
 Charge = -1 Multiplicity = 2

                         Standard orientation:
 ---------------------------------------------------------------------
 Center     Atomic      Atomic             Coordinates (Angstroms)
 Number     Number       Type             X           Y           Z
 ---------------------------------------------------------------------
      1          6           0       -0.034928    1.352461    1.681487
      2          6           0        0.880392    0.339210    1.402785
      3          6           0        1.646447    0.429913    0.239482
      4          6           0        1.479415    1.558318   -0.571606
      5          7           0        0.587617    2.525012   -0.332091
      6          6           0       -0.153548    2.409407    0.779596
      7          6           0        2.615273   -0.629188   -0.200966
      8          8           0        3.628673   -0.342870   -0.829771
      9          7           0        2.282813   -1.902840    0.168537
     10          6           0       -2.784226    0.645142   -1.029261
     11          6           0       -3.256100   -0.042287    0.049519
     12          7           0       -2.526103   -1.075636    0.540977
     13          6           0       -1.276360   -1.468492    0.021055
     14          8           0       -0.646143   -2.350685    0.597924
     15          7           0       -0.844316   -0.809410   -1.111467
     16          6           0       -1.550925    0.190766   -1.575899
     17          1           0       -0.645891    1.325636    2.579019
     18          1           0        0.990901   -0.513418    2.064387
     19          1           0        2.087998    1.655853   -1.466765
     20          1           0       -0.873709    3.206543    0.957675
     21          1           0        1.300846   -2.147317    0.305952
     22          1           0        2.869715   -2.620538   -0.237732
     23          1           0       -3.321467    1.482977   -1.452791
     24          1           0       -4.188973    0.179960    0.556284
     25          1           0       -2.830997   -1.590680    1.358453
     26          1           0       -1.141377    0.698053   -2.448553
 ---------------------------------------------------------------------

 SCF Done:  E(UB3LYP) =  -756.854158307     A.U. after   33 cycles
 SCF Done:  E(UB3LYP) =  -756.854158307     a.u. after    1 cycles

 The electronic state is 2-A.
 Alpha  occ. eigenvalues --  -18.96643 -18.94558 -14.21360 -14.19739 -14.18820
 Alpha  occ. eigenvalues --  -14.12978 -10.15098 -10.14301 -10.08426 -10.08375
 Alpha  occ. eigenvalues --  -10.06601 -10.06597 -10.06287 -10.06228 -10.04133
 Alpha  occ. eigenvalues --  -10.02631  -0.91455  -0.90760  -0.82085  -0.81779
 Alpha  occ. eigenvalues --   -0.77579  -0.74708  -0.68565  -0.64584  -0.62976
 Alpha  occ. eigenvalues --   -0.53304  -0.51900  -0.51018  -0.49648  -0.46139
 Alpha  occ. eigenvalues --   -0.41888  -0.41583  -0.39049  -0.37413  -0.37063
 Alpha  occ. eigenvalues --   -0.34677  -0.34107  -0.32279  -0.31299  -0.30319
 Alpha  occ. eigenvalues --   -0.29577  -0.29021  -0.28302  -0.27969  -0.26562
 Alpha  occ. eigenvalues --   -0.25225  -0.24764  -0.21334  -0.18360  -0.16698
 Alpha  occ. eigenvalues --   -0.15830  -0.14842  -0.14246  -0.13811  -0.12890
 Alpha  occ. eigenvalues --   -0.10540  -0.09520   0.03951
 Alpha virt. eigenvalues --    0.07397   0.07821   0.09159   0.09751   0.09997
 Alpha virt. eigenvalues --    0.10349   0.11579   0.12011   0.12459   0.13019
 Alpha virt. eigenvalues --    0.14063   0.14612   0.15270   0.15466   0.15924

  Beta  occ. eigenvalues --  -18.96620 -18.94563 -14.21073 -14.19732 -14.18824
  Beta  occ. eigenvalues --  -14.12663 -10.15080 -10.14293 -10.08423 -10.08266
  Beta  occ. eigenvalues --  -10.06506 -10.06319 -10.06212 -10.06094 -10.03666
  Beta  occ. eigenvalues --  -10.02780  -0.91411  -0.90612  -0.82028  -0.81299
  Beta  occ. eigenvalues --   -0.77553  -0.73934  -0.68458  -0.64496  -0.62457
  Beta  occ. eigenvalues --   -0.53175  -0.50966  -0.50837  -0.49434  -0.46102
  Beta  occ. eigenvalues --   -0.41845  -0.41341  -0.38986  -0.37056  -0.36956
  Beta  occ. eigenvalues --   -0.34631  -0.33742  -0.32253  -0.30521  -0.30199
  Beta  occ. eigenvalues --   -0.29426  -0.28772  -0.28196  -0.27747  -0.26336
  Beta  occ. eigenvalues --   -0.25138  -0.24550  -0.20132  -0.16415  -0.16066
  Beta  occ. eigenvalues --   -0.15692  -0.14713  -0.14075  -0.13701  -0.12799
  Beta  occ. eigenvalues --   -0.10149  -0.08433
  Beta virt. eigenvalues --    0.07730   0.07966   0.09218   0.09662   0.09891
  Beta virt. eigenvalues --    0.10317   0.11336   0.11567   0.11977   0.12425
  Beta virt. eigenvalues --    0.13079   0.14231   0.14838   0.15287   0.15617

 Mulliken charges and spin densities:
               1          2
     1  C    0.189174  -0.102510
     2  C   -0.633011   0.164549
     3  C    0.969571  -0.018300
     4  C   -0.123264  -0.025243
     5  N   -0.026509  -0.002767
     6  C   -0.581953   0.107865
     7  C   -0.453108   0.002535
     8  O   -0.367297   0.008264
     9  N   -0.437895   0.001992
    10  C    0.060451  -0.080966
    11  C   -0.348730   0.421565
    12  N   -0.203854   0.092794
    13  C    0.014157   0.019780
    14  O   -0.427076   0.002208
    15  N   -0.118331   0.116879
    16  C   -0.404024   0.326882
    17  H    0.153259   0.006881
    18  H    0.199158  -0.001443
    19  H    0.201762   0.000301
    20  H    0.139445  -0.001811
    21  H    0.342828  -0.000901
    22  H    0.266805  -0.000242
    23  H    0.109870   0.020956
    24  H    0.075018  -0.018181
    25  H    0.275326  -0.005444
    26  H    0.128229  -0.035643
 Sum of Mulliken charges =  -1.00000   1.00000

 Dipole moment (field-independent basis, Debye):
    X=             -2.7215    Y=              0.4720    Z=              3.7508  Tot=              4.6580
 Quadrupole moment (field-independent basis, Debye-Ang):
   XX=           -125.2835   YY=           -114.6108   ZZ=           -102.6885
   XY=             -4.8496   XZ=             -2.4289   YZ=              0.6316

 Summary of Natural Population Analysis:

                                       Natural Population
                Natural  -----------------------------------------------
    Atom  No    Charge         Core      Valence    Rydberg      Total
 -----------------------------------------------------------------------
      C    1   -0.13195      0.99956     2.12421    0.00818     3.13195
      C    2   -0.05368      0.99954     2.04556    0.00858     3.05368
      C    3   -0.08035      0.99944     2.06618    0.01472     3.08035
      C    4    0.05298      0.99955     1.93423    0.01324     2.94702
      N    5   -0.24248      0.99972     2.72944    0.01332     3.74248
      C    6    0.05029      0.99960     1.93601    0.01410     2.94971
      C    7    0.33769      0.99965     1.64107    0.02158     2.66231
      O    8   -0.32999      0.99988     3.32368    0.00643     4.32999
      N    9   -0.40918      0.99970     2.90271    0.00677     3.90918
      C   10   -0.20767      0.99956     2.19928    0.00883     3.20767
      C   11    0.12874      0.99959     1.86010    0.01157     2.87126
      N   12   -0.26113      0.99966     2.75102    0.01045     3.76113
      C   13    0.39108      0.99969     1.58409    0.02515     2.60892
      O   14   -0.36942      0.99986     3.36301    0.00656     4.36942
      N   15   -0.25414      0.99967     2.74137    0.01310     3.75414
      C   16    0.14433      0.99964     1.84079    0.01524     2.85567
      H   17    0.09903      0.00000     0.39989    0.00108     0.40097
      H   18    0.10687      0.00000     0.39180    0.00133     0.39313
      H   19    0.09628      0.00000     0.40257    0.00115     0.40372
      H   20    0.08412      0.00000     0.41464    0.00124     0.41588
      H   21    0.21772      0.00000     0.28056    0.00171     0.28228
      H   22    0.18503      0.00000     0.31343    0.00154     0.31497
      H   23    0.09875      0.00000     0.40022    0.00103     0.40125
      H   24    0.08210      0.00000     0.41689    0.00101     0.41790
      H   25    0.18970      0.00000     0.30872    0.00159     0.31030
      H   26    0.07529      0.00000     0.42294    0.00176     0.42471
 =======================================================================
   * Total *   -0.00000     15.99431    40.79442    0.21128    57.00000

 Normal termination of Gaussian 16 at Thu Dec 10 22:48:11 2020.
