 Gaussian 16, Revision A.03,

 -----------------------------------------------------------
 # opt freq B3LYP/6-31G(d) empiricaldispersion=gd3bj scf=xqc
 -----------------------------------------------------------

 -------------------------------
 CID_135275472_JID_2266_neutraal
 -------------------------------
 Symbolic Z-matrix:
 Charge =  0 Multiplicity = 1

 SCF Done:  E(RB3LYP) =  -534.702629070     A.U. after   15 cycles
 SCF Done:  E(RB3LYP) =  -534.709744811     A.U. after   12 cycles
 SCF Done:  E(RB3LYP) =  -534.711287961     A.U. after   12 cycles
 SCF Done:  E(RB3LYP) =  -534.712334218     A.U. after   12 cycles
 SCF Done:  E(RB3LYP) =  -534.712773407     A.U. after   12 cycles
 SCF Done:  E(RB3LYP) =  -534.713116004     A.U. after   12 cycles
 SCF Done:  E(RB3LYP) =  -534.713216702     A.U. after   12 cycles
 SCF Done:  E(RB3LYP) =  -534.713419087     A.U. after   12 cycles
 SCF Done:  E(RB3LYP) =  -534.713580069     A.U. after   12 cycles
 SCF Done:  E(RB3LYP) =  -534.713625679     A.U. after   12 cycles
 SCF Done:  E(RB3LYP) =  -534.713812676     A.U. after   10 cycles
 SCF Done:  E(RB3LYP) =  -534.713823584     A.U. after   10 cycles
 SCF Done:  E(RB3LYP) =  -534.713824722     A.U. after    9 cycles
 SCF Done:  E(RB3LYP) =  -534.713824852     A.U. after    8 cycles
 SCF Done:  E(RB3LYP) =  -534.713824812     A.U. after    6 cycles
 Optimization completed.
    -- Stationary point found.

 1\1\GINC-NODE112\FOpt\RB3LYP\6-31G(d)\C8H18N4\VSC10255\09-Dec-2020\0\\
 # opt freq B3LYP/6-31G(d) empiricaldispersion=gd3bj scf=xqc\\CID_13527
 5472_JID_2266_neutraal\\0,1\C,1.2341509851,0.3043684877,0.8041998761\C
 ,0.6105181443,1.6718788693,0.4879479786\C,1.3577889107,2.4444903591,-0
 .5773511486\N,0.8751426154,2.8627028743,-1.6821975202\C,2.8384163464,2
 .7210089018,-0.3377505715\N,3.1698576453,3.0367522555,1.0455347615\C,4
 .4304508815,2.4781836781,1.5376037364\C,5.6746443178,3.0983634377,0.89
 04032899\N,5.7487228394,4.5283665263,1.1943933381\C,2.6196398549,4.198

 Normal termination of Gaussian 16 at Wed Dec  9 17:10:38 2020.

 --------------------------------------------------------------------
 #N Geom=AllCheck Guess=TCheck SCRF=Check GenChk RB3LYP/6-31G(d) Freq
 --------------------------------------------------------------------

 Structure from the checkpoint file:  "JID_2266.chk"
 -------------------------------
 CID_135275472_JID_2266_neutraal
 -------------------------------
 Charge =  0 Multiplicity = 1

 SCF Done:  E(RB3LYP) =  -534.713824812     A.U. after    1 cycles

  Exact polarizability: 118.711  -5.355 105.923   8.492  -4.857 102.855
 Approx polarizability: 150.492 -11.124 160.806  19.547 -15.306 156.960

                      1                      2                      3
                      A                      A                      A
 Frequencies --     43.3927                59.9242                69.2508
 Red. masses --      3.5672                 3.7598                 4.0512
 Frc consts  --      0.0040                 0.0080                 0.0114
 IR Inten    --      2.0455                 1.8482                 0.2375

                      4                      5                      6
                      A                      A                      A
 Frequencies --     83.8321               118.6893               123.8073
 Red. masses --      2.7442                 2.6993                 4.4579
 Frc consts  --      0.0114                 0.0224                 0.0403
 IR Inten    --      1.1928                 1.1615                 0.3657

                      7                      8                      9
                      A                      A                      A
 Frequencies --    149.3563               205.5328               220.9936
 Red. masses --      2.7908                 2.2283                 1.5327
 Frc consts  --      0.0367                 0.0555                 0.0441
 IR Inten    --      4.1177                 3.0917                 1.6441

                     10                     11                     12
                      A                      A                      A
 Frequencies --    254.2231               266.5953               300.7573
 Red. masses --      1.7836                 1.1316                 1.1786
 Frc consts  --      0.0679                 0.0474                 0.0628
 IR Inten    --      2.3120                 0.7785                83.9417

                     13                     14                     15
                      A                      A                      A
 Frequencies --    313.7215               326.2018               404.0616
 Red. masses --      2.5468                 2.9755                 3.1393
 Frc consts  --      0.1477                 0.1865                 0.3020
 IR Inten    --      1.4923                 2.9010                 1.6725

                     16                     17                     18
                      A                      A                      A
 Frequencies --    423.8902               502.8421               508.8818
 Red. masses --      2.2920                 2.5900                 3.2762
 Frc consts  --      0.2426                 0.3858                 0.4999
 IR Inten    --     10.0376                 3.2335                21.8568

                     19                     20                     21
                      A                      A                      A
 Frequencies --    519.0893               560.8990               575.1284
 Red. masses --      2.2953                 2.3300                 3.0904
 Frc consts  --      0.3644                 0.4319                 0.6023
 IR Inten    --     13.7955                 3.3783                 5.1566

                     22                     23                     24
                      A                      A                      A
 Frequencies --    613.9266               737.6672               790.1806
 Red. masses --      2.4361                 3.0485                 2.8996
 Frc consts  --      0.5410                 0.9774                 1.0667
 IR Inten    --      6.0713                 6.5554                 2.8005

                     25                     26                     27
                      A                      A                      A
 Frequencies --    806.1260               876.8995               888.2561
 Red. masses --      1.2903                 1.8515                 1.3279
 Frc consts  --      0.4940                 0.8388                 0.6173
 IR Inten    --      6.0737                50.2031                78.4098

                     28                     29                     30
                      A                      A                      A
 Frequencies --    896.4294               901.3087               909.3866
 Red. masses --      1.3908                 1.6545                 1.3872
 Frc consts  --      0.6585                 0.7919                 0.6759
 IR Inten    --     25.0348                36.4101                37.3524

                     31                     32                     33
                      A                      A                      A
 Frequencies --    982.9228               988.2839              1024.8522
 Red. masses --      1.9014                 2.1312                 1.8345
 Frc consts  --      1.0823                 1.2264                 1.1353
 IR Inten    --     16.0658                 8.7141                 6.4696

                     34                     35                     36
                      A                      A                      A
 Frequencies --   1067.7624              1084.5558              1092.5463
 Red. masses --      1.8104                 2.1614                 1.5884
 Frc consts  --      1.2161                 1.4979                 1.1171
 IR Inten    --     55.6223                 6.0366                 4.7822

                     37                     38                     39
                      A                      A                      A
 Frequencies --   1100.7108              1116.9616              1132.1269
 Red. masses --      1.8188                 1.7340                 1.7766
 Frc consts  --      1.2983                 1.2746                 1.3416
 IR Inten    --      4.8188                 3.9605                34.1926

                     40                     41                     42
                      A                      A                      A
 Frequencies --   1147.8795              1180.0942              1209.9886
 Red. masses --      1.5364                 1.4812                 1.7391
 Frc consts  --      1.1928                 1.2154                 1.5001
 IR Inten    --     37.9437                 1.7835                 8.9264

                     43                     44                     45
                      A                      A                      A
 Frequencies --   1221.0904              1288.0665              1298.7090
 Red. masses --      1.9429                 1.2116                 1.3612
 Frc consts  --      1.7069                 1.1844                 1.3527
 IR Inten    --     29.5930                10.9193                45.0269

                     46                     47                     48
                      A                      A                      A
 Frequencies --   1330.2751              1363.1720              1365.9925
 Red. masses --      1.3449                 1.2321                 1.3983
 Frc consts  --      1.4022                 1.3489                 1.5373
 IR Inten    --     24.2826                 2.7058                26.5690

                     49                     50                     51
                      A                      A                      A
 Frequencies --   1378.5271              1400.3812              1413.6348
 Red. masses --      1.5336                 1.5332                 1.5151
 Frc consts  --      1.7171                 1.7715                 1.7839
 IR Inten    --     42.3832                37.5502                24.8969

                     52                     53                     54
                      A                      A                      A
 Frequencies --   1421.5851              1438.3167              1442.0258
 Red. masses --      1.3263                 1.3171                 1.4688
 Frc consts  --      1.5792                 1.6053                 1.7996
 IR Inten    --     11.2636                17.1728                15.8249

                     55                     56                     57
                      A                      A                      A
 Frequencies --   1460.1365              1501.9835              1505.0414
 Red. masses --      1.8598                 1.0864                 1.0778
 Frc consts  --      2.3362                 1.4440                 1.4384
 IR Inten    --    137.3639                 7.0090                 5.7102

                     58                     59                     60
                      A                      A                      A
 Frequencies --   1514.8100              1520.6054              1530.5522
 Red. masses --      1.0599                 1.0762                 1.0458
 Frc consts  --      1.4330                 1.4661                 1.4434
 IR Inten    --     20.6508                 9.6960                 4.5089

                     61                     62                     63
                      A                      A                      A
 Frequencies --   1536.0911              1536.7452              1541.4104
 Red. masses --      1.0772                 1.0860                 1.0842
 Frc consts  --      1.4976                 1.5111                 1.5177
 IR Inten    --      2.3733                 3.3950                 1.0468

                     64                     65                     66
                      A                      A                      A
 Frequencies --   1695.4136              1700.5595              1735.3599
 Red. masses --      6.7198                 1.0891                 8.9687
 Frc consts  --     11.3804                 1.8557                15.9132
 IR Inten    --    134.1106                39.0129                71.9573

                     67                     68                     69
                      A                      A                      A
 Frequencies --   2958.4781              3031.4124              3052.4846
 Red. masses --      1.0730                 1.0646                 1.0731
 Frc consts  --      5.5334                 5.7639                 5.8913
 IR Inten    --     69.3499                26.2269                29.5715

                     70                     71                     72
                      A                      A                      A
 Frequencies --   3054.3090              3057.7819              3058.1772
 Red. masses --      1.0601                 1.0372                 1.0416
 Frc consts  --      5.8267                 5.7139                 5.7395
 IR Inten    --     13.4210                21.9487                17.4437

                     73                     74                     75
                      A                      A                      A
 Frequencies --   3072.4814              3084.8758              3094.8751
 Red. masses --      1.0881                 1.0968                 1.1016
 Frc consts  --      6.0520                 6.1499                 6.2164
 IR Inten    --     53.5814                17.7418                 8.7206

                     76                     77                     78
                      A                      A                      A
 Frequencies --   3124.2783              3124.4416              3137.8651
 Red. masses --      1.1000                 1.1010                 1.1018
 Frc consts  --      6.3265                 6.3327                 6.3920
 IR Inten    --      9.3219                22.8560                39.0750

                     79                     80                     81
                      A                      A                      A
 Frequencies --   3159.8526              3178.5884              3406.1928
 Red. masses --      1.0923                 1.1001                 1.0743
 Frc consts  --      6.4255                 6.5489                 7.3438
 IR Inten    --     18.7896                 5.8086                10.8871

                     82                     83                     84
                      A                      A                      A
 Frequencies --   3475.5203              3482.6046              3558.5398
 Red. masses --      1.0502                 1.0735                 1.0925
 Frc consts  --      7.4745                 7.6713                 8.1508
 IR Inten    --      0.6690                 2.0756                 0.1667

 - Thermochemistry -
 -------------------
 Temperature   298.150 Kelvin.  Pressure   1.00000 Atm.
 Atom     1 has atomic number  6 and mass  12.00000

 Molecular mass:   170.15315 amu.
 Principal axes and moments of inertia in atomic units:
                           1         2         3
     Eigenvalues --  1418.045162987.163203192.75759
           X            0.99984   0.00294  -0.01772
           Y           -0.00260   0.99981   0.01949
           Z            0.01778  -0.01944   0.99965
 This molecule is an asymmetric top.
 Rotational symmetry number  1.
 Warning -- assumption of classical behavior for rotation
           may cause significant error
 Rotational temperatures (Kelvin)      0.06108     0.02900     0.02713
 Rotational constants (GHZ):           1.27270     0.60417     0.56526
 Zero-point vibrational energy     710780.3 (Joules/Mol)
                                  169.88056 (Kcal/Mol)
 Warning -- explicit consideration of  22 degrees of freedom as
           vibrations may cause significant error
 Vibrational temperatures:     62.43    86.22    99.64   120.62   170.77
          (Kelvin)            178.13   214.89   295.72   317.96   365.77
                              383.57   432.72   451.38   469.33   581.35
                              609.88   723.48   732.17   746.85   807.01
                              827.48   883.30  1061.34  1136.89  1159.84
                             1261.66  1278.00  1289.76  1296.78  1308.40
                             1414.21  1421.92  1474.53  1536.27  1560.43
                             1571.93  1583.68  1607.06  1628.88  1651.54
                             1697.89  1740.90  1756.88  1853.24  1868.55
                             1913.97  1961.30  1965.36  1983.39  2014.84
                             2033.91  2045.34  2069.42  2074.75  2100.81
                             2161.02  2165.42  2179.47  2187.81  2202.12
                             2210.09  2211.03  2217.75  2439.32  2446.73
                             2496.80  4256.59  4361.53  4391.84  4394.47
                             4399.47  4400.03  4420.62  4438.45  4452.84
                             4495.14  4495.37  4514.69  4546.32  4573.28
                             4900.75  5000.50  5010.69  5119.95

 Zero-point correction=                           0.270722 (Hartree/Particle)
 Thermal correction to Energy=                    0.284804
 Thermal correction to Enthalpy=                  0.285749
 Thermal correction to Gibbs Free Energy=         0.229787
 Sum of electronic and zero-point Energies=           -534.443103
 Sum of electronic and thermal Energies=              -534.429020
 Sum of electronic and thermal Enthalpies=            -534.428076
 Sum of electronic and thermal Free Energies=         -534.484038

                     E (Thermal)             CV                S
                      KCal/Mol        Cal/Mol-Kelvin    Cal/Mol-Kelvin
 Total                  178.717             51.755            117.780
 Electronic               0.000              0.000              0.000
 Translational            0.889              2.981             41.302
 Rotational               0.889              2.981             30.981
 Vibrational            176.940             45.793             45.497
 Vibration     1          0.595              1.980              5.098
 Vibration     2          0.597              1.973              4.460
 Vibration     3          0.598              1.969              4.175
 Vibration     4          0.601              1.960              3.799
 Vibration     5          0.609              1.934              3.122
 Vibration     6          0.610              1.929              3.040
 Vibration     7          0.618              1.903              2.680
 Vibration     8          0.640              1.832              2.083
 Vibration     9          0.648              1.809              1.951
 Vibration    10          0.665              1.756              1.701
 Vibration    11          0.672              1.734              1.618
 Vibration    12          0.693              1.672              1.413
 Vibration    13          0.702              1.647              1.343
 Vibration    14          0.710              1.623              1.279
 Vibration    15          0.769              1.461              0.948
 Vibration    16          0.786              1.418              0.879
 Vibration    17          0.858              1.244              0.651
 Vibration    18          0.864              1.230              0.636
 Vibration    19          0.874              1.208              0.612
 Vibration    20          0.917              1.116              0.522
 Vibration    21          0.931              1.085              0.494
 Vibration    22          0.973              1.002              0.426

 Optimization completed.
    -- Stationary point found.

 1\1\GINC-NODE112\Freq\RB3LYP\6-31G(d)\C8H18N4\VSC10255\09-Dec-2020\0\\
 #N Geom=AllCheck Guess=TCheck SCRF=Check GenChk RB3LYP/6-31G(d) Freq\\
 CID_135275472_JID_2266_neutraal\\0,1\C,1.2341509851,0.3043684877,0.804
 1998761\C,0.6105181443,1.6718788693,0.4879479786\C,1.3577889107,2.4444
 903591,-0.5773511486\N,0.8751426154,2.8627028743,-1.6821975202\C,2.838
 4163464,2.7210089018,-0.3377505715\N,3.1698576453,3.0367522555,1.04553
 47615\C,4.4304508815,2.4781836781,1.5376037364\C,5.6746443178,3.098363
 4377,0.8904032899\N,5.7487228394,4.5283665263,1.1943933381\C,2.6196398

 Normal termination of Gaussian 16 at Wed Dec  9 17:19:00 2020.

 ----------------------------------------------------------------------
 # B3LYP/6-311++G(d,p) empiricaldispersion=gd3bj scf=xqc pop=npa geom=c
 heck
 ----------------------------------------------------------------------

 ---------------------------------------
 CID_135275472_JID_2266_Energie_neutraal
 ---------------------------------------
 Structure from the checkpoint file:  "JID_2266.chk"
 Charge =  0 Multiplicity = 1

 SCF Done:  E(RB3LYP) =  -534.880838778     A.U. after   14 cycles
 Normal termination of Gaussian 16 at Wed Dec  9 17:23:04 2020.

 ----------------------------------------------------------------------
 # B3LYP/6-311++G(d,p) empiricaldispersion=gd3bj scf=xqc pop=npa geom=c
 heck
 ----------------------------------------------------------------------

 -------------------------------------
 CID_135275472_JID_2266_Energie_kation
 -------------------------------------
 Structure from the checkpoint file:  "JID_2266.chk"
 Charge =  1 Multiplicity = 2

 SCF Done:  E(UB3LYP) =  -534.580236284     A.U. after   25 cycles
 Normal termination of Gaussian 16 at Wed Dec  9 17:33:11 2020.
 Gaussian 16:  ES64L-G16RevA.03 25-Dec-2016

 ------------------------------------
 CID_135275472_JID_2266_Energie_anion
 ------------------------------------
 Structure from the checkpoint file:  "JID_2266.chk"
 Charge = -1 Multiplicity = 2

                         Standard orientation:
 ---------------------------------------------------------------------
 Center     Atomic      Atomic             Coordinates (Angstroms)
 Number     Number       Type             X           Y           Z
 ---------------------------------------------------------------------
      1          6           0       -2.529960   -1.252859    1.436167
      2          6           0       -2.532137    0.083408    0.678932
      3          6           0       -1.961029   -0.013865   -0.719130
      4          7           0       -2.565795    0.286194   -1.802069
      5          6           0       -0.543738   -0.558336   -0.863927
      6          7           0        0.372135   -0.122903    0.182305
      7          6           0        1.323426   -1.132174    0.650967
      8          6           0        2.381757   -1.513759   -0.391068
      9          7           0        3.201162   -0.350678   -0.735488
     10          6           0        0.653550    1.245564    0.278546
     11          7           0        0.151271    2.167263   -0.463093
     12          6           0        1.581175    1.671042    1.394902
     13          1           0       -3.085372   -2.021795    0.887458
     14          1           0       -2.998749   -1.135391    2.418450
     15          1           0       -1.509874   -1.613936    1.596958
     16          1           0       -3.553995    0.475168    0.608595
     17          1           0       -1.943411    0.819830    1.238375
     18          1           0       -3.523490    0.595770   -1.600212
     19          1           0       -0.601233   -1.651100   -0.804244
     20          1           0       -0.195563   -0.313553   -1.876964
     21          1           0        1.820457   -0.762876    1.547885
     22          1           0        0.758045   -2.028558    0.934966
     23          1           0        3.035268   -2.275882    0.051152
     24          1           0        1.882741   -1.987514   -1.255876
     25          1           0        3.946368   -0.625029   -1.372211
     26          1           0        2.635815    0.333517   -1.236253
     27          1           0       -0.445363    1.798856   -1.205901
     28          1           0        1.260068    1.264831    2.361307
     29          1           0        2.604824    1.334303    1.204041
     30          1           0        1.563793    2.760107    1.438558
 ---------------------------------------------------------------------

 SCF Done:  E(UB3LYP) =  -534.870822752     A.U. after   33 cycles
 SCF Done:  E(UB3LYP) =  -534.870822752     a.u. after    1 cycles

 The electronic state is 2-A.
 Alpha  occ. eigenvalues --  -14.24043 -14.20284 -14.19767 -14.17337 -10.14477
 Alpha  occ. eigenvalues --  -10.13065 -10.11333 -10.10642 -10.09600 -10.08223
 Alpha  occ. eigenvalues --  -10.06761 -10.06691  -0.87356  -0.81732  -0.79031
 Alpha  occ. eigenvalues --   -0.76687  -0.68049  -0.65391  -0.63315  -0.59701
 Alpha  occ. eigenvalues --   -0.54695  -0.52118  -0.48082  -0.43569  -0.42099
 Alpha  occ. eigenvalues --   -0.40896  -0.39178  -0.38123  -0.36819  -0.36513
 Alpha  occ. eigenvalues --   -0.33390  -0.32127  -0.31065  -0.30842  -0.29975
 Alpha  occ. eigenvalues --   -0.29323  -0.28954  -0.28468  -0.27436  -0.26414
 Alpha  occ. eigenvalues --   -0.25293  -0.22526  -0.21345  -0.17417  -0.16504
 Alpha  occ. eigenvalues --   -0.15192  -0.13188   0.04128
 Alpha virt. eigenvalues --    0.06039   0.07318   0.07459   0.08345   0.08740
 Alpha virt. eigenvalues --    0.09102   0.09849   0.10712   0.11078   0.11484
 Alpha virt. eigenvalues --    0.11839   0.12174   0.12478   0.13214   0.14335

  Beta  occ. eigenvalues --  -14.24043 -14.20259 -14.19734 -14.17332 -10.14475
  Beta  occ. eigenvalues --  -10.13060 -10.11311 -10.10619 -10.09564 -10.08205
  Beta  occ. eigenvalues --  -10.06709 -10.06681  -0.87346  -0.81698  -0.78982
  Beta  occ. eigenvalues --   -0.76667  -0.68002  -0.65353  -0.63272  -0.59660
  Beta  occ. eigenvalues --   -0.54597  -0.52039  -0.48046  -0.43546  -0.42051
  Beta  occ. eigenvalues --   -0.40846  -0.39132  -0.38084  -0.36762  -0.36481
  Beta  occ. eigenvalues --   -0.33364  -0.32098  -0.31026  -0.30786  -0.29952
  Beta  occ. eigenvalues --   -0.29267  -0.28924  -0.28411  -0.27385  -0.26383
  Beta  occ. eigenvalues --   -0.25249  -0.22506  -0.21273  -0.17382  -0.16491
  Beta  occ. eigenvalues --   -0.15155  -0.13171
  Beta virt. eigenvalues --    0.06510   0.07173   0.07683   0.08149   0.08520
  Beta virt. eigenvalues --    0.09423   0.09692   0.10255   0.10951   0.11373
  Beta virt. eigenvalues --    0.11852   0.12316   0.12499   0.12849   0.13460

 Mulliken charges and spin densities:
               1          2
     1  C    1.167620  -1.700985
     2  C   -1.328250   1.182395
     3  C    0.395797  -0.567465
     4  N   -0.304237   0.119412
     5  C    0.921752  -1.400092
     6  N    0.162442   0.070842
     7  C   -0.773850   0.693721
     8  C    1.844921  -2.284105
     9  N   -0.502959   0.057326
    10  C   -0.343559   0.005743
    11  N   -0.211802  -0.008632
    12  C   -0.275609  -0.248601
    13  H   -0.202525   0.351335
    14  H   -0.594208   0.742032
    15  H   -0.305320   0.471916
    16  H   -0.333108   0.475972
    17  H    0.162934   0.009302
    18  H    0.102898   0.106114
    19  H    0.072975   0.127676
    20  H    0.114644   0.107831
    21  H   -0.038958   0.217231
    22  H   -0.258916   0.398232
    23  H   -0.829056   1.029806
    24  H   -0.213035   0.334770
    25  H   -0.118616   0.376268
    26  H    0.238100   0.033616
    27  H    0.192150   0.046177
    28  H   -0.038403   0.194458
    29  H    0.110217   0.080346
    30  H    0.185961  -0.022639
 Sum of Mulliken charges =  -1.00000   1.00000

 Dipole moment (field-independent basis, Debye):
    X=             -0.7298    Y=              3.2335    Z=             -0.5546  Tot=              3.3609
 Quadrupole moment (field-independent basis, Debye-Ang):
   XX=           -142.1643   YY=           -124.2598   ZZ=           -116.3087
   XY=              4.6992   XZ=              7.9366   YZ=              5.7996

 Summary of Natural Population Analysis:

                                       Natural Population
                Natural  -----------------------------------------------
    Atom  No    Charge         Core      Valence    Rydberg      Total
 -----------------------------------------------------------------------
      C    1   -0.28253      0.99966     2.27740    0.00547     3.28253
      C    2   -0.22468      0.99957     2.21507    0.01003     3.22468
      C    3    0.15792      0.99963     1.82422    0.01822     2.84208
      N    4   -0.32213      0.99970     2.81452    0.00791     3.82213
      C    5   -0.12102      0.99954     2.10733    0.01415     3.12102
      N    6   -0.27421      0.99965     2.76094    0.01362     3.77421
      C    7   -0.08427      0.99959     2.07215    0.01253     3.08427
      C    8   -0.09448      0.99963     2.08369    0.01117     3.09448
      N    9   -0.42637      0.99977     2.91573    0.01086     3.92637
      C   10    0.23321      0.99963     1.74986    0.01730     2.76679
      N   11   -0.37016      0.99972     2.86285    0.00760     3.87016
      C   12   -0.31724      0.99961     2.31277    0.00487     3.31724
      H   13    0.09755      0.00000     0.40093    0.00152     0.40245
      H   14    0.10390      0.00000     0.39423    0.00187     0.39610
      H   15    0.10073      0.00000     0.39747    0.00181     0.39927
      H   16    0.09868      0.00000     0.39992    0.00140     0.40132
      H   17    0.11314      0.00000     0.38538    0.00148     0.38686
      H   18    0.16053      0.00000     0.33733    0.00214     0.33947
      H   19    0.11333      0.00000     0.38526    0.00141     0.38667
      H   20    0.10477      0.00000     0.39351    0.00173     0.39523
      H   21    0.10348      0.00000     0.39481    0.00171     0.39652
      H   22    0.09911      0.00000     0.39890    0.00199     0.40089
      H   23    0.09622      0.00000     0.40091    0.00287     0.40378
      H   24    0.07962      0.00000     0.41815    0.00223     0.42038
      H   25    0.17987      0.00000     0.31794    0.00220     0.32013
      H   26    0.17527      0.00000     0.32285    0.00189     0.32473
      H   27    0.16835      0.00000     0.32915    0.00250     0.33165
      H   28    0.10284      0.00000     0.39595    0.00122     0.39716
      H   29    0.11744      0.00000     0.38118    0.00138     0.38256
      H   30    0.11113      0.00000     0.38785    0.00102     0.38887
 =======================================================================
   * Total *   -0.00000     11.99570    34.83823    0.16608    47.00000

 Normal termination of Gaussian 16 at Wed Dec  9 17:46:30 2020.
