 Gaussian 16, Revision A.03,

 -----------------------------------------------------------
 # opt freq B3LYP/6-31G(d) empiricaldispersion=gd3bj scf=xqc
 -----------------------------------------------------------

 -------------------------------
 CID_105163019_JID_3333_neutraal
 -------------------------------
 Symbolic Z-matrix:
 Charge =  0 Multiplicity = 1

 SCF Done:  E(RB3LYP) =  -563.011930433     A.U. after   14 cycles
 SCF Done:  E(RB3LYP) =  -563.015107419     A.U. after   11 cycles
 SCF Done:  E(RB3LYP) =  -563.015607083     A.U. after   13 cycles
 SCF Done:  E(RB3LYP) =  -563.016274380     A.U. after   11 cycles
 SCF Done:  E(RB3LYP) =  -563.016217120     A.U. after   12 cycles
 SCF Done:  E(RB3LYP) =  -563.016892538     A.U. after   11 cycles
 SCF Done:  E(RB3LYP) =  -563.016993519     A.U. after   11 cycles
 SCF Done:  E(RB3LYP) =  -563.017049991     A.U. after   11 cycles
 SCF Done:  E(RB3LYP) =  -563.017067919     A.U. after    9 cycles
 SCF Done:  E(RB3LYP) =  -563.017073198     A.U. after    9 cycles
 SCF Done:  E(RB3LYP) =  -563.017075638     A.U. after    9 cycles
 SCF Done:  E(RB3LYP) =  -563.017076173     A.U. after    7 cycles
 SCF Done:  E(RB3LYP) =  -563.017076260     A.U. after    6 cycles
 Optimization completed.
    -- Stationary point found.
 Normal termination of Gaussian 16 at Wed Dec  9 23:00:07 2020.

 --------------------------------------------------------------------
 #N Geom=AllCheck Guess=TCheck SCRF=Check GenChk RB3LYP/6-31G(d) Freq
 --------------------------------------------------------------------

 Structure from the checkpoint file:  "JID_3333.chk"
 -------------------------------
 CID_105163019_JID_3333_neutraal
 -------------------------------
 Charge =  0 Multiplicity = 1

 SCF Done:  E(RB3LYP) =  -563.017076260     A.U. after    1 cycles

  Exact polarizability: 147.672   3.902 124.188  -0.558   4.499 108.502
 Approx polarizability: 193.146  10.310 170.754  -2.485   5.051 157.681

                      1                      2                      3
                      A                      A                      A
 Frequencies --     44.2304                56.9224                63.2690
 Red. masses --      3.3611                 2.8026                 2.6415
 Frc consts  --      0.0039                 0.0054                 0.0062
 IR Inten    --      0.2091                 0.1629                 1.1604

                      4                      5                      6
                      A                      A                      A
 Frequencies --     79.8504                93.4617               106.1449
 Red. masses --      3.2293                 2.5617                 2.7609
 Frc consts  --      0.0121                 0.0132                 0.0183
 IR Inten    --      0.7985                 1.9507                 0.1585

                      7                      8                      9
                      A                      A                      A
 Frequencies --    145.2851               167.9007               190.1134
 Red. masses --      2.2504                 1.8389                 1.8310
 Frc consts  --      0.0280                 0.0305                 0.0390
 IR Inten    --      0.5997                 0.2069                 0.2300

                     10                     11                     12
                      A                      A                      A
 Frequencies --    204.4337               206.1824               235.5289
 Red. masses --      1.1646                 1.5048                 1.7397
 Frc consts  --      0.0287                 0.0377                 0.0569
 IR Inten    --      1.1929                 0.7095                 0.4121

                     13                     14                     15
                      A                      A                      A
 Frequencies --    255.5115               256.8917               303.6326
 Red. masses --      2.4170                 1.2229                 2.6063
 Frc consts  --      0.0930                 0.0475                 0.1416
 IR Inten    --      1.2955                 1.2863                 2.0355

                     16                     17                     18
                      A                      A                      A
 Frequencies --    327.5668               373.7784               409.6127
 Red. masses --      2.3950                 2.0253                 2.5239
 Frc consts  --      0.1514                 0.1667                 0.2495
 IR Inten    --      0.5144                 0.9463                 1.1408

                     19                     20                     21
                      A                      A                      A
 Frequencies --    416.5457               436.2225               446.2390
 Red. masses --      2.4512                 2.2671                 2.9294
 Frc consts  --      0.2506                 0.2542                 0.3437
 IR Inten    --      3.3823                 1.0801                 0.5211

                     22                     23                     24
                      A                      A                      A
 Frequencies --    462.8518               474.7377               609.1365
 Red. masses --      2.7907                 2.1422                 1.9933
 Frc consts  --      0.3522                 0.2845                 0.4358
 IR Inten    --     11.8616                 3.1910                 1.0610

                     25                     26                     27
                      A                      A                      A
 Frequencies --    637.3488               703.8692               776.8954
 Red. masses --      2.1459                 1.5503                 1.8803
 Frc consts  --      0.5136                 0.4525                 0.6687
 IR Inten    --      1.9235                15.2771                 2.6449

                     28                     29                     30
                      A                      A                      A
 Frequencies --    805.6952               823.4103               834.5448
 Red. masses --      2.1186                 2.0723                 1.6399
 Frc consts  --      0.8103                 0.8278                 0.6729
 IR Inten    --     41.6618                47.2265                29.5428

                     31                     32                     33
                      A                      A                      A
 Frequencies --    885.5469               896.4871               911.7650
 Red. masses --      1.9267                 2.4836                 1.3748
 Frc consts  --      0.8902                 1.1761                 0.6734
 IR Inten    --      3.5741                 5.4985                21.8330

                     34                     35                     36
                      A                      A                      A
 Frequencies --    931.6366               978.1048               998.0630
 Red. masses --      1.7871                 1.9162                 1.6734
 Frc consts  --      0.9139                 1.0801                 0.9821
 IR Inten    --      5.1943                24.3901                 3.9157

                     37                     38                     39
                      A                      A                      A
 Frequencies --   1013.7732              1024.7856              1034.8641
 Red. masses --      1.6351                 1.6940                 1.6425
 Frc consts  --      0.9901                 1.0482                 1.0364
 IR Inten    --     12.5126                 2.4930                 5.1295

                     40                     41                     42
                      A                      A                      A
 Frequencies --   1070.6591              1082.2793              1116.7006
 Red. masses --      1.5049                 1.4377                 2.0170
 Frc consts  --      1.0164                 0.9922                 1.4819
 IR Inten    --     13.5762                 0.5383                16.9186

                     43                     44                     45
                      A                      A                      A
 Frequencies --   1129.1846              1136.1293              1144.3186
 Red. masses --      2.0706                 3.6847                 2.0207
 Frc consts  --      1.5555                 2.8023                 1.5590
 IR Inten    --      7.6002                81.9074                18.1386

                     46                     47                     48
                      A                      A                      A
 Frequencies --   1177.3370              1182.9931              1191.4390
 Red. masses --      1.6855                 1.9583                 1.3592
 Frc consts  --      1.3766                 1.6147                 1.1368
 IR Inten    --     29.9567                52.3232                 3.5640

                     49                     50                     51
                      A                      A                      A
 Frequencies --   1197.8792              1222.0434              1234.1469
 Red. masses --      1.7067                 1.3206                 1.7132
 Frc consts  --      1.4429                 1.1620                 1.5374
 IR Inten    --      7.9277                 1.5379                32.3561

                     52                     53                     54
                      A                      A                      A
 Frequencies --   1256.9611              1295.0240              1320.3759
 Red. masses --      1.4630                 1.3648                 1.6965
 Frc consts  --      1.3618                 1.3486                 1.7426
 IR Inten    --     34.6636                13.7627                15.9474

                     55                     56                     57
                      A                      A                      A
 Frequencies --   1328.7993              1360.7512              1387.2655
 Red. masses --      1.4776                 1.2178                 1.6031
 Frc consts  --      1.5371                 1.3286                 1.8177
 IR Inten    --     13.7340                 4.0284                 9.8161

                     58                     59                     60
                      A                      A                      A
 Frequencies --   1398.6234              1405.3041              1414.8519
 Red. masses --      1.4354                 1.2133                 1.3306
 Frc consts  --      1.6544                 1.4117                 1.5693
 IR Inten    --      1.1404                28.7554                 2.1953

                     61                     62                     63
                      A                      A                      A
 Frequencies --   1430.2111              1438.7490              1441.5186
 Red. masses --      1.4515                 1.2711                 1.3174
 Frc consts  --      1.7493                 1.5502                 1.6129
 IR Inten    --      2.8436                 3.5172                19.1884

                     64                     65                     66
                      A                      A                      A
 Frequencies --   1471.4754              1481.7115              1500.4659
 Red. masses --      1.2103                 1.1692                 1.1295
 Frc consts  --      1.5441                 1.5123                 1.4983
 IR Inten    --      0.8448                 1.3719                 1.8051

                     67                     68                     69
                      A                      A                      A
 Frequencies --   1506.2040              1508.5187              1513.6801
 Red. masses --      1.0896                 1.0529                 1.0650
 Frc consts  --      1.4564                 1.4116                 1.4376
 IR Inten    --      2.4236                 1.2937                11.9783

                     70                     71                     72
                      A                      A                      A
 Frequencies --   1516.0876              1519.5660              1523.2679
 Red. masses --      1.0919                 1.0637                 1.1115
 Frc consts  --      1.4787                 1.4471                 1.5195
 IR Inten    --      3.6970                 2.4074                 3.9435

                     73                     74                     75
                      A                      A                      A
 Frequencies --   1524.4380              1533.6870              1540.4922
 Red. masses --      1.0940                 1.0735                 1.0579
 Frc consts  --      1.4979                 1.4878                 1.4791
 IR Inten    --      8.3099                10.2570                 3.2398

                     76                     77                     78
                      A                      A                      A
 Frequencies --   1544.3881              1546.0055              1552.5834
 Red. masses --      1.0882                 1.0717                 1.0556
 Frc consts  --      1.5292                 1.5092                 1.4992
 IR Inten    --     12.8832                 8.8943                 3.5705

                     79                     80                     81
                      A                      A                      A
 Frequencies --   1724.0608              2959.2603              2962.3003
 Red. masses --      4.6489                 1.0603                 1.0827
 Frc consts  --      8.1416                 5.4705                 5.5980
 IR Inten    --     13.4155                82.3421                50.3128

                     82                     83                     84
                      A                      A                      A
 Frequencies --   2995.3891              3036.0968              3038.8115
 Red. masses --      1.0409                 1.0669                 1.0410
 Frc consts  --      5.5027                 5.7946                 5.6636
 IR Inten    --     85.2064                24.8693                17.1495

                     85                     86                     87
                      A                      A                      A
 Frequencies --   3047.3617              3049.8110              3061.7048
 Red. masses --      1.0930                 1.0678                 1.0422
 Frc consts  --      5.9805                 5.8517                 5.7562
 IR Inten    --     28.5127                67.4733                18.3498

                     88                     89                     90
                      A                      A                      A
 Frequencies --   3064.0435              3068.7519              3081.0187
 Red. masses --      1.0638                 1.0720                 1.0880
 Frc consts  --      5.8844                 5.9482                 6.0849
 IR Inten    --     11.1767                49.9156                 2.9515

                     91                     92                     93
                      A                      A                      A
 Frequencies --   3090.4658              3092.6794              3102.3752
 Red. masses --      1.0914                 1.0945                 1.0954
 Frc consts  --      6.1414                 6.1679                 6.2118
 IR Inten    --     29.9093                29.5190                63.4139

                     94                     95                     96
                      A                      A                      A
 Frequencies --   3111.4531              3113.1050              3123.5878
 Red. masses --      1.0989                 1.1028                 1.1011
 Frc consts  --      6.2680                 6.2971                 6.3298
 IR Inten    --     25.4036                31.0558                35.9253

                     97                     98                     99
                      A                      A                      A
 Frequencies --   3125.2318              3132.8277              3139.2997
 Red. masses --      1.1017                 1.0975                 1.1023
 Frc consts  --      6.3399                 6.3462                 6.4006
 IR Inten    --     26.4032                23.5440                29.8067

                    100                    101                    102
                      A                      A                      A
 Frequencies --   3155.2319              3230.7954              3475.8670
 Red. masses --      1.0596                 1.1156                 1.0729
 Frc consts  --      6.2152                 6.8611                 7.6369
 IR Inten    --     10.7951                22.9209                 1.5940

 - Thermochemistry -
 -------------------
 Temperature   298.150 Kelvin.  Pressure   1.00000 Atm.
 Atom     1 has atomic number  6 and mass  12.00000

 Molecular mass:   185.17796 amu.
 Principal axes and moments of inertia in atomic units:
                           1         2         3
     Eigenvalues --  1765.677223859.917794412.42163
           X            1.00000  -0.00217   0.00108
           Y            0.00213   0.99938   0.03512
           Z           -0.00116  -0.03512   0.99938
 This molecule is an asymmetric top.
 Rotational symmetry number  1.
 Warning -- assumption of classical behavior for rotation
           may cause significant error
 Rotational temperatures (Kelvin)      0.04905     0.02244     0.01963
 Rotational constants (GHZ):           1.02212     0.46756     0.40901
 Zero-point vibrational energy     871781.5 (Joules/Mol)
                                  208.36078 (Kcal/Mol)
 Warning -- explicit consideration of  24 degrees of freedom as
           vibrations may cause significant error
 Vibrational temperatures:     63.64    81.90    91.03   114.89   134.47
          (Kelvin)            152.72   209.03   241.57   273.53   294.13
                              296.65   338.87   367.62   369.61   436.86
                              471.30   537.78   589.34   599.32   627.63
                              642.04   665.94   683.04   876.41   917.00
                             1012.71  1117.78  1159.22  1184.70  1200.72
                             1274.10  1289.85  1311.83  1340.42  1407.27
                             1435.99  1458.59  1474.44  1488.94  1540.44
                             1557.16  1606.68  1624.64  1634.64  1646.42
                             1693.93  1702.06  1714.21  1723.48  1758.25
                             1775.66  1808.49  1863.25  1899.73  1911.85
                             1957.82  1995.97  2012.31  2021.92  2035.66
                             2057.75  2070.04  2074.02  2117.12  2131.85
                             2158.84  2167.09  2170.42  2177.85  2181.31
                             2186.32  2191.64  2193.33  2206.63  2216.42
                             2222.03  2224.36  2233.82  2480.54  4257.72
                             4262.09  4309.70  4368.27  4372.17  4384.47
                             4388.00  4405.11  4408.48  4415.25  4432.90
                             4446.49  4449.68  4463.63  4476.69  4479.06
                             4494.15  4496.51  4507.44  4516.75  4539.68
                             4648.39  5001.00

 Zero-point correction=                           0.332044 (Hartree/Particle)
 Thermal correction to Energy=                    0.348290
 Thermal correction to Enthalpy=                  0.349234
 Thermal correction to Gibbs Free Energy=         0.288627
 Sum of electronic and zero-point Energies=           -562.685032
 Sum of electronic and thermal Energies=              -562.668786
 Sum of electronic and thermal Enthalpies=            -562.667842
 Sum of electronic and thermal Free Energies=         -562.728449

                     E (Thermal)             CV                S
                      KCal/Mol        Cal/Mol-Kelvin    Cal/Mol-Kelvin
 Total                  218.555             59.927            127.559
 Electronic               0.000              0.000              0.000
 Translational            0.889              2.981             41.555
 Rotational               0.889              2.981             31.775
 Vibrational            216.778             53.965             54.229
 Vibration     1          0.595              1.980              5.060
 Vibration     2          0.596              1.975              4.561
 Vibration     3          0.597              1.972              4.353
 Vibration     4          0.600              1.963              3.895
 Vibration     5          0.602              1.954              3.586
 Vibration     6          0.605              1.944              3.338
 Vibration     7          0.617              1.908              2.733
 Vibration     8          0.625              1.882              2.459
 Vibration     9          0.633              1.853              2.227
 Vibration    10          0.640              1.834              2.093
 Vibration    11          0.641              1.831              2.077
 Vibration    12          0.655              1.786              1.836
 Vibration    13          0.666              1.753              1.692
 Vibration    14          0.666              1.751              1.683
 Vibration    15          0.695              1.667              1.397
 Vibration    16          0.711              1.620              1.272
 Vibration    17          0.745              1.526              1.064
 Vibration    18          0.774              1.449              0.928
 Vibration    19          0.780              1.434              0.904
 Vibration    20          0.797              1.391              0.839
 Vibration    21          0.805              1.369              0.807
 Vibration    22          0.820              1.332              0.758
 Vibration    23          0.831              1.306              0.724
 Vibration    24          0.968              1.012              0.434

 Optimization completed.
    -- Stationary point found.
 Normal termination of Gaussian 16 at Wed Dec  9 23:11:05 2020.

 ----------------------------------------------------------------------
 # B3LYP/6-311++G(d,p) empiricaldispersion=gd3bj scf=xqc pop=npa geom=c
 heck
 ----------------------------------------------------------------------

 ---------------------------------------
 CID_105163019_JID_3333_Energie_neutraal
 ---------------------------------------
 Structure from the checkpoint file:  "JID_3333.chk"
 Charge =  0 Multiplicity = 1

 SCF Done:  E(RB3LYP) =  -563.182267581     A.U. after   14 cycles
 Normal termination of Gaussian 16 at Wed Dec  9 23:16:30 2020.

 ----------------------------------------------------------------------
 # B3LYP/6-311++G(d,p) empiricaldispersion=gd3bj scf=xqc pop=npa geom=c
 heck
 ----------------------------------------------------------------------

 -------------------------------------
 CID_105163019_JID_3333_Energie_kation
 -------------------------------------
 Structure from the checkpoint file:  "JID_3333.chk"
 Charge =  1 Multiplicity = 2

 SCF Done:  E(UB3LYP) =  -562.890375445     A.U. after   26 cycles
 Normal termination of Gaussian 16 at Wed Dec  9 23:30:55 2020.
 Gaussian 16:  ES64L-G16RevA.03 25-Dec-2016

 ----------------------------------------------------------------------
 # B3LYP/6-311++G(d,p) empiricaldispersion=gd3bj scf=xqc pop=npa geom=c
 heck
 ----------------------------------------------------------------------

 ------------------------------------
 CID_105163019_JID_3333_Energie_anion
 ------------------------------------
 Structure from the checkpoint file:  "JID_3333.chk"
 Charge = -1 Multiplicity = 2

                         Standard orientation:
 ---------------------------------------------------------------------
 Center     Atomic      Atomic             Coordinates (Angstroms)
 Number     Number       Type             X           Y           Z
 ---------------------------------------------------------------------
      1          6           0       -3.051845    0.711716   -1.103152
      2          6           0       -2.452257   -0.524769   -0.429475
      3          6           0       -1.175532   -1.032769   -1.110260
      4          6           0       -0.071196    0.003253   -1.368013
      5          6           0        0.516520    0.716495   -0.139937
      6          6           0        1.157289   -0.252160    0.903220
      7          6           0        2.339939   -1.038600    0.383529
      8          6           0        3.571499   -0.511713    0.360534
      9          6           0        2.085028   -2.439195   -0.116009
     10          7           0        1.418008    1.762244   -0.624833
     11          6           0        1.808003    2.749889    0.371100
     12          8           0       -2.135735   -0.289151    0.945392
     13          6           0       -3.254613   -0.133077    1.790304
     14          1           0       -2.384990    1.573016   -1.001095
     15          1           0       -4.020998    0.976509   -0.668868
     16          1           0       -3.208641    0.522535   -2.170968
     17          1           0       -3.196580   -1.339627   -0.469364
     18          1           0       -0.796081   -1.864456   -0.506749
     19          1           0       -1.470604   -1.462325   -2.076873
     20          1           0        0.745051   -0.490062   -1.913682
     21          1           0       -0.442239    0.782774   -2.041889
     22          1           0       -0.300743    1.221071    0.385412
     23          1           0        1.474771    0.353422    1.759524
     24          1           0        0.374053   -0.921116    1.272863
     25          1           0        4.422766   -1.064093   -0.030060
     26          1           0        3.778655    0.477611    0.760569
     27          1           0        1.638211   -3.054808    0.676221
     28          1           0        1.378078   -2.451221   -0.953747
     29          1           0        3.008868   -2.924917   -0.445374
     30          1           0        2.252344    1.319304   -1.008990
     31          1           0        2.330980    2.350211    1.259071
     32          1           0        2.464465    3.492062   -0.095877
     33          1           0        0.913208    3.273758    0.727432
     34          1           0       -2.877582   -0.115823    2.816283
     35          1           0       -3.800542    0.802690    1.602427
     36          1           0       -3.959639   -0.973428    1.683369
 ---------------------------------------------------------------------

 SCF Done:  E(UB3LYP) =  -563.167137775     A.U. after   33 cycles
 SCF Done:  E(UB3LYP) =  -563.167137775     a.u. after    1 cycles

 The electronic state is 2-A.
 Alpha  occ. eigenvalues --  -19.02052 -14.19606 -10.11927 -10.10680 -10.09379
 Alpha  occ. eigenvalues --  -10.09130 -10.08735 -10.06933 -10.06463 -10.06275
 Alpha  occ. eigenvalues --  -10.06166 -10.06149 -10.05793  -0.93333  -0.80858
 Alpha  occ. eigenvalues --   -0.71581  -0.69807  -0.65056  -0.60842  -0.59168
 Alpha  occ. eigenvalues --   -0.58728  -0.57474  -0.53961  -0.49246  -0.46031
 Alpha  occ. eigenvalues --   -0.42651  -0.39981  -0.38851  -0.37598  -0.37008
 Alpha  occ. eigenvalues --   -0.35915  -0.35291  -0.33882  -0.33449  -0.32601
 Alpha  occ. eigenvalues --   -0.31675  -0.30456  -0.29735  -0.29337  -0.28515
 Alpha  occ. eigenvalues --   -0.28086  -0.27468  -0.27035  -0.25757  -0.24258
 Alpha  occ. eigenvalues --   -0.23542  -0.22786  -0.22040  -0.20199  -0.15897
 Alpha  occ. eigenvalues --   -0.15688  -0.12788   0.04390
 Alpha virt. eigenvalues --    0.06335   0.06713   0.07311   0.08117   0.08427
 Alpha virt. eigenvalues --    0.08819   0.09433   0.09958   0.10364   0.10719
 Alpha virt. eigenvalues --    0.11156   0.11463   0.12054   0.12605   0.13035

  Beta  occ. eigenvalues --  -19.02043 -14.19602 -10.11913 -10.10638 -10.09377
  Beta  occ. eigenvalues --  -10.09112 -10.08730 -10.06907 -10.06449 -10.06266
  Beta  occ. eigenvalues --  -10.06160 -10.06131 -10.05762  -0.93318  -0.80850
  Beta  occ. eigenvalues --   -0.71560  -0.69778  -0.65030  -0.60805  -0.59116
  Beta  occ. eigenvalues --   -0.58672  -0.57435  -0.53914  -0.49209  -0.45983
  Beta  occ. eigenvalues --   -0.42611  -0.39924  -0.38821  -0.37571  -0.36981
  Beta  occ. eigenvalues --   -0.35888  -0.35259  -0.33857  -0.33417  -0.32568
  Beta  occ. eigenvalues --   -0.31647  -0.30424  -0.29700  -0.29305  -0.28486
  Beta  occ. eigenvalues --   -0.28059  -0.27444  -0.27009  -0.25736  -0.24225
  Beta  occ. eigenvalues --   -0.23519  -0.22763  -0.22014  -0.20159  -0.15868
  Beta  occ. eigenvalues --   -0.15648  -0.12775
  Beta virt. eigenvalues --    0.06327   0.07205   0.07243   0.07682   0.08572
  Beta virt. eigenvalues --    0.08902   0.09274   0.09862   0.10223   0.10687
  Beta virt. eigenvalues --    0.11060   0.11533   0.11861   0.12379   0.12848

 Mulliken charges and spin densities:
               1          2
     1  C    1.099070  -1.754257
     2  C   -1.247460   1.247584
     3  C    0.657036  -1.152148
     4  C   -0.820886   0.445683
     5  C   -0.143047  -0.110616
     6  C   -0.414459  -0.046661
     7  C   -0.879444   1.737900
     8  C    0.246923  -0.984103
     9  C    0.986756  -1.831722
    10  N   -0.063827   0.040381
    11  C    0.312758  -0.614429
    12  O   -0.121677   0.013815
    13  C    0.882063  -1.153423
    14  H   -0.147575   0.329003
    15  H   -0.236354   0.386191
    16  H   -0.102595   0.238433
    17  H   -0.491478   0.645797
    18  H    0.158683   0.025685
    19  H   -0.376309   0.553920
    20  H    0.097332   0.048307
    21  H    0.176263   0.021696
    22  H    0.560438  -0.304882
    23  H   -0.181902   0.353713
    24  H    0.352292  -0.152241
    25  H   -0.204070   0.322511
    26  H    0.148239  -0.015151
    27  H   -0.279625   0.447093
    28  H   -0.016387   0.163192
    29  H   -0.083882   0.216891
    30  H    0.198060   0.042848
    31  H   -0.039985   0.138714
    32  H    0.008221   0.122378
    33  H   -0.149583   0.281523
    34  H   -0.249192   0.384131
    35  H   -0.284405   0.427906
    36  H   -0.349991   0.484336
 Sum of Mulliken charges =  -1.00000   1.00000

 Dipole moment (field-independent basis, Debye):
    X=              4.6055    Y=              1.6835    Z=             -1.0208  Tot=              5.0087
 Quadrupole moment (field-independent basis, Debye-Ang):
   XX=           -162.2111   YY=           -132.5611   ZZ=           -123.4841
   XY=              1.8057   XZ=             -0.2643   YZ=             -0.6596

 Summary of Natural Population Analysis:

                                       Natural Population
                Natural  -----------------------------------------------
    Atom  No    Charge         Core      Valence    Rydberg      Total
 -----------------------------------------------------------------------
      C    1   -0.30217      0.99964     2.29656    0.00597     3.30217
      C    2    0.06906      0.99956     1.91663    0.01476     2.93094
      C    3   -0.19702      0.99960     2.18742    0.01001     3.19702
      C    4   -0.19533      0.99960     2.18535    0.01038     3.19533
      C    5   -0.00703      0.99957     1.99500    0.01245     3.00703
      C    6   -0.22067      0.99956     2.21029    0.01082     3.22067
      C    7    0.00412      0.99953     1.98392    0.01243     2.99588
      C    8   -0.21296      0.99948     2.20537    0.00810     3.21296
      C    9   -0.29985      0.99961     2.29389    0.00635     3.29985
      N   10   -0.34111      0.99974     2.83054    0.01083     3.84111
      C   11   -0.17738      0.99966     2.17085    0.00687     3.17738
      O   12   -0.30857      0.99988     3.29760    0.01109     4.30857
      C   13   -0.09654      0.99961     2.08746    0.00947     3.09654
      H   14    0.10094      0.00000     0.39793    0.00113     0.39906
      H   15    0.10285      0.00000     0.39593    0.00122     0.39715
      H   16    0.10209      0.00000     0.39680    0.00110     0.39791
      H   17    0.08150      0.00000     0.41627    0.00223     0.41850
      H   18    0.10159      0.00000     0.39649    0.00193     0.39841
      H   19    0.10096      0.00000     0.39799    0.00105     0.39904
      H   20    0.09641      0.00000     0.40247    0.00112     0.40359
      H   21    0.10397      0.00000     0.39444    0.00159     0.39603
      H   22    0.10141      0.00000     0.39565    0.00294     0.39859
      H   23    0.10376      0.00000     0.39505    0.00119     0.39624
      H   24    0.11305      0.00000     0.38498    0.00197     0.38695
      H   25    0.09193      0.00000     0.40710    0.00096     0.40807
      H   26    0.09294      0.00000     0.40590    0.00116     0.40706
      H   27    0.10481      0.00000     0.39392    0.00127     0.39519
      H   28    0.10408      0.00000     0.39447    0.00145     0.39592
      H   29    0.09990      0.00000     0.39910    0.00100     0.40010
      H   30    0.17355      0.00000     0.32327    0.00318     0.32645
      H   31    0.07696      0.00000     0.42116    0.00187     0.42304
      H   32    0.09130      0.00000     0.40776    0.00094     0.40870
      H   33    0.09256      0.00000     0.40616    0.00128     0.40744
      H   34    0.08992      0.00000     0.40891    0.00118     0.41008
      H   35    0.07960      0.00000     0.41868    0.00172     0.42040
      H   36    0.07937      0.00000     0.41870    0.00193     0.42063
 =======================================================================
   * Total *   -0.00000     12.99502    38.84002    0.16496    52.00000

 Normal termination of Gaussian 16 at Wed Dec  9 23:49:06 2020.
