 Gaussian 16, Revision A.03,

 -----------------------------------------------------------
 # opt freq B3LYP/6-31G(d) empiricaldispersion=gd3bj scf=xqc
 -----------------------------------------------------------

 ------------------------------
 CID_13185872_JID_6253_neutraal
 ------------------------------
 Symbolic Z-matrix:
 Charge =  0 Multiplicity = 1

 SCF Done:  E(RB3LYP) =  -657.506511919     A.U. after   14 cycles
 SCF Done:  E(RB3LYP) =  -657.512573352     A.U. after   12 cycles
 SCF Done:  E(RB3LYP) =  -657.513152285     A.U. after   12 cycles
 SCF Done:  E(RB3LYP) =  -657.512870603     A.U. after   12 cycles
 SCF Done:  E(RB3LYP) =  -657.514052891     A.U. after   11 cycles
 SCF Done:  E(RB3LYP) =  -657.514282259     A.U. after   11 cycles
 SCF Done:  E(RB3LYP) =  -657.514404744     A.U. after   12 cycles
 SCF Done:  E(RB3LYP) =  -657.514455973     A.U. after   11 cycles
 SCF Done:  E(RB3LYP) =  -657.514474225     A.U. after   10 cycles
 SCF Done:  E(RB3LYP) =  -657.514481225     A.U. after    9 cycles
 SCF Done:  E(RB3LYP) =  -657.514511843     A.U. after    8 cycles
 SCF Done:  E(RB3LYP) =  -657.514511847     A.U. after    8 cycles
 SCF Done:  E(RB3LYP) =  -657.514511834     A.U. after    8 cycles
 SCF Done:  E(RB3LYP) =  -657.514511832     A.U. after    6 cycles
 SCF Done:  E(RB3LYP) =  -657.514511829     A.U. after    6 cycles
 Optimization completed.
    -- Stationary point found.
 Normal termination of Gaussian 16 at Thu Dec 10 22:19:32 2020.

 --------------------------------------------------------------------
 #N Geom=AllCheck Guess=TCheck SCRF=Check GenChk RB3LYP/6-31G(d) Freq
 --------------------------------------------------------------------

 Structure from the checkpoint file:  "JID_6253.chk"
 ------------------------------
 CID_13185872_JID_6253_neutraal
 ------------------------------
 Charge =  0 Multiplicity = 1

 SCF Done:  E(RB3LYP) =  -657.514511829     A.U. after    1 cycles

  Exact polarizability: 218.208 -11.618 143.914   9.270  17.175 127.921
 Approx polarizability: 280.783 -15.295 218.038  18.994  42.117 200.968

                      1                      2                      3
                      A                      A                      A
 Frequencies --     12.8045                31.3353                37.9042
 Red. masses --      1.0455                 3.6566                 3.4883
 Frc consts  --      0.0001                 0.0021                 0.0030
 IR Inten    --      0.1003                 0.0044                 0.4170

                      4                      5                      6
                      A                      A                      A
 Frequencies --     44.4442                80.7310               119.1310
 Red. masses --      3.2835                 2.7007                 3.1684
 Frc consts  --      0.0038                 0.0104                 0.0265
 IR Inten    --      0.4693                 1.1322                 0.2484

                      7                      8                      9
                      A                      A                      A
 Frequencies --    122.9842               152.9253               180.4563
 Red. masses --      3.4248                 2.3184                 3.0704
 Frc consts  --      0.0305                 0.0319                 0.0589
 IR Inten    --      0.7215                 0.5042                 0.7753

                     10                     11                     12
                      A                      A                      A
 Frequencies --    247.7190               250.0482               255.0609
 Red. masses --      1.4730                 1.4771                 1.3760
 Frc consts  --      0.0533                 0.0544                 0.0527
 IR Inten    --      0.4514                 0.9245                 0.4338

                     13                     14                     15
                      A                      A                      A
 Frequencies --    269.2140               290.8610               295.4040
 Red. masses --      1.3749                 1.5288                 2.8700
 Frc consts  --      0.0587                 0.0762                 0.1476
 IR Inten    --      1.8334                 1.2222                 2.9591

                     16                     17                     18
                      A                      A                      A
 Frequencies --    315.0116               322.4506               337.7864
 Red. masses --      1.1685                 2.1412                 2.9700
 Frc consts  --      0.0683                 0.1312                 0.1997
 IR Inten    --      1.6414                 0.5372                 0.8331

                     19                     20                     21
                      A                      A                      A
 Frequencies --    358.0112               402.3856               406.6321
 Red. masses --      2.1764                 2.4078                 2.4847
 Frc consts  --      0.1644                 0.2297                 0.2421
 IR Inten    --      5.7177                 2.3349                 3.6076

                     22                     23                     24
                      A                      A                      A
 Frequencies --    418.5627               447.6260               466.0758
 Red. masses --      3.1457                 3.1271                 2.4665
 Frc consts  --      0.3247                 0.3692                 0.3157
 IR Inten    --      0.1679                 0.7483                 0.3255

                     25                     26                     27
                      A                      A                      A
 Frequencies --    489.2811               510.6115               526.7238
 Red. masses --      2.1472                 2.2608                 2.6033
 Frc consts  --      0.3029                 0.3473                 0.4255
 IR Inten    --     20.7832                78.8525                 7.5460

                     28                     29                     30
                      A                      A                      A
 Frequencies --    570.9973               599.9077               659.5357
 Red. masses --      2.6955                 2.4226                 6.7232
 Frc consts  --      0.5178                 0.5137                 1.7231
 IR Inten    --     91.2458                61.8543                 0.4508

                     31                     32                     33
                      A                      A                      A
 Frequencies --    717.0416               729.0022               771.6752
 Red. masses --      3.1573                 2.5339                 2.6414
 Frc consts  --      0.9564                 0.7934                 0.9267
 IR Inten    --      0.7188                36.0661                14.0014

                     34                     35                     36
                      A                      A                      A
 Frequencies --    787.3379               819.2412               823.2529
 Red. masses --      1.9599                 1.3936                 1.4943
 Frc consts  --      0.7158                 0.5511                 0.5967
 IR Inten    --     51.6516                15.5235                32.6549

                     37                     38                     39
                      A                      A                      A
 Frequencies --    842.6066               889.7191               898.4363
 Red. masses --      2.8035                 2.4098                 2.0203
 Frc consts  --      1.1727                 1.1239                 0.9608
 IR Inten    --      2.0448                 2.5745                 1.3824

                     40                     41                     42
                      A                      A                      A
 Frequencies --    920.2321               937.2476               940.3717
 Red. masses --      1.7069                 1.2718                 1.4851
 Frc consts  --      0.8516                 0.6582                 0.7738
 IR Inten    --      2.7688                 0.2910                 2.9275

                     43                     44                     45
                      A                      A                      A
 Frequencies --    942.2504               969.1866              1002.7625
 Red. masses --      1.2952                 1.9726                 1.7521
 Frc consts  --      0.6775                 1.0917                 1.0380
 IR Inten    --      0.0999                 5.8701                 6.9810

                     46                     47                     48
                      A                      A                      A
 Frequencies --   1017.9312              1036.1483              1040.3511
 Red. masses --      1.4440                 2.6245                 1.3159
 Frc consts  --      0.8816                 1.6601                 0.8391
 IR Inten    --      7.6200                 0.4402                 1.4764

                     49                     50                     51
                      A                      A                      A
 Frequencies --   1076.0221              1091.5311              1100.5741
 Red. masses --      1.4759                 2.1014                 1.7060
 Frc consts  --      1.0068                 1.4751                 1.2175
 IR Inten    --      3.8668                16.5397                 4.3928

                     52                     53                     54
                      A                      A                      A
 Frequencies --   1121.3599              1149.4320              1157.3703
 Red. masses --      2.3600                 1.8156                 1.3781
 Frc consts  --      1.7485                 1.4133                 1.0876
 IR Inten    --      2.2092                 5.4535                 9.8335

                     55                     56                     57
                      A                      A                      A
 Frequencies --   1171.7592              1184.5797              1212.0022
 Red. masses --      1.6439                 2.0354                 1.8713
 Frc consts  --      1.3298                 1.6828                 1.6196
 IR Inten    --      5.7962                18.2995                32.6701

                     58                     59                     60
                      A                      A                      A
 Frequencies --   1222.6405              1237.1619              1250.0428
 Red. masses --      1.2013                 2.7114                 2.9881
 Frc consts  --      1.0581                 2.4451                 2.7510
 IR Inten    --     12.9145                44.1300                 1.6411

                     61                     62                     63
                      A                      A                      A
 Frequencies --   1274.1518              1292.2959              1314.0681
 Red. masses --      2.0295                 2.2920                 2.0803
 Frc consts  --      1.9413                 2.2552                 2.1165
 IR Inten    --     11.6822                41.0980                69.6700

                     64                     65                     66
                      A                      A                      A
 Frequencies --   1352.2347              1359.6921              1368.6102
 Red. masses --      1.3765                 1.8732                 2.1175
 Frc consts  --      1.4830                 2.0404                 2.3369
 IR Inten    --     14.9312                13.1468                51.7429

                     67                     68                     69
                      A                      A                      A
 Frequencies --   1400.1350              1409.9102              1421.7464
 Red. masses --      1.3723                 1.4205                 1.2629
 Frc consts  --      1.5850                 1.6637                 1.5041
 IR Inten    --      1.2173                 5.8147                 3.5394

                     70                     71                     72
                      A                      A                      A
 Frequencies --   1433.1199              1442.4431              1444.4631
 Red. masses --      1.2417                 1.2447                 1.2482
 Frc consts  --      1.5026                 1.5258                 1.5344
 IR Inten    --      8.1001                10.5341                 1.9811

                     73                     74                     75
                      A                      A                      A
 Frequencies --   1460.2472              1483.6503              1503.6672
 Red. masses --      2.2849                 1.1707                 1.1340
 Frc consts  --      2.8706                 1.5182                 1.5106
 IR Inten    --      8.6051                 5.5489                10.5070

                     76                     77                     78
                      A                      A                      A
 Frequencies --   1509.9616              1514.4724              1515.7878
 Red. masses --      1.0987                 1.1296                 1.0463
 Frc consts  --      1.4760                 1.5265                 1.4164
 IR Inten    --     10.0672                12.2863                 3.8146

                     79                     80                     81
                      A                      A                      A
 Frequencies --   1517.2718              1518.3266              1526.5983
 Red. masses --      1.0557                 1.0685                 1.0767
 Frc consts  --      1.4319                 1.4513                 1.4784
 IR Inten    --      1.0500                 3.9784                 4.6201

                     82                     83                     84
                      A                      A                      A
 Frequencies --   1528.4646              1530.3876              1538.3829
 Red. masses --      1.0702                 1.0549                 1.0711
 Frc consts  --      1.4731                 1.4556                 1.4936
 IR Inten    --     15.3946                 0.4680                 5.0648

                     85                     86                     87
                      A                      A                      A
 Frequencies --   1545.7849              1550.7478              1558.8439
 Red. masses --      1.0862                 1.3274                 1.0906
 Frc consts  --      1.5292                 1.8807                 1.5614
 IR Inten    --      6.4500                 5.2712                17.9333

                     88                     89                     90
                      A                      A                      A
 Frequencies --   1574.4081              1640.0483              1684.8031
 Red. masses --      2.5877                 4.4204                 5.8769
 Frc consts  --      3.7792                 7.0052                 9.8288
 IR Inten    --    214.1696                 5.6973                88.7427

                     91                     92                     93
                      A                      A                      A
 Frequencies --   3008.7442              3035.8213              3039.9465
 Red. masses --      1.0483                 1.0381                 1.0381
 Frc consts  --      5.5912                 5.6369                 5.6520
 IR Inten    --     63.6039                60.4710                17.5342

                     94                     95                     96
                      A                      A                      A
 Frequencies --   3042.0790              3045.8587              3050.0341
 Red. masses --      1.0476                 1.0416                 1.0493
 Frc consts  --      5.7118                 5.6935                 5.7513
 IR Inten    --      4.3139                50.3140                15.1536

                     97                     98                     99
                      A                      A                      A
 Frequencies --   3075.1967              3079.8011              3084.5100
 Red. masses --      1.0880                 1.0864                 1.1005
 Frc consts  --      6.0623                 6.0713                 6.1688
 IR Inten    --     15.0752                36.4159                26.7402

                    100                    101                    102
                      A                      A                      A
 Frequencies --   3087.0409              3099.4265              3108.7944
 Red. masses --      1.0970                 1.1004                 1.0996
 Frc consts  --      6.1594                 6.2283                 6.2611
 IR Inten    --     22.4384                 7.0956                38.9914

                    103                    104                    105
                      A                      A                      A
 Frequencies --   3112.4132              3113.6994              3118.4053
 Red. masses --      1.1012                 1.1002                 1.1002
 Frc consts  --      6.2853                 6.2846                 6.3033
 IR Inten    --     91.8599                40.5990                19.7256

                    106                    107                    108
                      A                      A                      A
 Frequencies --   3130.2307              3130.4062              3152.4945
 Red. masses --      1.1029                 1.1018                 1.0981
 Frc consts  --      6.3671                 6.3614                 6.4297
 IR Inten    --     16.7671                40.6225                15.1739

                    109                    110                    111
                      A                      A                      A
 Frequencies --   3161.9142              3174.4504              3181.3590
 Red. masses --      1.0863                 1.0887                 1.0940
 Frc consts  --      6.3986                 6.4641                 6.5240
 IR Inten    --     20.4956                27.9100                23.8547

                    112                    113                    114
                      A                      A                      A
 Frequencies --   3214.5313              3486.1058              3569.9393
 Red. masses --      1.0910                 1.0737                 1.0747
 Frc consts  --      6.6420                 7.6882                 8.0699
 IR Inten    --     18.0744                 3.7848                 4.8852

 - Thermochemistry -
 -------------------
 Temperature   298.150 Kelvin.  Pressure   1.00000 Atm.
 Atom     1 has atomic number  6 and mass  12.00000

 Molecular mass:   220.19395 amu.
 Principal axes and moments of inertia in atomic units:
                           1         2         3
     Eigenvalues --  1669.154697520.300517964.60788
           X            1.00000  -0.00211  -0.00117
           Y            0.00211   0.99999   0.00497
           Z            0.00116  -0.00497   0.99999
 This molecule is an asymmetric top.
 Rotational symmetry number  1.
 Warning -- assumption of classical behavior for rotation
           may cause significant error
 Rotational temperatures (Kelvin)      0.05189     0.01152     0.01087
 Rotational constants (GHZ):           1.08123     0.23998     0.22660
 Zero-point vibrational energy     949833.9 (Joules/Mol)
                                  227.01574 (Kcal/Mol)
 Warning -- explicit consideration of  29 degrees of freedom as
           vibrations may cause significant error
 Vibrational temperatures:     18.42    45.08    54.54    63.95   116.15
          (Kelvin)            171.40   176.95   220.03   259.64   356.41
                              359.76   366.98   387.34   418.48   425.02
                              453.23   463.93   486.00   515.10   578.94
                              585.05   602.22   644.03   670.58   703.97
                              734.66   757.84   821.54   863.13   948.92
                             1031.66  1048.87  1110.27  1132.80  1178.71
                             1184.48  1212.32  1280.11  1292.65  1324.01
                             1348.49  1352.99  1355.69  1394.44  1442.75
                             1464.58  1490.79  1496.83  1548.16  1570.47
                             1583.48  1613.39  1653.78  1665.20  1685.90
                             1704.35  1743.80  1759.11  1780.00  1798.53
                             1833.22  1859.33  1890.65  1945.56  1956.29
                             1969.12  2014.48  2028.55  2045.58  2061.94
                             2075.35  2078.26  2100.97  2134.64  2163.44
                             2172.50  2178.99  2180.88  2183.02  2184.53
                             2196.43  2199.12  2201.89  2213.39  2224.04
                             2231.18  2242.83  2265.22  2359.66  2424.06
                             4328.91  4367.87  4373.81  4376.87  4382.31
                             4388.32  4424.52  4431.15  4437.92  4441.56
                             4459.38  4472.86  4478.07  4479.92  4486.69
                             4503.70  4503.96  4535.74  4549.29  4567.33
                             4577.27  4624.99  5015.73  5136.35

 Zero-point correction=                           0.361773 (Hartree/Particle)
 Thermal correction to Energy=                    0.379808
 Thermal correction to Enthalpy=                  0.380752
 Thermal correction to Gibbs Free Energy=         0.314349
 Sum of electronic and zero-point Energies=           -657.152739
 Sum of electronic and thermal Energies=              -657.134704
 Sum of electronic and thermal Enthalpies=            -657.133760
 Sum of electronic and thermal Free Energies=         -657.200163

                     E (Thermal)             CV                S
                      KCal/Mol        Cal/Mol-Kelvin    Cal/Mol-Kelvin
 Total                  238.333             68.866            139.756
 Electronic               0.000              0.000              0.000
 Translational            0.889              2.981             42.071
 Rotational               0.889              2.981             32.969
 Vibrational            236.555             62.904             64.716
 Vibration     1          0.593              1.987              7.520
 Vibration     2          0.594              1.983              5.743
 Vibration     3          0.594              1.982              5.366
 Vibration     4          0.595              1.980              5.050
 Vibration     5          0.600              1.962              3.873
 Vibration     6          0.609              1.933              3.114
 Vibration     7          0.610              1.930              3.053
 Vibration     8          0.619              1.899              2.636
 Vibration     9          0.629              1.866              2.324
 Vibration    10          0.661              1.767              1.747
 Vibration    11          0.663              1.763              1.730
 Vibration    12          0.665              1.754              1.695
 Vibration    13          0.674              1.730              1.601
 Vibration    14          0.687              1.691              1.469
 Vibration    15          0.690              1.682              1.443
 Vibration    16          0.702              1.645              1.336
 Vibration    17          0.707              1.630              1.298
 Vibration    18          0.718              1.600              1.223
 Vibration    19          0.733              1.559              1.131
 Vibration    20          0.768              1.465              0.954
 Vibration    21          0.771              1.456              0.939
 Vibration    22          0.781              1.430              0.897
 Vibration    23          0.807              1.366              0.803
 Vibration    24          0.823              1.325              0.749
 Vibration    25          0.845              1.274              0.685
 Vibration    26          0.866              1.226              0.632
 Vibration    27          0.882              1.191              0.595
 Vibration    28          0.927              1.094              0.502
 Vibration    29          0.958              1.032              0.450

 Optimization completed.
    -- Stationary point found.
 Normal termination of Gaussian 16 at Thu Dec 10 22:35:19 2020.

 ----------------------------------------------------------------------
 # B3LYP/6-311++G(d,p) empiricaldispersion=gd3bj scf=xqc pop=npa geom=c
 heck
 ----------------------------------------------------------------------

 --------------------------------------
 CID_13185872_JID_6253_Energie_neutraal
 --------------------------------------
 Structure from the checkpoint file:  "JID_6253.chk"
 Charge =  0 Multiplicity = 1

 SCF Done:  E(RB3LYP) =  -657.698602149     A.U. after   15 cycles
 Normal termination of Gaussian 16 at Thu Dec 10 22:43:51 2020.

 ----------------------------------------------------------------------
 # B3LYP/6-311++G(d,p) empiricaldispersion=gd3bj scf=xqc pop=npa geom=c
 heck
 ----------------------------------------------------------------------

 ------------------------------------
 CID_13185872_JID_6253_Energie_kation
 ------------------------------------
 Structure from the checkpoint file:  "JID_6253.chk"
 Charge =  1 Multiplicity = 2

 SCF Done:  E(UB3LYP) =  -657.441335863     A.U. after   22 cycles
 Normal termination of Gaussian 16 at Thu Dec 10 23:01:59 2020.
 Gaussian 16:  ES64L-G16RevA.03 25-Dec-2016

 ----------------------------------------------------------------------
 # B3LYP/6-311++G(d,p) empiricaldispersion=gd3bj scf=xqc pop=npa geom=c
 heck
 ----------------------------------------------------------------------

 -----------------------------------
 CID_13185872_JID_6253_Energie_anion
 -----------------------------------
 Structure from the checkpoint file:  "JID_6253.chk"
 Charge = -1 Multiplicity = 2

                         Standard orientation:
 ---------------------------------------------------------------------
 Center     Atomic      Atomic             Coordinates (Angstroms)
 Number     Number       Type             X           Y           Z
 ---------------------------------------------------------------------
      1          6           0        5.521452   -0.326873    0.662966
      2          6           0        4.054074   -0.216210    0.327658
      3          6           0        3.235630    0.747559    0.919581
      4          6           0        1.881094    0.864292    0.605613
      5          6           0        1.290227   -0.003106   -0.326831
      6          6           0        2.111308   -0.976102   -0.929333
      7          6           0        3.456902   -1.076666   -0.605379
      8          7           0       -0.071088    0.020812   -0.632089
      9          6           0       -0.900578    1.205127   -0.428572
     10          6           0       -0.509485    2.354937   -1.371093
     11          6           0       -2.388271    0.855358   -0.583352
     12          6           0       -3.063353   -0.090935    0.463506
     13          6           0       -2.208272   -0.294285    1.731155
     14          6           0       -4.404819    0.540092    0.877002
     15          7           0       -3.429449   -1.368650   -0.190509
     16          6           0       -2.356984   -2.247228   -0.644560
     17          1           0        5.797166    0.363650    1.466560
     18          1           0        5.786590   -1.339979    0.990307
     19          1           0        6.154755   -0.094413   -0.203226
     20          1           0        3.663665    1.434373    1.646495
     21          1           0        1.290360    1.631504    1.093622
     22          1           0        1.675349   -1.661413   -1.653631
     23          1           0        4.060420   -1.840970   -1.090687
     24          1           0       -0.288949   -0.462674   -1.495032
     25          1           0       -0.737659    1.534778    0.602140
     26          1           0       -0.724169    2.086311   -2.412889
     27          1           0       -1.065933    3.269458   -1.135816
     28          1           0        0.560127    2.571390   -1.289882
     29          1           0       -2.925497    1.810533   -0.576246
     30          1           0       -2.561084    0.435423   -1.582895
     31          1           0       -2.043791    0.652948    2.257993
     32          1           0       -2.732413   -0.964822    2.423153
     33          1           0       -1.231623   -0.725130    1.501229
     34          1           0       -5.041601    0.688889   -0.000870
     35          1           0       -4.941822   -0.107133    1.582314
     36          1           0       -4.245752    1.506544    1.367433
     37          1           0       -4.009305   -1.887920    0.466291
     38          1           0       -1.550741   -2.430050    0.082290
     39          1           0       -2.800096   -3.210539   -0.918007
     40          1           0       -1.897796   -1.841656   -1.552626
 ---------------------------------------------------------------------

 SCF Done:  E(UB3LYP) =  -657.684647141     A.U. after   33 cycles
 SCF Done:  E(UB3LYP) =  -657.684647140     a.u. after    1 cycles

 The electronic state is 2-A.
 Alpha  occ. eigenvalues --  -14.22285 -14.19679 -10.11809 -10.11356 -10.11246
 Alpha  occ. eigenvalues --  -10.08556 -10.08052 -10.08003 -10.07868 -10.07817
 Alpha  occ. eigenvalues --  -10.07519 -10.07281 -10.07120 -10.06564 -10.06140
 Alpha  occ. eigenvalues --  -10.05555  -0.84358  -0.80871  -0.75664  -0.70160
 Alpha  occ. eigenvalues --   -0.67421  -0.65470  -0.64839  -0.59481  -0.59120
 Alpha  occ. eigenvalues --   -0.58317  -0.56130  -0.53213  -0.50549  -0.48589
 Alpha  occ. eigenvalues --   -0.45249  -0.43818  -0.39475  -0.38320  -0.37548
 Alpha  occ. eigenvalues --   -0.36854  -0.35289  -0.35125  -0.34449  -0.33480
 Alpha  occ. eigenvalues --   -0.33199  -0.32717  -0.32542  -0.31184  -0.30426
 Alpha  occ. eigenvalues --   -0.29402  -0.29328  -0.28237  -0.27800  -0.27355
 Alpha  occ. eigenvalues --   -0.27035  -0.26102  -0.25840  -0.24669  -0.23902
 Alpha  occ. eigenvalues --   -0.23389  -0.22731  -0.19477  -0.16085  -0.12827
 Alpha  occ. eigenvalues --   -0.10473   0.04147
 Alpha virt. eigenvalues --    0.05792   0.06327   0.06709   0.07683   0.07725
 Alpha virt. eigenvalues --    0.07961   0.08495   0.08912   0.09131   0.09413
 Alpha virt. eigenvalues --    0.10249   0.10643   0.10690   0.11127   0.11730

  Beta  occ. eigenvalues --  -14.22275 -14.19664 -10.11808 -10.11349 -10.11245
  Beta  occ. eigenvalues --  -10.08530 -10.08050 -10.07987 -10.07860 -10.07808
  Beta  occ. eigenvalues --  -10.07507 -10.07272 -10.07102 -10.06538 -10.06116
  Beta  occ. eigenvalues --  -10.05531  -0.84340  -0.80848  -0.75651  -0.70138
  Beta  occ. eigenvalues --   -0.67398  -0.65449  -0.64815  -0.59438  -0.59075
  Beta  occ. eigenvalues --   -0.58283  -0.56065  -0.53177  -0.50512  -0.48560
  Beta  occ. eigenvalues --   -0.45206  -0.43790  -0.39446  -0.38283  -0.37511
  Beta  occ. eigenvalues --   -0.36825  -0.35263  -0.35090  -0.34419  -0.33451
  Beta  occ. eigenvalues --   -0.33180  -0.32692  -0.32516  -0.31153  -0.30398
  Beta  occ. eigenvalues --   -0.29370  -0.29305  -0.28212  -0.27766  -0.27332
  Beta  occ. eigenvalues --   -0.27006  -0.26072  -0.25812  -0.24646  -0.23873
  Beta  occ. eigenvalues --   -0.23359  -0.22704  -0.19461  -0.16072  -0.12807
  Beta  occ. eigenvalues --   -0.10459
  Beta virt. eigenvalues --    0.05909   0.06420   0.07061   0.07338   0.07746
  Beta virt. eigenvalues --    0.08033   0.08280   0.08668   0.09253   0.09607
  Beta virt. eigenvalues --    0.09698   0.10539   0.10733   0.10929   0.11214

 Mulliken charges and spin densities:
               1          2
     1  C    1.071813  -1.647171
     2  C    0.020163   0.389148
     3  C   -1.214833   0.583530
     4  C   -0.349764   0.100707
     5  C    1.309571  -1.445123
     6  C   -0.339670   0.370557
     7  C   -0.570464   0.210773
     8  N    0.216602   0.027805
     9  C   -1.784257   2.102720
    10  C    0.887271  -1.474206
    11  C    1.885436  -2.790488
    12  C   -2.210817   2.680036
    13  C    0.449869  -1.221619
    14  C    0.647510  -1.139708
    15  N    0.005460  -0.058863
    16  C    0.292295  -0.682420
    17  H   -0.118205   0.257086
    18  H    0.055495   0.086038
    19  H    0.021161   0.127375
    20  H   -0.105833   0.260960
    21  H   -0.414093   0.550672
    22  H   -0.441284   0.569568
    23  H   -0.166904   0.334557
    24  H    0.448385  -0.222253
    25  H    0.361860  -0.241363
    26  H   -0.152939   0.315120
    27  H   -0.367045   0.498476
    28  H    0.210645  -0.077479
    29  H    0.091554   0.083523
    30  H    0.243331  -0.044467
    31  H   -0.068677   0.200627
    32  H   -0.303189   0.469746
    33  H    0.402565  -0.246172
    34  H    0.003998   0.160852
    35  H   -0.197690   0.327404
    36  H   -0.180600   0.321681
    37  H    0.076743   0.147584
    38  H    0.082853   0.064412
    39  H   -0.415084   0.559263
    40  H   -0.383233   0.491110
 Sum of Mulliken charges =  -1.00000   1.00000

 Dipole moment (field-independent basis, Debye):
    X=              2.4516    Y=              0.4496    Z=             -0.1995  Tot=              2.5005
 Quadrupole moment (field-independent basis, Debye-Ang):
   XX=           -190.3045   YY=           -150.1017   ZZ=           -142.1831
   XY=             -2.9655   XZ=              2.8847   YZ=             -1.6835

 Summary of Natural Population Analysis:

                                       Natural Population
                Natural  -----------------------------------------------
    Atom  No    Charge         Core      Valence    Rydberg      Total
 -----------------------------------------------------------------------
      C    1   -0.28867      0.99964     2.28429    0.00474     3.28867
      C    2   -0.04281      0.99951     2.03433    0.00897     3.04281
      C    3   -0.08954      0.99952     2.08129    0.00873     3.08954
      C    4   -0.13020      0.99952     2.12141    0.00927     3.13020
      C    5    0.09145      0.99949     1.89793    0.01113     2.90855
      C    6   -0.11676      0.99953     2.10705    0.01018     3.11676
      C    7   -0.09117      0.99952     2.08280    0.00885     3.09117
      N    8   -0.31809      0.99968     2.80677    0.01164     3.81809
      C    9   -0.01289      0.99959     2.00145    0.01185     3.01289
      C   10   -0.28992      0.99965     2.28450    0.00578     3.28992
      C   11   -0.19183      0.99956     2.18165    0.01062     3.19183
      C   12    0.05893      0.99958     1.92757    0.01392     2.94107
      C   13   -0.30125      0.99962     2.29479    0.00684     3.30125
      C   14   -0.28275      0.99962     2.27587    0.00727     3.28275
      N   15   -0.34429      0.99972     2.83200    0.01257     3.84429
      C   16   -0.17745      0.99965     2.16923    0.00856     3.17745
      H   17    0.10007      0.00000     0.39891    0.00101     0.39993
      H   18    0.09994      0.00000     0.39878    0.00128     0.40006
      H   19    0.10009      0.00000     0.39852    0.00138     0.39991
      H   20    0.09732      0.00000     0.40172    0.00096     0.40268
      H   21    0.10242      0.00000     0.39599    0.00158     0.39758
      H   22    0.09921      0.00000     0.39924    0.00156     0.40079
      H   23    0.09772      0.00000     0.40132    0.00096     0.40228
      H   24    0.18214      0.00000     0.31462    0.00324     0.31786
      H   25    0.09559      0.00000     0.40170    0.00270     0.40441
      H   26    0.09711      0.00000     0.40184    0.00104     0.40289
      H   27    0.10053      0.00000     0.39848    0.00099     0.39947
      H   28    0.10429      0.00000     0.39467    0.00103     0.39571
      H   29    0.10365      0.00000     0.39502    0.00133     0.39635
      H   30    0.10415      0.00000     0.39441    0.00143     0.39585
      H   31    0.10015      0.00000     0.39872    0.00113     0.39985
      H   32    0.09969      0.00000     0.39920    0.00111     0.40031
      H   33    0.10921      0.00000     0.38945    0.00134     0.39079
      H   34    0.10286      0.00000     0.39591    0.00123     0.39714
      H   35    0.09716      0.00000     0.40173    0.00111     0.40284
      H   36    0.09947      0.00000     0.39956    0.00098     0.40053
      H   37    0.17121      0.00000     0.32595    0.00284     0.32879
      H   38    0.08438      0.00000     0.41395    0.00167     0.41562
      H   39    0.09422      0.00000     0.40483    0.00095     0.40578
      H   40    0.08465      0.00000     0.41367    0.00169     0.41535
 =======================================================================
   * Total *    0.00000     15.99339    44.82111    0.18549    61.00000

 Normal termination of Gaussian 16 at Thu Dec 10 23:29:19 2020.
