 Gaussian 16, Revision A.03,

 -----------------------------------------------------------
 # opt freq B3LYP/6-31G(d) empiricaldispersion=gd3bj scf=xqc
 -----------------------------------------------------------

 -------------------------------
 CID_117169184_JID_5225_neutraal
 -------------------------------
 Symbolic Z-matrix:
 Charge =  0 Multiplicity = 1

 SCF Done:  E(RB3LYP) =  -689.940884952     A.U. after   15 cycles
 SCF Done:  E(RB3LYP) =  -689.968520473     A.U. after   13 cycles
 SCF Done:  E(RB3LYP) =  -689.969157187     A.U. after   13 cycles
 SCF Done:  E(RB3LYP) =  -689.983426767     A.U. after   13 cycles
 SCF Done:  E(RB3LYP) =  -689.985871777     A.U. after   12 cycles
 SCF Done:  E(RB3LYP) =  -689.986382022     A.U. after   12 cycles
 SCF Done:  E(RB3LYP) =  -689.986471018     A.U. after   11 cycles
 SCF Done:  E(RB3LYP) =  -689.986493494     A.U. after   10 cycles
 SCF Done:  E(RB3LYP) =  -689.986498378     A.U. after    9 cycles
 SCF Done:  E(RB3LYP) =  -689.986499985     A.U. after    9 cycles
 SCF Done:  E(RB3LYP) =  -689.986500172     A.U. after    8 cycles
 SCF Done:  E(RB3LYP) =  -689.986500333     A.U. after    7 cycles
 Optimization completed.
    -- Stationary point found.
 Normal termination of Gaussian 16 at Thu Dec 10 14:53:03 2020.

 --------------------------------------------------------------------
 #N Geom=AllCheck Guess=TCheck SCRF=Check GenChk RB3LYP/6-31G(d) Freq
 --------------------------------------------------------------------

 Structure from the checkpoint file:  "JID_5225.chk"
 -------------------------------
 CID_117169184_JID_5225_neutraal
 -------------------------------
 Charge =  0 Multiplicity = 1

 SCF Done:  E(RB3LYP) =  -689.986500333     A.U. after    1 cycles

  Exact polarizability: 135.996   6.386 124.028  -5.485  -1.543 114.580
 Approx polarizability: 170.583   5.085 183.001 -10.705 -11.864 175.830

                      1                      2                      3
                      A                      A                      A
 Frequencies --     27.3324                35.8904                72.6884
 Red. masses --      6.7760                 3.4633                 3.8309
 Frc consts  --      0.0030                 0.0026                 0.0119
 IR Inten    --      2.0109                 1.6139                 4.8742

                      4                      5                      6
                      A                      A                      A
 Frequencies --     73.7583               126.7093               147.1781
 Red. masses --      4.3358                 3.9364                 5.5557
 Frc consts  --      0.0139                 0.0372                 0.0709
 IR Inten    --      1.8105                 7.6782                 3.7499

                      7                      8                      9
                      A                      A                      A
 Frequencies --    178.9167               213.0905               247.1146
 Red. masses --      3.5188                 3.9317                 2.3378
 Frc consts  --      0.0664                 0.1052                 0.0841
 IR Inten    --      1.7500                 0.8098                 2.5995

                     10                     11                     12
                      A                      A                      A
 Frequencies --    268.6072               315.6462               342.4601
 Red. masses --      3.7329                 2.4577                 2.1693
 Frc consts  --      0.1587                 0.1443                 0.1499
 IR Inten    --      2.3115                 2.1911                 2.6688

                     13                     14                     15
                      A                      A                      A
 Frequencies --    356.7196               381.2644               396.0863
 Red. masses --      2.2635                 4.1453                 2.4725
 Frc consts  --      0.1697                 0.3550                 0.2285
 IR Inten    --      3.3240                 2.2526                 1.2921

                     16                     17                     18
                      A                      A                      A
 Frequencies --    423.4123               452.8611               481.5115
 Red. masses --      3.4784                 3.0464                 2.3630
 Frc consts  --      0.3674                 0.3681                 0.3228
 IR Inten    --      2.2341                 1.4261                 6.4284

                     19                     20                     21
                      A                      A                      A
 Frequencies --    552.2226               557.8893               658.2159
 Red. masses --      4.5961                 1.6025                 3.8399
 Frc consts  --      0.8258                 0.2939                 0.9802
 IR Inten    --      2.3281                11.4478                 9.5201

                     22                     23                     24
                      A                      A                      A
 Frequencies --    721.6338               753.7664               793.5097
 Red. masses --      6.3086                 3.8370                 1.6817
 Frc consts  --      1.9356                 1.2844                 0.6239
 IR Inten    --      9.8803                 2.9058                43.5441

                     25                     26                     27
                      A                      A                      A
 Frequencies --    811.0320               830.4151               850.3985
 Red. masses --      2.3360                 2.6385                 1.9842
 Frc consts  --      0.9053                 1.0720                 0.8454
 IR Inten    --      8.3232                20.2644                 3.5020

                     28                     29                     30
                      A                      A                      A
 Frequencies --    862.5037               885.4564               907.5001
 Red. masses --      2.2156                 2.1274                 2.0353
 Frc consts  --      0.9711                 0.9827                 0.9876
 IR Inten    --      4.2086                 4.4926                 9.1773

                     31                     32                     33
                      A                      A                      A
 Frequencies --    938.5818               945.8232               953.1353
 Red. masses --      2.5369                 2.6316                 1.7284
 Frc consts  --      1.3167                 1.3870                 0.9251
 IR Inten    --      7.2631                21.9305                12.5066

                     34                     35                     36
                      A                      A                      A
 Frequencies --    962.9693              1012.9084              1015.8427
 Red. masses --      2.9068                 2.4013                 2.0321
 Frc consts  --      1.5881                 1.4515                 1.2355
 IR Inten    --      0.8592                28.5966                14.4455

                     37                     38                     39
                      A                      A                      A
 Frequencies --   1026.0207              1068.0683              1072.4116
 Red. masses --      1.7737                 3.5452                 3.5559
 Frc consts  --      1.1001                 2.3828                 2.4095
 IR Inten    --     18.5688                17.8100                51.7710

                     40                     41                     42
                      A                      A                      A
 Frequencies --   1074.5213              1093.5984              1133.0662
 Red. masses --      1.7361                 2.1362                 2.1405
 Frc consts  --      1.1810                 1.5053                 1.6191
 IR Inten    --      1.4144                 7.6516                 7.1863

                     43                     44                     45
                      A                      A                      A
 Frequencies --   1137.1834              1144.0746              1162.5432
 Red. masses --      2.2363                 3.1240                 2.2562
 Frc consts  --      1.7039                 2.4092                 1.7966
 IR Inten    --      0.8475                38.2614                75.1912

                     46                     47                     48
                      A                      A                      A
 Frequencies --   1179.4065              1189.5877              1228.5795
 Red. masses --      2.7643                 1.2970                 1.2915
 Frc consts  --      2.2655                 1.0814                 1.1486
 IR Inten    --    115.5311                 1.6775                 1.9933

                     49                     50                     51
                      A                      A                      A
 Frequencies --   1251.2352              1263.3363              1275.5137
 Red. masses --      1.2335                 1.3453                 1.3035
 Frc consts  --      1.1378                 1.2651                 1.2495
 IR Inten    --     14.9650                 0.6033                13.1994

                     52                     53                     54
                      A                      A                      A
 Frequencies --   1300.7829              1307.6742              1309.6250
 Red. masses --      1.3511                 1.1651                 1.2366
 Frc consts  --      1.3470                 1.1738                 1.2496
 IR Inten    --      3.9027                 4.2999                 2.4713

                     55                     56                     57
                      A                      A                      A
 Frequencies --   1353.6079              1356.6410              1362.0370
 Red. masses --      1.2272                 1.2530                 1.3413
 Frc consts  --      1.3248                 1.3587                 1.4660
 IR Inten    --      2.0124                 9.5828                 7.7073

                     58                     59                     60
                      A                      A                      A
 Frequencies --   1370.6424              1382.8706              1389.2292
 Red. masses --      1.3642                 1.3601                 1.4286
 Frc consts  --      1.5100                 1.5325                 1.6245
 IR Inten    --      6.0224                25.3938                 5.7748

                     61                     62                     63
                      A                      A                      A
 Frequencies --   1401.0638              1405.3003              1413.3691
 Red. masses --      1.4330                 1.3710                 1.3757
 Frc consts  --      1.6573                 1.5952                 1.6191
 IR Inten    --      3.6974                23.6747                12.0279

                     64                     65                     66
                      A                      A                      A
 Frequencies --   1428.8323              1447.6761              1451.9312
 Red. masses --      1.5945                 1.4331                 1.4258
 Frc consts  --      1.9179                 1.7696                 1.7709
 IR Inten    --     20.2697                 4.4022                26.3218

                     67                     68                     69
                      A                      A                      A
 Frequencies --   1491.1867              1495.8810              1505.9672
 Red. masses --      1.0938                 1.1110                 1.1046
 Frc consts  --      1.4331                 1.4648                 1.4759
 IR Inten    --      5.0545                 5.7956                 5.2369

                     70                     71                     72
                      A                      A                      A
 Frequencies --   1515.3700              1516.4902              1525.3461
 Red. masses --      1.1409                 1.1894                 1.1186
 Frc consts  --      1.5436                 1.6116                 1.5334
 IR Inten    --      2.6512                 7.3038                 5.2472

                     73                     74                     75
                      A                      A                      A
 Frequencies --   1536.0567              1537.2150              2376.2280
 Red. masses --      1.1111                 1.1057                12.6069
 Frc consts  --      1.5446                 1.5394                41.9407
 IR Inten    --      1.1928                 2.2148                 6.5353

                     76                     77                     78
                      A                      A                      A
 Frequencies --   2932.2632              2958.8041              2980.4481
 Red. masses --      1.0736                 1.0797                 1.0841
 Frc consts  --      5.4386                 5.5691                 5.6740
 IR Inten    --     56.7676                48.4275                92.4013

                     79                     80                     81
                      A                      A                      A
 Frequencies --   3018.1942              3026.0913              3045.2706
 Red. masses --      1.0680                 1.0701                 1.0615
 Frc consts  --      5.7319                 5.7735                 5.8001
 IR Inten    --     29.7105                63.2505                19.2280

                     82                     83                     84
                      A                      A                      A
 Frequencies --   3045.8994              3051.1845              3060.2991
 Red. masses --      1.0678                 1.0658                 1.0606
 Frc consts  --      5.8369                 5.8459                 5.8521
 IR Inten    --     14.6198                39.5752                 6.7086

                     85                     86                     87
                      A                      A                      A
 Frequencies --   3075.1379              3080.6665              3086.7694
 Red. masses --      1.0937                 1.0880                 1.0886
 Frc consts  --      6.0936                 6.0837                 6.1110
 IR Inten    --     61.2456                68.8320                31.9148

                     88                     89                     90
                      A                      A                      A
 Frequencies --   3090.8942              3099.1672              3111.9326
 Red. masses --      1.1053                 1.0985                 1.1001
 Frc consts  --      6.2218                 6.2163                 6.2768
 IR Inten    --     47.6147                20.6195                11.4964

                     91                     92                     93
                      A                      A                      A
 Frequencies --   3118.6191              3136.4351              3478.7620
 Red. masses --      1.0949                 1.0969                 1.0742
 Frc consts  --      6.2744                 6.3576                 7.6591
 IR Inten    --     33.7413                17.7250                 2.9033

 - Thermochemistry -
 -------------------
 Temperature   298.150 Kelvin.  Pressure   1.00000 Atm.
 Atom     1 has atomic number  6 and mass  12.00000

 Molecular mass:   210.13683 amu.
 Principal axes and moments of inertia in atomic units:
                           1         2         3
     Eigenvalues --  2164.724704100.509834933.81114
           X            0.99981   0.01900  -0.00315
           Y           -0.01889   0.99932   0.03164
           Z            0.00375  -0.03157   0.99949
 This molecule is an asymmetric top.
 Rotational symmetry number  1.
 Warning -- assumption of classical behavior for rotation
           may cause significant error
 Rotational temperatures (Kelvin)      0.04001     0.02112     0.01756
 Rotational constants (GHZ):           0.83370     0.44013     0.36579
 Zero-point vibrational energy     762213.0 (Joules/Mol)
                                  182.17328 (Kcal/Mol)
 Warning -- explicit consideration of  20 degrees of freedom as
           vibrations may cause significant error
 Vibrational temperatures:     39.33    51.64   104.58   106.12   182.31
          (Kelvin)            211.76   257.42   306.59   355.54   386.47
                              454.14   492.72   513.24   548.55   569.88
                              609.20   651.57   692.79   794.53   802.68
                              947.03  1038.27  1084.50  1141.68  1166.89
                             1194.78  1223.53  1240.95  1273.97  1305.69
                             1350.41  1360.83  1371.35  1385.50  1457.35
                             1461.57  1476.21  1536.71  1542.96  1546.00
                             1573.44  1630.23  1636.15  1646.07  1672.64
                             1696.90  1711.55  1767.65  1800.25  1817.66
                             1835.18  1871.54  1881.45  1884.26  1947.54
                             1951.90  1959.67  1972.05  1989.64  1998.79
                             2015.82  2021.91  2033.52  2055.77  2082.88
                             2089.01  2145.49  2152.24  2166.75  2180.28
                             2181.89  2194.63  2210.04  2211.71  3418.86
                             4218.87  4257.06  4288.20  4342.51  4353.87
                             4381.47  4382.37  4389.97  4403.09  4424.44
                             4432.39  4441.17  4447.11  4459.01  4477.38
                             4487.00  4512.63  5005.16

 Zero-point correction=                           0.290312 (Hartree/Particle)
 Thermal correction to Energy=                    0.304327
 Thermal correction to Enthalpy=                  0.305271
 Thermal correction to Gibbs Free Energy=         0.248185
 Sum of electronic and zero-point Energies=           -689.696189
 Sum of electronic and thermal Energies=              -689.682173
 Sum of electronic and thermal Enthalpies=            -689.681229
 Sum of electronic and thermal Free Energies=         -689.738315

                     E (Thermal)             CV                S
                      KCal/Mol        Cal/Mol-Kelvin    Cal/Mol-Kelvin
 Total                  190.968             53.859            120.147
 Electronic               0.000              0.000              0.000
 Translational            0.889              2.981             41.932
 Rotational               0.889              2.981             32.149
 Vibrational            189.191             47.897             46.067
 Vibration     1          0.593              1.984              6.014
 Vibration     2          0.594              1.982              5.474
 Vibration     3          0.599              1.967              4.079
 Vibration     4          0.599              1.966              4.050
 Vibration     5          0.611              1.926              2.995
 Vibration     6          0.617              1.906              2.708
 Vibration     7          0.629              1.868              2.340
 Vibration     8          0.644              1.821              2.017
 Vibration     9          0.661              1.768              1.751
 Vibration    10          0.673              1.731              1.605
 Vibration    11          0.703              1.644              1.333
 Vibration    12          0.722              1.591              1.201
 Vibration    13          0.732              1.561              1.136
 Vibration    14          0.751              1.510              1.034
 Vibration    15          0.763              1.479              0.977
 Vibration    16          0.786              1.419              0.880
 Vibration    17          0.811              1.355              0.787
 Vibration    18          0.838              1.291              0.706
 Vibration    19          0.908              1.135              0.540
 Vibration    20          0.913              1.122              0.528

 Optimization completed.
    -- Stationary point found.
 Normal termination of Gaussian 16 at Thu Dec 10 15:05:33 2020.

 ----------------------------------------------------------------------
 # B3LYP/6-311++G(d,p) empiricaldispersion=gd3bj scf=xqc pop=npa geom=c
 heck
 ----------------------------------------------------------------------

 ---------------------------------------
 CID_117169184_JID_5225_Energie_neutraal
 ---------------------------------------
 Structure from the checkpoint file:  "JID_5225.chk"
 Charge =  0 Multiplicity = 1

 SCF Done:  E(RB3LYP) =  -690.182302359     A.U. after   14 cycles
 Normal termination of Gaussian 16 at Thu Dec 10 15:11:10 2020.

 ----------------------------------------------------------------------
 # B3LYP/6-311++G(d,p) empiricaldispersion=gd3bj scf=xqc pop=npa geom=c
 heck
 ----------------------------------------------------------------------

 -------------------------------------
 CID_117169184_JID_5225_Energie_kation
 -------------------------------------
 Structure from the checkpoint file:  "JID_5225.chk"
 Charge =  1 Multiplicity = 2

 SCF Done:  E(UB3LYP) =  -689.875576497     A.U. after   22 cycles
 Normal termination of Gaussian 16 at Thu Dec 10 15:23:57 2020.
 Gaussian 16:  ES64L-G16RevA.03 25-Dec-2016

 ----------------------------------------------------------------------
 # B3LYP/6-311++G(d,p) empiricaldispersion=gd3bj scf=xqc pop=npa geom=c
 heck
 ----------------------------------------------------------------------

 ------------------------------------
 CID_117169184_JID_5225_Energie_anion
 ------------------------------------
 Structure from the checkpoint file:  "JID_5225.chk"
 Charge = -1 Multiplicity = 2

                         Standard orientation:
 ---------------------------------------------------------------------
 Center     Atomic      Atomic             Coordinates (Angstroms)
 Number     Number       Type             X           Y           Z
 ---------------------------------------------------------------------
      1          6           0        2.348201    0.277274    1.582435
      2          6           0        3.595570    0.381408    0.697252
      3          6           0        3.189113    0.585739   -0.762917
      4          7           0        2.311926   -0.507832   -1.192192
      5          6           0        1.054983   -0.540483   -0.430038
      6          6           0        1.394893   -0.797181    1.044981
      7          6           0        0.146080   -1.615288   -1.039116
      8          6           0       -1.330397   -1.506248   -0.702341
      9          8           0       -1.584006   -1.679852    0.678782
     10          6           0       -2.804857   -0.992237    0.912875
     11          6           0       -2.645471    0.257643    0.034942
     12          8           0       -1.848238   -0.211870   -1.044592
     13          6           0       -1.922737    1.391192    0.791633
     14          6           0       -1.465572    2.457757   -0.098043
     15          7           0       -1.100548    3.303065   -0.804002
     16          1           0        2.625408    0.058499    2.620866
     17          1           0        1.832042    1.249174    1.590630
     18          1           0        4.238190    1.207762    1.024373
     19          1           0        4.179276   -0.544713    0.774302
     20          1           0        2.700511    1.574999   -0.861683
     21          1           0        4.073195    0.590986   -1.410401
     22          1           0        2.091348   -0.380876   -2.178846
     23          1           0        0.532466    0.430742   -0.502734
     24          1           0        1.873372   -1.783211    1.116015
     25          1           0        0.475690   -0.843213    1.635506
     26          1           0        0.208235   -1.557410   -2.133807
     27          1           0        0.495405   -2.615563   -0.758452
     28          1           0       -1.906217   -2.254625   -1.272491
     29          1           0       -2.887475   -0.787444    1.982622
     30          1           0       -3.666536   -1.592632    0.585835
     31          1           0       -3.597523    0.623034   -0.363037
     32          1           0       -2.594041    1.818422    1.547043
     33          1           0       -1.053882    0.975762    1.314116
 ---------------------------------------------------------------------

 SCF Done:  E(UB3LYP) =  -690.172947859     A.U. after   31 cycles

 The electronic state is 2-A.
 Alpha  occ. eigenvalues --  -19.04870 -19.04263 -14.21473 -14.21074 -10.18380
 Alpha  occ. eigenvalues --  -10.14756 -10.13004 -10.11707 -10.11569 -10.10695
 Alpha  occ. eigenvalues --  -10.10492 -10.08474 -10.07875 -10.07638 -10.06855
 Alpha  occ. eigenvalues --   -1.01052  -0.91509  -0.82824  -0.81183  -0.72819
 Alpha  occ. eigenvalues --   -0.69839  -0.69225  -0.64969  -0.60807  -0.54950
 Alpha  occ. eigenvalues --   -0.53922  -0.53362  -0.49753  -0.46799  -0.45042
 Alpha  occ. eigenvalues --   -0.42090  -0.41480  -0.40109  -0.38864  -0.38443
 Alpha  occ. eigenvalues --   -0.36769  -0.35511  -0.34621  -0.33185  -0.33041
 Alpha  occ. eigenvalues --   -0.32413  -0.31717  -0.29756  -0.29033  -0.28125
 Alpha  occ. eigenvalues --   -0.27270  -0.26195  -0.25597  -0.25125  -0.24390
 Alpha  occ. eigenvalues --   -0.23921  -0.23225  -0.22860  -0.22327  -0.19153
 Alpha  occ. eigenvalues --   -0.17697  -0.14382   0.04209
 Alpha virt. eigenvalues --    0.05930   0.06714   0.07503   0.08067   0.08579
 Alpha virt. eigenvalues --    0.09045   0.09590   0.10434   0.10732   0.11037
 Alpha virt. eigenvalues --    0.11574   0.11969   0.12093   0.12746   0.13131

  Beta  occ. eigenvalues --  -19.04863 -19.04259 -14.21464 -14.21069 -10.18368
  Beta  occ. eigenvalues --  -10.14735 -10.12948 -10.11663 -10.11563 -10.10693
  Beta  occ. eigenvalues --  -10.10487 -10.08467 -10.07869 -10.07628 -10.06849
  Beta  occ. eigenvalues --   -1.01037  -0.91495  -0.82815  -0.81159  -0.72775
  Beta  occ. eigenvalues --   -0.69824  -0.69193  -0.64924  -0.60753  -0.54918
  Beta  occ. eigenvalues --   -0.53885  -0.53306  -0.49730  -0.46776  -0.44995
  Beta  occ. eigenvalues --   -0.42062  -0.41434  -0.40042  -0.38827  -0.38360
  Beta  occ. eigenvalues --   -0.36745  -0.35478  -0.34600  -0.33152  -0.33011
  Beta  occ. eigenvalues --   -0.32376  -0.31694  -0.29732  -0.29015  -0.28108
  Beta  occ. eigenvalues --   -0.27253  -0.26174  -0.25557  -0.25106  -0.24371
  Beta  occ. eigenvalues --   -0.23893  -0.23203  -0.22839  -0.22310  -0.19109
  Beta  occ. eigenvalues --   -0.17660  -0.14365
  Beta virt. eigenvalues --    0.05979   0.07065   0.07396   0.07872   0.08654
  Beta virt. eigenvalues --    0.08825   0.09775   0.10081   0.10615   0.11075
  Beta virt. eigenvalues --    0.11321   0.11670   0.12011   0.12327   0.12974

 Mulliken charges and spin densities:
               1          2
     1  C   -0.059627  -0.159232
     2  C   -0.282678  -0.232202
     3  C    0.016010  -0.213126
     4  N    0.021240   0.011371
     5  C   -0.425711  -0.003030
     6  C   -0.155460  -0.086875
     7  C   -0.474705   0.259235
     8  C    0.310633  -0.872707
     9  O   -0.068729   0.035186
    10  C    2.167405  -2.752806
    11  C   -1.649486   2.017430
    12  O   -0.039108  -0.042810
    13  C    1.006999  -1.055273
    14  C    0.939243  -1.130076
    15  N   -0.338915   0.033036
    16  H   -0.148770   0.315064
    17  H    0.108845   0.016183
    18  H   -0.015351   0.170050
    19  H    0.152908  -0.025890
    20  H    0.100735   0.016126
    21  H   -0.035498   0.197908
    22  H    0.177496   0.032472
    23  H    0.417843  -0.163598
    24  H    0.062508   0.080048
    25  H    0.277918  -0.052980
    26  H    0.014183   0.123281
    27  H    0.180031   0.019476
    28  H   -0.272574   0.447084
    29  H   -0.937512   1.131796
    30  H   -0.478975   0.669485
    31  H   -0.675984   0.930229
    32  H   -0.815523   1.061272
    33  H   -0.079394   0.223873
 Sum of Mulliken charges =  -1.00000   1.00000

 Dipole moment (field-independent basis, Debye):
    X=              8.7137    Y=             -2.5152    Z=             -3.4322  Tot=              9.6972
 Quadrupole moment (field-independent basis, Debye-Ang):
   XX=           -171.0718   YY=           -140.0066   ZZ=           -133.0695
   XY=              1.8355   XZ=             11.1456   YZ=              2.8509

 Summary of Natural Population Analysis:

                                       Natural Population
                Natural  -----------------------------------------------
    Atom  No    Charge         Core      Valence    Rydberg      Total
 -----------------------------------------------------------------------
      C    1   -0.19228      0.99963     2.18360    0.00906     3.19228
      C    2   -0.19292      0.99963     2.18605    0.00724     3.19292
      C    3   -0.08681      0.99963     2.07749    0.00969     3.08681
      N    4   -0.34041      0.99972     2.83065    0.01004     3.84041
      C    5   -0.01641      0.99958     2.00495    0.01187     3.01641
      C    6   -0.19688      0.99960     2.18753    0.00975     3.19688
      C    7   -0.20384      0.99957     2.19283    0.01144     3.20384
      C    8    0.22650      0.99958     1.75429    0.01963     2.77350
      O    9   -0.29855      0.99988     3.29014    0.00853     4.29855
      C   10   -0.02127      0.99957     2.00798    0.01373     3.02127
      C   11    0.05931      0.99956     1.92390    0.01722     2.94069
      O   12   -0.30708      0.99988     3.29904    0.00816     4.30708
      C   13   -0.26182      0.99952     2.25027    0.01204     3.26182
      C   14    0.16909      0.99965     1.81480    0.01646     2.83091
      N   15   -0.18618      0.99979     2.67594    0.01045     3.68618
      H   16    0.09896      0.00000     0.40014    0.00090     0.40104
      H   17    0.09432      0.00000     0.40406    0.00162     0.40568
      H   18    0.09715      0.00000     0.40179    0.00106     0.40285
      H   19    0.09497      0.00000     0.40370    0.00133     0.40503
      H   20    0.08061      0.00000     0.41768    0.00171     0.41939
      H   21    0.09238      0.00000     0.40651    0.00112     0.40762
      H   22    0.17173      0.00000     0.32575    0.00252     0.32827
      H   23    0.08815      0.00000     0.40874    0.00311     0.41185
      H   24    0.09531      0.00000     0.40330    0.00139     0.40469
      H   25    0.11046      0.00000     0.38809    0.00145     0.38954
      H   26    0.10262      0.00000     0.39639    0.00099     0.39738
      H   27    0.10716      0.00000     0.39174    0.00110     0.39284
      H   28    0.07326      0.00000     0.42552    0.00122     0.42674
      H   29    0.10321      0.00000     0.39160    0.00519     0.39679
      H   30    0.09038      0.00000     0.40577    0.00385     0.40962
      H   31    0.09813      0.00000     0.39893    0.00293     0.40187
      H   32    0.12973      0.00000     0.36587    0.00440     0.37027
      H   33    0.12103      0.00000     0.37572    0.00325     0.37897
 =======================================================================
   * Total *    0.00000     14.99480    41.79077    0.21443    57.00000

 Normal termination of Gaussian 16 at Thu Dec 10 15:41:48 2020.
