 Gaussian 16, Revision A.03,

 -----------------------------------------------------------
 # opt freq B3LYP/6-31G(d) empiricaldispersion=gd3bj scf=xqc
 -----------------------------------------------------------

 ------------------------------
 CID_60372274_JID_7421_neutraal
 ------------------------------
 Symbolic Z-matrix:
 Charge =  0 Multiplicity = 1

 SCF Done:  E(RB3LYP) =  -750.190860211     A.U. after   15 cycles
 SCF Done:  E(RB3LYP) =  -750.194736428     A.U. after   13 cycles
 SCF Done:  E(RB3LYP) =  -750.195492775     A.U. after   13 cycles
 SCF Done:  E(RB3LYP) =  -750.196674428     A.U. after   12 cycles
 SCF Done:  E(RB3LYP) =  -750.196850888     A.U. after   12 cycles
 SCF Done:  E(RB3LYP) =  -750.197028253     A.U. after   12 cycles
 SCF Done:  E(RB3LYP) =  -750.197122218     A.U. after   10 cycles
 SCF Done:  E(RB3LYP) =  -750.197146682     A.U. after   11 cycles
 SCF Done:  E(RB3LYP) =  -750.197159898     A.U. after   10 cycles
 SCF Done:  E(RB3LYP) =  -750.197164820     A.U. after   10 cycles
 SCF Done:  E(RB3LYP) =  -750.197172999     A.U. after    8 cycles
 SCF Done:  E(RB3LYP) =  -750.197173463     A.U. after    9 cycles
 SCF Done:  E(RB3LYP) =  -750.197173823     A.U. after    8 cycles
 SCF Done:  E(RB3LYP) =  -750.197173955     A.U. after    8 cycles
 SCF Done:  E(RB3LYP) =  -750.197173984     A.U. after    7 cycles
 Optimization completed.
    -- Stationary point found.
 Normal termination of Gaussian 16 at Sun Dec 13 12:37:07 2020.

 --------------------------------------------------------------------
 #N Geom=AllCheck Guess=TCheck SCRF=Check GenChk RB3LYP/6-31G(d) Freq
 --------------------------------------------------------------------

 Structure from the checkpoint file:  "JID_7421.chk"
 ------------------------------
 CID_60372274_JID_7421_neutraal
 ------------------------------
 Charge =  0 Multiplicity = 1

 SCF Done:  E(RB3LYP) =  -750.197173984     A.U. after    1 cycles

  Exact polarizability: 223.301  -8.134 168.450  -0.857  18.456 108.000
 Approx polarizability: 309.336 -13.706 260.256  -8.070  46.014 165.910

                      1                      2                      3
                      A                      A                      A
 Frequencies --     16.6973                23.5616                41.9076
 Red. masses --      3.5414                 3.3018                 3.5228
 Frc consts  --      0.0006                 0.0011                 0.0036
 IR Inten    --      0.5621                 0.0772                 0.5028

                      4                      5                      6
                      A                      A                      A
 Frequencies --     53.5390                67.5704               101.2987
 Red. masses --      4.4331                 3.6227                 2.4177
 Frc consts  --      0.0075                 0.0097                 0.0146
 IR Inten    --      1.2269                 1.2471                 1.0467

                      7                      8                      9
                      A                      A                      A
 Frequencies --    108.2919               113.4209               144.6771
 Red. masses --      1.5038                 1.9728                 2.9426
 Frc consts  --      0.0104                 0.0150                 0.0363
 IR Inten    --      0.0747                 1.4826                 0.8982

                     10                     11                     12
                      A                      A                      A
 Frequencies --    168.5895               190.9341               219.2291
 Red. masses --      1.9309                 1.7435                 3.1037
 Frc consts  --      0.0323                 0.0374                 0.0879
 IR Inten    --      0.6652                 0.9309                 1.4444

                     13                     14                     15
                      A                      A                      A
 Frequencies --    231.9061               260.8921               283.7170
 Red. masses --      1.5595                 2.6818                 3.6000
 Frc consts  --      0.0494                 0.1075                 0.1707
 IR Inten    --      0.8364                 3.7115                 0.4712

                     16                     17                     18
                      A                      A                      A
 Frequencies --    309.9213               324.6822               369.8637
 Red. masses --      2.1272                 4.5176                 4.3768
 Frc consts  --      0.1204                 0.2806                 0.3528
 IR Inten    --      1.4027                 1.9586                 4.6210

                     19                     20                     21
                      A                      A                      A
 Frequencies --    401.2047               414.2039               451.4133
 Red. masses --      3.1040                 4.4446                 2.6635
 Frc consts  --      0.2944                 0.4493                 0.3198
 IR Inten    --      4.2860                 1.5341                 4.2279

                     22                     23                     24
                      A                      A                      A
 Frequencies --    470.3348               473.0987               515.7396
 Red. masses --      2.4081                 3.5559                 3.1393
 Frc consts  --      0.3139                 0.4689                 0.4920
 IR Inten    --      0.6564                 2.0402                 1.7279

                     25                     26                     27
                      A                      A                      A
 Frequencies --    552.0150               594.7252               600.0711
 Red. masses --      4.7041                 3.1239                 1.4759
 Frc consts  --      0.8446                 0.6510                 0.3131
 IR Inten    --      4.9559                26.1859                58.4829

                     28                     29                     30
                      A                      A                      A
 Frequencies --    643.0318               659.0850               724.7723
 Red. masses --      5.2518                 4.4569                 3.4661
 Frc consts  --      1.2794                 1.1407                 1.0727
 IR Inten    --      3.1918                52.3520                24.1928

                     31                     32                     33
                      A                      A                      A
 Frequencies --    753.9816               761.4111               778.7239
 Red. masses --      2.8914                 1.4460                 1.7085
 Frc consts  --      0.9685                 0.4939                 0.6104
 IR Inten    --      4.8403                47.9147                21.3502

                     34                     35                     36
                      A                      A                      A
 Frequencies --    814.7980               854.4709               863.3562
 Red. masses --      2.4311                 3.9601                 1.4516
 Frc consts  --      0.9509                 1.7035                 0.6375
 IR Inten    --      1.6316                 0.5183                 8.1852

                     37                     38                     39
                      A                      A                      A
 Frequencies --    874.0149               878.2778               890.1880
 Red. masses --      2.6072                 2.6808                 1.9529
 Frc consts  --      1.1735                 1.2183                 0.9118
 IR Inten    --      6.8713                 2.7852                 9.4473

                     40                     41                     42
                      A                      A                      A
 Frequencies --    930.8258               938.4731               966.4239
 Red. masses --      1.3052                 1.3143                 1.3251
 Frc consts  --      0.6663                 0.6820                 0.7292
 IR Inten    --      3.0294                 2.2089                 1.8686

                     43                     44                     45
                      A                      A                      A
 Frequencies --    968.8422               984.3637               998.5527
 Red. masses --      1.6896                 2.3139                 2.5718
 Frc consts  --      0.9344                 1.3210                 1.5109
 IR Inten    --      0.7951                 7.5983                61.5731

                     46                     47                     48
                      A                      A                      A
 Frequencies --   1021.6000              1076.6084              1080.6343
 Red. masses --      1.2396                 2.0111                 2.7004
 Frc consts  --      0.7623                 1.3734                 1.8579
 IR Inten    --      4.6674                 4.9552                40.2895

                     49                     50                     51
                      A                      A                      A
 Frequencies --   1114.2870              1121.7173              1124.3997
 Red. masses --      1.6089                 1.7260                 1.8829
 Frc consts  --      1.1770                 1.2795                 1.4026
 IR Inten    --     18.0244                 6.6070                 0.3026

                     52                     53                     54
                      A                      A                      A
 Frequencies --   1140.1040              1186.4563              1193.9725
 Red. masses --      1.9541                 1.8437                 1.1066
 Frc consts  --      1.4965                 1.5291                 0.9294
 IR Inten    --     45.7577                 9.9908                 3.6832

                     55                     56                     57
                      A                      A                      A
 Frequencies --   1209.6436              1234.6892              1283.2712
 Red. masses --      1.9536                 2.0957                 2.5156
 Frc consts  --      1.6842                 1.8823                 2.4408
 IR Inten    --     89.6899                51.4758               210.1617

                     58                     59                     60
                      A                      A                      A
 Frequencies --   1308.0300              1320.6093              1323.6152
 Red. masses --      1.3461                 2.3200                 1.7177
 Frc consts  --      1.3570                 2.3839                 1.7730
 IR Inten    --     35.2168               244.6076                53.0746

                     61                     62                     63
                      A                      A                      A
 Frequencies --   1334.2998              1367.7833              1401.9487
 Red. masses --      1.5504                 3.9074                 1.3813
 Frc consts  --      1.6263                 4.3070                 1.5996
 IR Inten    --      5.5103                34.2293                 0.8642

                     64                     65                     66
                      A                      A                      A
 Frequencies --   1417.3960              1426.3623              1441.3917
 Red. masses --      1.3780                 1.3071                 1.3411
 Frc consts  --      1.6311                 1.5668                 1.6417
 IR Inten    --     87.6170                12.5145                10.9404

                     67                     68                     69
                      A                      A                      A
 Frequencies --   1447.0117              1448.7225              1473.1988
 Red. masses --      1.3775                 1.3267                 1.7966
 Frc consts  --      1.6994                 1.6405                 2.2973
 IR Inten    --      7.9242                11.5719                69.1386

                     70                     71                     72
                      A                      A                      A
 Frequencies --   1497.4205              1505.3843              1507.0322
 Red. masses --      1.0621                 1.0519                 1.1195
 Frc consts  --      1.4032                 1.4045                 1.4981
 IR Inten    --      6.6461                 8.2237                 3.2288

                     73                     74                     75
                      A                      A                      A
 Frequencies --   1508.9213              1520.1636              1522.8090
 Red. masses --      2.0489                 1.0929                 1.1143
 Frc consts  --      2.7485                 1.4881                 1.5225
 IR Inten    --      3.1222                32.5961                 2.2722

                     76                     77                     78
                      A                      A                      A
 Frequencies --   1526.4518              1531.7208              1541.1484
 Red. masses --      1.0552                 1.1061                 1.0513
 Frc consts  --      1.4486                 1.5291                 1.4712
 IR Inten    --     19.4029                14.8849                 4.3025

                     79                     80                     81
                      A                      A                      A
 Frequencies --   1559.5195              1646.6054              1658.5875
 Red. masses --      2.7464                 6.0589                 6.0390
 Frc consts  --      3.9354                 9.6788                 9.7879
 IR Inten    --    147.1321                 6.6868                35.6264

                     82                     83                     84
                      A                      A                      A
 Frequencies --   1718.6151              1757.5692              3031.4401
 Red. masses --      6.2047                 7.3181                 1.0399
 Frc consts  --     10.7977                13.3191                 5.6302
 IR Inten    --    123.1791               421.1129                 7.0911

                     85                     86                     87
                      A                      A                      A
 Frequencies --   3037.6312              3038.1083              3054.0524
 Red. masses --      1.0627                 1.0420                 1.0408
 Frc consts  --      5.7773                 5.6666                 5.7197
 IR Inten    --     33.5985                56.0928                18.4247

                     88                     89                     90
                      A                      A                      A
 Frequencies --   3059.6427              3076.6029              3081.3550
 Red. masses --      1.0613                 1.0991                 1.0948
 Frc consts  --      5.8539                 6.1295                 6.1243
 IR Inten    --     32.3546                 4.7448                31.0148

                     91                     92                     93
                      A                      A                      A
 Frequencies --   3082.5558              3112.2861              3118.5944
 Red. masses --      1.0989                 1.1070                 1.1021
 Frc consts  --      6.1523                 6.3178                 6.3150
 IR Inten    --     34.0823                34.4743                43.4261

                     94                     95                     96
                      A                      A                      A
 Frequencies --   3131.0798              3147.5146              3187.8968
 Red. masses --      1.1005                 1.0995                 1.0882
 Frc consts  --      6.3566                 6.4176                 6.5161
 IR Inten    --     21.4796                21.4319                 7.9638

                     97                     98                     99
                      A                      A                      A
 Frequencies --   3191.9169              3198.9976              3203.8878
 Red. masses --      1.0855                 1.0953                 1.0901
 Frc consts  --      6.5160                 6.6042                 6.5926
 IR Inten    --      0.4232                 0.9042                17.7674

                    100                    101                    102
                      A                      A                      A
 Frequencies --   3214.7175              3225.9867              3596.9018
 Red. masses --      1.0948                 1.0942                 1.0751
 Frc consts  --      6.6661                 6.7093                 8.1954
 IR Inten    --     23.2647                 7.1355                52.0899

 - Thermochemistry -
 -------------------
 Temperature   298.150 Kelvin.  Pressure   1.00000 Atm.
 Atom     1 has atomic number  6 and mass  12.00000

 Molecular mass:   233.14158 amu.
 Principal axes and moments of inertia in atomic units:
                           1         2         3
     Eigenvalues --  2817.661856029.524037408.17428
           X            0.99974   0.02261   0.00095
           Y           -0.02260   0.99967  -0.01226
           Z           -0.00122   0.01224   0.99992
 This molecule is an asymmetric top.
 Rotational symmetry number  1.
 Warning -- assumption of classical behavior for rotation
           may cause significant error
 Rotational temperatures (Kelvin)      0.03074     0.01436     0.01169
 Rotational constants (GHZ):           0.64051     0.29932     0.24361
 Zero-point vibrational energy     807945.7 (Joules/Mol)
                                  193.10365 (Kcal/Mol)
 Warning -- explicit consideration of  27 degrees of freedom as
           vibrations may cause significant error
 Vibrational temperatures:     24.02    33.90    60.30    77.03    97.22
          (Kelvin)            145.75   155.81   163.19   208.16   242.56
                              274.71   315.42   333.66   375.37   408.21
                              445.91   467.15   532.15   577.24   595.95
                              649.48   676.71   680.68   742.03   794.23
                              855.68   863.37   925.18   948.28  1042.79
                             1084.81  1095.50  1120.41  1172.31  1229.39
                             1242.18  1257.51  1263.65  1280.78  1339.25
                             1350.25  1390.47  1393.95  1416.28  1436.69
                             1469.85  1549.00  1554.79  1603.21  1613.90
                             1617.76  1640.36  1707.05  1717.86  1740.41
                             1776.44  1846.34  1881.96  1900.06  1904.39
                             1919.76  1967.94  2017.09  2039.32  2052.22
                             2073.84  2081.93  2084.39  2119.60  2154.45
                             2165.91  2168.28  2171.00  2187.18  2190.98
                             2196.22  2203.80  2217.37  2243.80  2369.10
                             2386.34  2472.70  2528.75  4361.57  4370.47
                             4371.16  4394.10  4402.14  4426.55  4433.38
                             4435.11  4477.89  4486.96  4504.93  4528.57
                             4586.67  4592.46  4602.64  4609.68  4625.26
                             4641.48  5175.14

 Zero-point correction=                           0.307730 (Hartree/Particle)
 Thermal correction to Energy=                    0.325687
 Thermal correction to Enthalpy=                  0.326631
 Thermal correction to Gibbs Free Energy=         0.259430
 Sum of electronic and zero-point Energies=           -749.889444
 Sum of electronic and thermal Energies=              -749.871487
 Sum of electronic and thermal Enthalpies=            -749.870543
 Sum of electronic and thermal Free Energies=         -749.937744

                     E (Thermal)             CV                S
                      KCal/Mol        Cal/Mol-Kelvin    Cal/Mol-Kelvin
 Total                  204.371             66.236            141.437
 Electronic               0.000              0.000              0.000
 Translational            0.889              2.981             42.241
 Rotational               0.889              2.981             33.198
 Vibrational            202.594             60.274             65.998
 Vibration     1          0.593              1.986              6.993
 Vibration     2          0.593              1.985              6.309
 Vibration     3          0.595              1.980              5.167
 Vibration     4          0.596              1.976              4.682
 Vibration     5          0.598              1.970              4.223
 Vibration     6          0.604              1.948              3.429
 Vibration     7          0.606              1.943              3.299
 Vibration     8          0.607              1.938              3.210
 Vibration     9          0.616              1.908              2.741
 Vibration    10          0.625              1.881              2.451
 Vibration    11          0.634              1.852              2.219
 Vibration    12          0.647              1.812              1.965
 Vibration    13          0.653              1.792              1.864
 Vibration    14          0.669              1.744              1.656
 Vibration    15          0.682              1.704              1.511
 Vibration    16          0.699              1.655              1.363
 Vibration    17          0.709              1.626              1.286
 Vibration    18          0.742              1.534              1.080
 Vibration    19          0.767              1.468              0.958
 Vibration    20          0.778              1.439              0.912
 Vibration    21          0.810              1.358              0.792
 Vibration    22          0.827              1.316              0.737
 Vibration    23          0.830              1.310              0.729
 Vibration    24          0.871              1.215              0.620
 Vibration    25          0.907              1.135              0.540
 Vibration    26          0.952              1.043              0.459
 Vibration    27          0.958              1.032              0.450

                           ! Non-Optimized Parameters !
 Normal termination of Gaussian 16 at Sun Dec 13 12:50:01 2020.

 ----------------------------------------------------------------------
 # B3LYP/6-311++G(d,p) empiricaldispersion=gd3bj scf=xqc pop=npa geom=c
 heck
 ----------------------------------------------------------------------

 --------------------------------------
 CID_60372274_JID_7421_Energie_neutraal
 --------------------------------------
 Structure from the checkpoint file:  "JID_7421.chk"
 Charge =  0 Multiplicity = 1

 SCF Done:  E(RB3LYP) =  -750.406768027     A.U. after   16 cycles
 Normal termination of Gaussian 16 at Sun Dec 13 12:57:16 2020.

 ----------------------------------------------------------------------
 # B3LYP/6-311++G(d,p) empiricaldispersion=gd3bj scf=xqc pop=npa geom=c
 heck
 ----------------------------------------------------------------------

 ------------------------------------
 CID_60372274_JID_7421_Energie_kation
 ------------------------------------
 Structure from the checkpoint file:  "JID_7421.chk"
 Charge =  1 Multiplicity = 2

 SCF Done:  E(UB3LYP) =  -750.123998839     A.U. after   24 cycles
 Normal termination of Gaussian 16 at Sun Dec 13 13:12:52 2020.
 Gaussian 16:  ES64L-G16RevA.03 25-Dec-2016

 ----------------------------------------------------------------------
 # B3LYP/6-311++G(d,p) empiricaldispersion=gd3bj scf=xqc pop=npa geom=c
 heck
 ----------------------------------------------------------------------

 -----------------------------------
 CID_60372274_JID_7421_Energie_anion
 -----------------------------------
 Structure from the checkpoint file:  "JID_7421.chk"
 Charge = -1 Multiplicity = 2

                         Standard orientation:
 ---------------------------------------------------------------------
 Center     Atomic      Atomic             Coordinates (Angstroms)
 Number     Number       Type             X           Y           Z
 ---------------------------------------------------------------------
      1          6           0       -1.464952   -1.996066    1.735921
      2          6           0       -2.554181   -2.529899    0.802507
      3          6           0       -3.322756   -1.436364    0.069005
      4          8           0       -2.464611   -0.719736   -0.835801
      5          6           0       -1.991177    0.513537   -0.464491
      6          6           0       -2.813213    1.542460   -0.009521
      7          6           0       -2.268095    2.790527    0.297841
      8          6           0       -0.905714    3.018380    0.110981
      9          6           0       -0.084460    2.002450   -0.377540
     10          6           0       -0.608205    0.731155   -0.638263
     11          7           0        0.158588   -0.342721   -1.116603
     12          6           0        1.470654   -0.718523   -0.860330
     13          8           0        1.955543   -1.641488   -1.511798
     14          6           0        2.155722   -0.015749    0.248111
     15          6           0        3.486788    0.031732    0.447519
     16          6           0        4.037577    0.741433    1.656646
     17          6           0        4.519588   -0.570998   -0.464080
     18          1           0       -1.879431   -1.291522    2.467198
     19          1           0       -0.684914   -1.477642    1.172118
     20          1           0       -0.989536   -2.813802    2.287524
     21          1           0       -2.114205   -3.206785    0.059659
     22          1           0       -3.284860   -3.120183    1.373157
     23          1           0       -4.120540   -1.866266   -0.544905
     24          1           0       -3.776067   -0.739341    0.782939
     25          1           0       -3.879360    1.367470    0.094128
     26          1           0       -2.913980    3.585123    0.658882
     27          1           0       -0.479810    3.994813    0.320938
     28          1           0        0.967650    2.188132   -0.560812
     29          1           0       -0.339271   -1.016091   -1.686492
     30          1           0        1.509621    0.478718    0.967715
     31          1           0        4.653862    0.057816    2.255963
     32          1           0        4.695971    1.566962    1.354249
     33          1           0        3.247813    1.145162    2.296750
     34          1           0        4.080926   -0.974446   -1.374397
     35          1           0        5.286391    0.176073   -0.708524
     36          1           0        5.036723   -1.389798    0.055090
 ---------------------------------------------------------------------

 SCF Done:  E(UB3LYP) =  -750.400387048     A.U. after   33 cycles
 SCF Done:  E(UB3LYP) =  -750.400387215     a.u. after    2 cycles

 The electronic state is 2-A.
 Alpha  occ. eigenvalues --  -19.04230 -18.94532 -14.21564 -10.12891 -10.12599
 Alpha  occ. eigenvalues --  -10.12261 -10.10312 -10.07363 -10.06796 -10.06615
 Alpha  occ. eigenvalues --  -10.06343 -10.06312 -10.06086 -10.05974 -10.05558
 Alpha  occ. eigenvalues --  -10.04497 -10.03466  -0.95884  -0.90134  -0.80966
 Alpha  occ. eigenvalues --   -0.73804  -0.69562  -0.69134  -0.63993  -0.63479
 Alpha  occ. eigenvalues --   -0.59112  -0.58682  -0.58119  -0.52543  -0.50979
 Alpha  occ. eigenvalues --   -0.48260  -0.47023  -0.44214  -0.41033  -0.39604
 Alpha  occ. eigenvalues --   -0.38174  -0.37301  -0.36373  -0.34955  -0.33753
 Alpha  occ. eigenvalues --   -0.33233  -0.33067  -0.32621  -0.32219  -0.30133
 Alpha  occ. eigenvalues --   -0.29444  -0.28351  -0.27825  -0.27640  -0.26798
 Alpha  occ. eigenvalues --   -0.25982  -0.25786  -0.25058  -0.24959  -0.24778
 Alpha  occ. eigenvalues --   -0.23540  -0.23365  -0.19667  -0.18585  -0.13821
 Alpha  occ. eigenvalues --   -0.13496  -0.12262  -0.10366   0.04544
 Alpha virt. eigenvalues --    0.06021   0.07002   0.07362   0.08398   0.08754
 Alpha virt. eigenvalues --    0.08946   0.09619   0.09916   0.10180   0.10542
 Alpha virt. eigenvalues --    0.11027   0.11459   0.11935   0.12556   0.12726

  Beta  occ. eigenvalues --  -19.04220 -18.94293 -14.21598 -10.12676 -10.12586
  Beta  occ. eigenvalues --  -10.12236 -10.10252 -10.07349 -10.06789 -10.06621
  Beta  occ. eigenvalues --  -10.06304 -10.06216 -10.06113 -10.05971 -10.05201
  Beta  occ. eigenvalues --  -10.04522 -10.03477  -0.95860  -0.89735  -0.80834
  Beta  occ. eigenvalues --   -0.73710  -0.69187  -0.69031  -0.63918  -0.63335
  Beta  occ. eigenvalues --   -0.58905  -0.58641  -0.58063  -0.52422  -0.50866
  Beta  occ. eigenvalues --   -0.48166  -0.46754  -0.44145  -0.40903  -0.39406
  Beta  occ. eigenvalues --   -0.38117  -0.37143  -0.36291  -0.34839  -0.33708
  Beta  occ. eigenvalues --   -0.33163  -0.32905  -0.32265  -0.32146  -0.29925
  Beta  occ. eigenvalues --   -0.29233  -0.28111  -0.27725  -0.27457  -0.26660
  Beta  occ. eigenvalues --   -0.25878  -0.25464  -0.24896  -0.24834  -0.24697
  Beta  occ. eigenvalues --   -0.23396  -0.23286  -0.19571  -0.18048  -0.13453
  Beta  occ. eigenvalues --   -0.12829  -0.11741  -0.09989
  Beta virt. eigenvalues --    0.06695   0.07180   0.07570   0.08530   0.08703
  Beta virt. eigenvalues --    0.09041   0.09218   0.09579   0.10079   0.10460
  Beta virt. eigenvalues --    0.10770   0.11370   0.11747   0.12202   0.12593

 Mulliken charges and spin densities:
               1          2
     1  C   -0.224682  -0.201736
     2  C   -0.203362  -0.079373
     3  C    0.416350  -0.593594
     4  O   -0.103030   0.021274
     5  C   -0.506550   0.332392
     6  C    0.636819  -0.555184
     7  C   -0.006792  -0.297315
     8  C   -0.121668  -0.098052
     9  C   -0.125969  -0.003610
    10  C   -0.105207   0.169519
    11  N   -0.090571  -0.028641
    12  C   -0.336201   0.075694
    13  O   -0.371808   0.087487
    14  C   -0.069048   0.049883
    15  C    0.607081   0.225658
    16  C   -0.555307  -0.089062
    17  C   -0.665173  -0.027386
    18  H    0.083131   0.051917
    19  H    0.194237  -0.067632
    20  H    0.112540   0.019638
    21  H    0.176448  -0.021995
    22  H   -0.363523   0.500293
    23  H   -0.244839   0.415476
    24  H   -0.059422   0.159106
    25  H   -0.247465   0.405945
    26  H   -0.123500   0.262710
    27  H    0.038187   0.108707
    28  H    0.183251   0.016125
    29  H    0.310583   0.018105
    30  H    0.064677  -0.003094
    31  H    0.114393   0.009581
    32  H    0.048463   0.081984
    33  H    0.133069   0.006912
    34  H    0.228207  -0.005499
    35  H    0.067968   0.039539
    36  H    0.108714   0.014227
 Sum of Mulliken charges =  -1.00000   1.00000

 Dipole moment (field-independent basis, Debye):
    X=              1.5261    Y=              1.7292    Z=              1.3331  Tot=              2.6639
 Quadrupole moment (field-independent basis, Debye-Ang):
   XX=           -171.1171   YY=           -139.5784   ZZ=           -127.2953
   XY=              2.1492   XZ=              8.4063   YZ=             -2.8104

 Summary of Natural Population Analysis:

                                       Natural Population
                Natural  -----------------------------------------------
    Atom  No    Charge         Core      Valence    Rydberg      Total
 -----------------------------------------------------------------------
      C    1   -0.29100      0.99966     2.28576    0.00559     3.29100
      C    2   -0.20221      0.99964     2.19427    0.00830     3.20221
      C    3   -0.00526      0.99955     1.99318    0.01253     3.00526
      O    4   -0.29440      0.99986     3.28500    0.00954     4.29440
      C    5    0.15053      0.99934     1.83714    0.01300     2.84947
      C    6   -0.13148      0.99952     2.12249    0.00947     3.13148
      C    7   -0.09603      0.99958     2.08593    0.01052     3.09603
      C    8   -0.11286      0.99957     2.10389    0.00940     3.11286
      C    9   -0.10637      0.99954     2.09836    0.00847     3.10637
      C   10    0.06944      0.99944     1.91981    0.01131     2.93056
      N   11   -0.31799      0.99965     2.80829    0.01006     3.81799
      C   12    0.35825      0.99965     1.62205    0.02005     2.64175
      O   13   -0.31052      0.99988     3.30508    0.00556     4.31052
      C   14   -0.17757      0.99942     2.17010    0.00805     3.17757
      C   15    0.08746      0.99953     1.90573    0.00727     2.91254
      C   16   -0.29772      0.99964     2.29367    0.00441     3.29772
      C   17   -0.30833      0.99963     2.30388    0.00482     3.30833
      H   18    0.09503      0.00000     0.40411    0.00086     0.40497
      H   19    0.10769      0.00000     0.39073    0.00158     0.39231
      H   20    0.09729      0.00000     0.40206    0.00066     0.40271
      H   21    0.09787      0.00000     0.40103    0.00110     0.40213
      H   22    0.09664      0.00000     0.40174    0.00162     0.40336
      H   23    0.08868      0.00000     0.41007    0.00125     0.41132
      H   24    0.08478      0.00000     0.41352    0.00170     0.41522
      H   25    0.10266      0.00000     0.39616    0.00118     0.39734
      H   26    0.09704      0.00000     0.40209    0.00087     0.40296
      H   27    0.09738      0.00000     0.40180    0.00082     0.40262
      H   28    0.10914      0.00000     0.38982    0.00104     0.39086
      H   29    0.20096      0.00000     0.29628    0.00277     0.29904
      H   30    0.09848      0.00000     0.40034    0.00118     0.40152
      H   31    0.09828      0.00000     0.40052    0.00120     0.40172
      H   32    0.09911      0.00000     0.39961    0.00128     0.40089
      H   33    0.09873      0.00000     0.40047    0.00079     0.40127
      H   34    0.12219      0.00000     0.37689    0.00092     0.37781
      H   35    0.09390      0.00000     0.40512    0.00099     0.40610
      H   36    0.10019      0.00000     0.39874    0.00107     0.39981
 =======================================================================
   * Total *    0.00000     16.99306    45.82571    0.18123    63.00000

 Normal termination of Gaussian 16 at Sun Dec 13 13:51:49 2020.
