 Gaussian 16, Revision A.03,

 -----------------------------------------------------------
 # opt freq B3LYP/6-31G(d) empiricaldispersion=gd3bj scf=xqc
 -----------------------------------------------------------

 -------------------------------
 CID_130985022_JID_3502_neutraal
 -------------------------------
 Symbolic Z-matrix:
 Charge =  0 Multiplicity = 1

 SCF Done:  E(RB3LYP) =  -587.580517759     A.U. after   15 cycles
 SCF Done:  E(RB3LYP) =  -587.590236769     A.U. after   12 cycles
 SCF Done:  E(RB3LYP) =  -587.592208552     A.U. after   12 cycles
 SCF Done:  E(RB3LYP) =  -587.592901105     A.U. after   13 cycles
 SCF Done:  E(RB3LYP) =  -587.593565176     A.U. after   12 cycles
 SCF Done:  E(RB3LYP) =  -587.593572503     A.U. after   12 cycles
 SCF Done:  E(RB3LYP) =  -587.593869164     A.U. after   12 cycles
 SCF Done:  E(RB3LYP) =  -587.593876545     A.U. after   10 cycles
 SCF Done:  E(RB3LYP) =  -587.593911069     A.U. after   10 cycles
 SCF Done:  E(RB3LYP) =  -587.593916625     A.U. after    9 cycles
 SCF Done:  E(RB3LYP) =  -587.594636330     A.U. after   11 cycles
 SCF Done:  E(RB3LYP) =  -587.594551361     A.U. after   11 cycles
 SCF Done:  E(RB3LYP) =  -587.594670879     A.U. after   11 cycles
 SCF Done:  E(RB3LYP) =  -587.594677431     A.U. after   10 cycles
 SCF Done:  E(RB3LYP) =  -587.594681402     A.U. after    9 cycles
 SCF Done:  E(RB3LYP) =  -587.594681439     A.U. after    7 cycles
 Optimization completed.
    -- Stationary point found.

 1\1\GINC-NODE201\FOpt\RB3LYP\6-31G(d)\C8H15N5\VSC10255\09-Dec-2020\0\\
 # opt freq B3LYP/6-31G(d) empiricaldispersion=gd3bj scf=xqc\\CID_13098
 5022_JID_3502_neutraal\\0,1\C,1.9362455388,-0.3028529471,-0.2050487004
 \N,0.5543998205,0.0309093717,0.0838342927\C,-0.1833722837,1.0879119281
 ,-0.3453855266\C,-1.4156431974,0.9173440685,0.248834319\N,-1.358496699
 4,-0.2171724063,1.0082467756\N,-0.170917167,-0.7533505905,0.9108281861
 \C,-2.6838206752,1.7052991004,0.103380639\C,-3.5537863297,1.2063495881
 ,-1.0963402769\N,-3.9008148161,-0.1857314955,-1.2231160133\C,-2.987439

 Normal termination of Gaussian 16 at Wed Dec  9 23:45:23 2020.

 --------------------------------------------------------------------
 #N Geom=AllCheck Guess=TCheck SCRF=Check GenChk RB3LYP/6-31G(d) Freq
 --------------------------------------------------------------------

 Structure from the checkpoint file:  "JID_3502.chk"
 -------------------------------
 CID_130985022_JID_3502_neutraal
 -------------------------------
 Charge =  0 Multiplicity = 1

 SCF Done:  E(RB3LYP) =  -587.594681439     A.U. after    1 cycles

  Exact polarizability: 128.400  11.364 103.798  -8.782   6.200  99.164
 Approx polarizability: 172.906  21.086 149.044 -16.273  16.083 167.029

                      1                      2                      3
                      A                      A                      A
 Frequencies --     40.0350                57.1385                80.2577
 Red. masses --      4.0454                 3.1207                 1.2377
 Frc consts  --      0.0038                 0.0060                 0.0047
 IR Inten    --      3.9465                 4.0432                 0.1616

                      4                      5                      6
                      A                      A                      A
 Frequencies --     91.0216               111.7417               137.6497
 Red. masses --      2.6992                 2.7149                 2.6176
 Frc consts  --      0.0132                 0.0200                 0.0292
 IR Inten    --      1.9228                 3.0544                 5.7297

                      7                      8                      9
                      A                      A                      A
 Frequencies --    176.7992               188.0634               240.0226
 Red. masses --      2.6591                 2.9746                 1.8545
 Frc consts  --      0.0490                 0.0620                 0.0629
 IR Inten    --      9.8910                 7.3237                21.0292

                     10                     11                     12
                      A                      A                      A
 Frequencies --    252.1107               282.2565               309.8312
 Red. masses --      1.7198                 3.2202                 4.4123
 Frc consts  --      0.0644                 0.1512                 0.2496
 IR Inten    --     19.0090                 1.5653                10.9064

                     13                     14                     15
                      A                      A                      A
 Frequencies --    352.4920               392.7401               471.3972
 Red. masses --      2.8368                 2.3677                 4.2196
 Frc consts  --      0.2077                 0.2152                 0.5524
 IR Inten    --      4.3104                 2.9604                 8.0802

                     16                     17                     18
                      A                      A                      A
 Frequencies --    568.5176               619.9827               659.6456
 Red. masses --      3.2103                 4.0475                 4.8898
 Frc consts  --      0.6113                 0.9166                 1.2536
 IR Inten    --      8.2912                 1.4397                 1.4732

                     19                     20                     21
                      A                      A                      A
 Frequencies --    722.6418               733.6958               760.7133
 Red. masses --      4.4213                 3.9812                 1.3001
 Frc consts  --      1.3603                 1.2627                 0.4433
 IR Inten    --      3.3400                12.6997                 0.2992

                     22                     23                     24
                      A                      A                      A
 Frequencies --    778.3392               830.5713               852.8758
 Red. masses --      1.5380                 2.5382                 2.7480
 Frc consts  --      0.5490                 1.0316                 1.1777
 IR Inten    --      9.2786                53.8915                47.1401

                     25                     26                     27
                      A                      A                      A
 Frequencies --    877.6727               921.1233               929.3803
 Red. masses --      1.2328                 2.2728                 1.8291
 Frc consts  --      0.5595                 1.1362                 0.9309
 IR Inten    --     10.6370                49.2693                80.9606

                     28                     29                     30
                      A                      A                      A
 Frequencies --    950.3365               965.9784              1003.0474
 Red. masses --      2.3208                 2.4574                 2.9591
 Frc consts  --      1.2350                 1.3510                 1.7541
 IR Inten    --     23.7324                11.1563                 2.0937

                     31                     32                     33
                      A                      A                      A
 Frequencies --   1033.1241              1059.9646              1074.9803
 Red. masses --      3.2741                 4.0878                 2.7752
 Frc consts  --      2.0589                 2.7060                 1.8895
 IR Inten    --     21.7511                41.9848                 7.6913

                     34                     35                     36
                      A                      A                      A
 Frequencies --   1081.8740              1145.2026              1151.8110
 Red. masses --      2.4062                 1.5617                 1.2660
 Frc consts  --      1.6593                 1.2067                 0.9896
 IR Inten    --      2.3963                 9.1627                 1.6030

                     37                     38                     39
                      A                      A                      A
 Frequencies --   1159.6642              1160.5740              1177.8858
 Red. masses --      1.3079                 1.6573                 1.4199
 Frc consts  --      1.0363                 1.3152                 1.1607
 IR Inten    --      0.2008                 2.5657                 4.2527

                     40                     41                     42
                      A                      A                      A
 Frequencies --   1199.3489              1219.3698              1238.9844
 Red. masses --      2.2010                 1.3139                 1.3137
 Frc consts  --      1.8654                 1.1510                 1.1882
 IR Inten    --      1.4667                 0.3974                 1.1674

                     43                     44                     45
                      A                      A                      A
 Frequencies --   1265.2366              1278.5985              1296.1028
 Red. masses --      3.2891                 1.4007                 2.3410
 Frc consts  --      3.1022                 1.3492                 2.3170
 IR Inten    --     35.9761                 6.4092                17.1191

                     46                     47                     48
                      A                      A                      A
 Frequencies --   1299.1848              1310.6988              1335.0544
 Red. masses --      1.8775                 2.4714                 1.4781
 Frc consts  --      1.8671                 2.5015                 1.5522
 IR Inten    --     17.6733                 2.7261                 3.1224

                     49                     50                     51
                      A                      A                      A
 Frequencies --   1366.8840              1371.5779              1387.7623
 Red. masses --      1.6389                 1.4328                 3.0870
 Frc consts  --      1.8041                 1.5881                 3.5028
 IR Inten    --     22.4827                 2.4928                27.5502

                     52                     53                     54
                      A                      A                      A
 Frequencies --   1413.5957              1436.9786              1463.0550
 Red. masses --      1.2955                 1.9144                 1.3894
 Frc consts  --      1.5252                 2.3291                 1.7523
 IR Inten    --     24.4301                27.6600                 2.7003

                     55                     56                     57
                      A                      A                      A
 Frequencies --   1490.4264              1503.4340              1513.1720
 Red. masses --      1.1490                 2.2394                 1.0437
 Frc consts  --      1.5038                 2.9823                 1.4080
 IR Inten    --      4.1091                 4.7443                 9.4226

                     58                     59                     60
                      A                      A                      A
 Frequencies --   1513.8759              1536.4394              1538.7986
 Red. masses --      1.1027                 1.1796                 1.0829
 Frc consts  --      1.4889                 1.6407                 1.5108
 IR Inten    --      0.5897                14.0040                 3.6231

                     61                     62                     63
                      A                      A                      A
 Frequencies --   1568.7001              1605.8920              1692.6357
 Red. masses --      1.1203                 5.6244                 1.0827
 Frc consts  --      1.6243                 8.5459                 1.8276
 IR Inten    --      2.0411                 7.6624                44.1082

                     64                     65                     66
                      A                      A                      A
 Frequencies --   2981.8922              2995.5934              3022.7873
 Red. masses --      1.0710                 1.0802                 1.0555
 Frc consts  --      5.6106                 5.7113                 5.6821
 IR Inten    --     29.2201               112.2431               127.0341

                     67                     68                     69
                      A                      A                      A
 Frequencies --   3031.4561              3050.4711              3060.1978
 Red. masses --      1.0636                 1.0956                 1.1061
 Frc consts  --      5.7590                 6.0066                 6.1032
 IR Inten    --     36.8104                45.0509                44.7853

                     70                     71                     72
                      A                      A                      A
 Frequencies --   3072.8172              3078.6391              3100.8184
 Red. masses --      1.0340                 1.1021                 1.0604
 Frc consts  --      5.7522                 6.1543                 6.0074
 IR Inten    --     41.4012                29.7786                47.2299

                     73                     74                     75
                      A                      A                      A
 Frequencies --   3138.7546              3157.9246              3186.0862
 Red. masses --      1.1066                 1.1093                 1.1025
 Frc consts  --      6.4234                 6.5179                 6.5936
 IR Inten    --     14.3465                30.4082                 1.2740

                     76                     77                     78
                      A                      A                      A
 Frequencies --   3294.5860              3484.3147              3578.4749
 Red. masses --      1.0991                 1.0502                 1.0921
 Frc consts  --      7.0290                 7.5121                 8.2398
 IR Inten    --      0.3040                 4.6134                 2.2507

 - Thermochemistry -
 -------------------
 Temperature   298.150 Kelvin.  Pressure   1.00000 Atm.
 Atom     1 has atomic number  6 and mass  12.00000

 Molecular mass:   181.13275 amu.
 Principal axes and moments of inertia in atomic units:
                           1         2         3
     Eigenvalues --  1459.677302996.509393618.93659
           X            0.99981   0.00925  -0.01740
           Y           -0.00910   0.99992   0.00864
           Z            0.01747  -0.00848   0.99981
 This molecule is an asymmetric top.
 Rotational symmetry number  1.
 Warning -- assumption of classical behavior for rotation
           may cause significant error
 Rotational temperatures (Kelvin)      0.05934     0.02890     0.02393
 Rotational constants (GHZ):           1.23640     0.60228     0.49869
 Zero-point vibrational energy     636914.4 (Joules/Mol)
                                  152.22621 (Kcal/Mol)
 Warning -- explicit consideration of  17 degrees of freedom as
           vibrations may cause significant error
 Vibrational temperatures:     57.60    82.21   115.47   130.96   160.77
          (Kelvin)            198.05   254.37   270.58   345.34   362.73
                              406.10   445.78   507.16   565.07   678.24
                              817.97   892.02   949.08  1039.72  1055.62
                             1094.50  1119.86  1195.01  1227.10  1262.78
                             1325.29  1337.17  1367.32  1389.83  1443.16
                             1486.44  1525.05  1546.66  1556.58  1647.69
                             1657.20  1668.50  1669.81  1694.71  1725.60
                             1754.40  1782.62  1820.39  1839.62  1864.80
                             1869.24  1885.80  1920.85  1966.64  1973.39
                             1996.68  2033.85  2067.49  2105.01  2144.39
                             2163.11  2177.12  2178.13  2210.59  2213.99
                             2257.01  2310.52  2435.33  4290.28  4309.99
                             4349.12  4361.59  4388.95  4402.94  4421.10
                             4429.47  4461.39  4515.97  4543.55  4584.07
                             4740.17  5013.15  5148.63

 Zero-point correction=                           0.242588 (Hartree/Particle)
 Thermal correction to Energy=                    0.255594
 Thermal correction to Enthalpy=                  0.256538
 Thermal correction to Gibbs Free Energy=         0.202228
 Sum of electronic and zero-point Energies=           -587.352094
 Sum of electronic and thermal Energies=              -587.339088
 Sum of electronic and thermal Enthalpies=            -587.338144
 Sum of electronic and thermal Free Energies=         -587.392453

                     E (Thermal)             CV                S
                      KCal/Mol        Cal/Mol-Kelvin    Cal/Mol-Kelvin
 Total                  160.387             47.600            114.304
 Electronic               0.000              0.000              0.000
 Translational            0.889              2.981             41.489
 Rotational               0.889              2.981             31.138
 Vibrational            158.610             41.638             41.677
 Vibration     1          0.594              1.981              5.257
 Vibration     2          0.596              1.975              4.554
 Vibration     3          0.600              1.963              3.885
 Vibration     4          0.602              1.956              3.638
 Vibration     5          0.607              1.940              3.238
 Vibration     6          0.614              1.916              2.836
 Vibration     7          0.628              1.871              2.362
 Vibration     8          0.633              1.856              2.247
 Vibration     9          0.657              1.779              1.803
 Vibration    10          0.664              1.759              1.716
 Vibration    11          0.681              1.707              1.520
 Vibration    12          0.699              1.655              1.363
 Vibration    13          0.729              1.570              1.155
 Vibration    14          0.760              1.486              0.990
 Vibration    15          0.828              1.314              0.734
 Vibration    16          0.925              1.099              0.507
 Vibration    17          0.980              0.990              0.417

 Optimization completed.
    -- Stationary point found.

 1\1\GINC-NODE201\Freq\RB3LYP\6-31G(d)\C8H15N5\VSC10255\09-Dec-2020\0\\
 #N Geom=AllCheck Guess=TCheck SCRF=Check GenChk RB3LYP/6-31G(d) Freq\\
 CID_130985022_JID_3502_neutraal\\0,1\C,1.9362455388,-0.3028529471,-0.2
 050487004\N,0.5543998205,0.0309093717,0.0838342927\C,-0.1833722837,1.0
 879119281,-0.3453855266\C,-1.4156431974,0.9173440685,0.248834319\N,-1.
 3584966994,-0.2171724063,1.0082467756\N,-0.170917167,-0.7533505905,0.9
 108281861\C,-2.6838206752,1.7052991004,0.103380639\C,-3.5537863297,1.2
 063495881,-1.0963402769\N,-3.9008148161,-0.1857314955,-1.2231160133\C,

 Normal termination of Gaussian 16 at Wed Dec  9 23:52:48 2020.

 ----------------------------------------------------------------------
 # B3LYP/6-311++G(d,p) empiricaldispersion=gd3bj scf=xqc pop=npa geom=c
 heck
 ----------------------------------------------------------------------

 ---------------------------------------
 CID_130985022_JID_3502_Energie_neutraal
 ---------------------------------------
 Structure from the checkpoint file:  "JID_3502.chk"
 Charge =  0 Multiplicity = 1

 SCF Done:  E(RB3LYP) =  -587.759687719     A.U. after   14 cycles
 Normal termination of Gaussian 16 at Wed Dec  9 23:55:57 2020.

 ----------------------------------------------------------------------
 # B3LYP/6-311++G(d,p) empiricaldispersion=gd3bj scf=xqc pop=npa geom=c
 heck
 ----------------------------------------------------------------------

 -------------------------------------
 CID_130985022_JID_3502_Energie_kation
 -------------------------------------
 Structure from the checkpoint file:  "JID_3502.chk"
 Charge =  1 Multiplicity = 2

 SCF Done:  E(UB3LYP) =  -587.493739538     A.U. after   21 cycles
 Normal termination of Gaussian 16 at Thu Dec 10 00:02:40 2020.
 Gaussian 16:  ES64L-G16RevA.03 25-Dec-2016

 ------------------------------------
 CID_130985022_JID_3502_Energie_anion
 ------------------------------------
 Structure from the checkpoint file:  "JID_3502.chk"
 Charge = -1 Multiplicity = 2

                         Standard orientation:
 ---------------------------------------------------------------------
 Center     Atomic      Atomic             Coordinates (Angstroms)
 Number     Number       Type             X           Y           Z
 ---------------------------------------------------------------------
      1          6           0       -3.813413   -0.851119    0.307277
      2          7           0       -2.521749   -0.252012    0.029745
      3          6           0       -1.819108    0.654197    0.758355
      4          6           0       -0.677989    0.885757    0.020175
      5          7           0       -0.752029    0.123502   -1.111454
      6          7           0       -1.863634   -0.563264   -1.108267
      7          6           0        0.527939    1.722790    0.329074
      8          6           0        1.603574    0.930176    1.141412
      9          7           0        2.079850   -0.347606    0.677921
     10          6           0        1.339763   -1.611509    0.824868
     11          6           0        2.090733   -2.143992   -0.421587
     12          6           0        2.488421   -0.673278   -0.700379
     13          7           0        1.018393    2.341895   -0.908817
     14          1           0       -4.022690   -1.548867   -0.503807
     15          1           0       -3.787859   -1.389600    1.258921
     16          1           0       -4.592917   -0.084373    0.342032
     17          1           0       -2.172331    1.042690    1.701129
     18          1           0        0.206801    2.531383    1.004703
     19          1           0        2.464845    1.610424    1.247802
     20          1           0        1.212723    0.771601    2.156320
     21          1           0        1.518424   -2.122669    1.781083
     22          1           0        0.256755   -1.544423    0.657503
     23          1           0        1.475673   -2.625849   -1.183499
     24          1           0        2.941384   -2.782072   -0.170650
     25          1           0        1.861306   -0.232579   -1.483674
     26          1           0        3.543925   -0.460980   -0.919790
     27          1           0        2.009756    2.555066   -0.819236
     28          1           0        0.918862    1.684505   -1.677909
 ---------------------------------------------------------------------

 SCF Done:  E(UB3LYP) =  -587.749244064     A.U. after   32 cycles

 The electronic state is 2-A.
 Alpha  occ. eigenvalues --  -14.30525 -14.26910 -14.23215 -14.20417 -14.19898
 Alpha  occ. eigenvalues --  -10.11277 -10.11143 -10.11062 -10.10128 -10.10059
 Alpha  occ. eigenvalues --  -10.09950 -10.09518 -10.07777  -0.99859  -0.84629
 Alpha  occ. eigenvalues --   -0.82018  -0.79357  -0.71053  -0.67769  -0.63724
 Alpha  occ. eigenvalues --   -0.59789  -0.58231  -0.54294  -0.50732  -0.48591
 Alpha  occ. eigenvalues --   -0.45287  -0.43324  -0.40302  -0.39930  -0.38728
 Alpha  occ. eigenvalues --   -0.38336  -0.36882  -0.34991  -0.34620  -0.31945
 Alpha  occ. eigenvalues --   -0.31256  -0.30911  -0.29796  -0.28847  -0.26712
 Alpha  occ. eigenvalues --   -0.25989  -0.24433  -0.23263  -0.22883  -0.19160
 Alpha  occ. eigenvalues --   -0.17980  -0.16358  -0.15762  -0.10623   0.04391
 Alpha virt. eigenvalues --    0.06429   0.07310   0.07650   0.08001   0.09067
 Alpha virt. eigenvalues --    0.09645   0.09946   0.10546   0.10981   0.11450
 Alpha virt. eigenvalues --    0.11942   0.12299   0.13053   0.13391   0.14146

  Beta  occ. eigenvalues --  -14.30525 -14.26900 -14.23211 -14.20418 -14.19893
  Beta  occ. eigenvalues --  -10.11269 -10.11107 -10.10984 -10.10129 -10.10044
  Beta  occ. eigenvalues --  -10.09946 -10.09506 -10.07774  -0.99850  -0.84624
  Beta  occ. eigenvalues --   -0.82004  -0.79344  -0.71031  -0.67751  -0.63643
  Beta  occ. eigenvalues --   -0.59769  -0.58213  -0.54267  -0.50681  -0.48547
  Beta  occ. eigenvalues --   -0.45262  -0.43269  -0.40251  -0.39908  -0.38702
  Beta  occ. eigenvalues --   -0.38312  -0.36834  -0.34963  -0.34583  -0.31871
  Beta  occ. eigenvalues --   -0.31214  -0.30885  -0.29779  -0.28828  -0.26705
  Beta  occ. eigenvalues --   -0.25973  -0.24415  -0.23250  -0.22865  -0.19137
  Beta  occ. eigenvalues --   -0.17971  -0.16345  -0.15751  -0.10614
  Beta virt. eigenvalues --    0.06421   0.07526   0.07749   0.08027   0.08413
  Beta virt. eigenvalues --    0.09629   0.09977   0.10153   0.10872   0.11742
  Beta virt. eigenvalues --    0.11932   0.12345   0.12796   0.13435   0.13486

 Mulliken charges and spin densities:
               1          2
     1  C    2.206053  -2.480563
     2  N   -0.051455   0.245723
     3  C    1.313325  -1.720375
     4  C   -1.552836   1.258636
     5  N   -0.282262  -0.001596
     6  N   -0.039781   0.131195
     7  C    0.698745  -0.544603
     8  C    0.038650  -0.638530
     9  N   -0.014109   0.046268
    10  C   -0.045282  -0.189491
    11  C   -0.149530  -0.201578
    12  C   -0.270739   0.051441
    13  N   -0.312647  -0.016276
    14  H   -0.211274   0.384632
    15  H   -0.864252   1.061130
    16  H   -0.696083   0.880607
    17  H   -1.227471   1.431200
    18  H   -0.155861   0.396233
    19  H    0.025600   0.146871
    20  H   -0.148313   0.298981
    21  H   -0.216292   0.382583
    22  H    0.213186  -0.129764
    23  H    0.079998   0.081218
    24  H    0.140610  -0.026309
    25  H    0.139182  -0.068760
    26  H   -0.009470   0.151198
    27  H    0.191895   0.006361
    28  H    0.200415   0.063567
 Sum of Mulliken charges =  -1.00000   1.00000

 Dipole moment (field-independent basis, Debye):
    X=              9.6524    Y=             -0.4246    Z=             -4.9594  Tot=             10.8602
 Quadrupole moment (field-independent basis, Debye-Ang):
   XX=           -154.2276   YY=           -117.1193   ZZ=           -123.7537
   XY=             -3.1559   XZ=             11.8229   YZ=              1.1170

 Summary of Natural Population Analysis:

                                       Natural Population
                Natural  -----------------------------------------------
    Atom  No    Charge         Core      Valence    Rydberg      Total
 -----------------------------------------------------------------------
      C    1   -0.17579      0.99963     2.16760    0.00857     3.17579
      N    2   -0.09795      0.99968     2.58443    0.01385     3.59795
      C    3   -0.01314      0.99946     2.00167    0.01201     3.01314
      C    4    0.04120      0.99954     1.94217    0.01709     2.95880
      N    5   -0.15848      0.99970     2.64477    0.01401     3.65848
      N    6   -0.04469      0.99978     2.52904    0.01587     3.54469
      C    7   -0.03467      0.99956     2.02108    0.01402     3.03467
      C    8   -0.08023      0.99959     2.06696    0.01368     3.08023
      N    9   -0.28872      0.99972     2.77450    0.01449     3.78872
      C   10   -0.07404      0.99965     2.06377    0.01062     3.07404
      C   11   -0.19569      0.99963     2.18923    0.00683     3.19569
      C   12   -0.07798      0.99965     2.06968    0.00865     3.07798
      N   13   -0.41739      0.99977     2.90893    0.00869     3.91739
      H   14    0.10898      0.00000     0.38900    0.00203     0.39102
      H   15    0.10864      0.00000     0.38514    0.00622     0.39136
      H   16    0.10572      0.00000     0.39053    0.00375     0.39428
      H   17    0.11795      0.00000     0.37652    0.00553     0.38205
      H   18    0.09540      0.00000     0.40256    0.00204     0.40460
      H   19    0.08782      0.00000     0.41101    0.00117     0.41218
      H   20    0.10117      0.00000     0.39730    0.00153     0.39883
      H   21    0.08619      0.00000     0.41230    0.00151     0.41381
      H   22    0.08976      0.00000     0.40815    0.00209     0.41024
      H   23    0.09921      0.00000     0.39982    0.00097     0.40079
      H   24    0.09339      0.00000     0.40552    0.00109     0.40661
      H   25    0.08970      0.00000     0.40836    0.00194     0.41030
      H   26    0.08233      0.00000     0.41628    0.00139     0.41767
      H   27    0.16957      0.00000     0.32862    0.00181     0.33043
      H   28    0.18175      0.00000     0.31582    0.00243     0.31825
 =======================================================================
   * Total *   -0.00000     12.99536    35.81075    0.19389    49.00000

 Normal termination of Gaussian 16 at Thu Dec 10 00:12:35 2020.
