 Gaussian 16, Revision A.03,

 -----------------------------------------------------------
 # opt freq B3LYP/6-31G(d) empiricaldispersion=gd3bj scf=xqc
 -----------------------------------------------------------

 -------------------------------
 CID_141113391_JID_3889_neutraal
 -------------------------------
 Symbolic Z-matrix:
 Charge =  0 Multiplicity = 1

 SCF Done:  E(RB3LYP) =  -879.928411272     A.U. after   14 cycles
 SCF Done:  E(RB3LYP) =  -879.935516142     A.U. after   12 cycles
 SCF Done:  E(RB3LYP) =  -879.938870949     A.U. after   13 cycles
 SCF Done:  E(RB3LYP) =  -879.939838706     A.U. after   12 cycles
 SCF Done:  E(RB3LYP) =  -879.940063964     A.U. after   12 cycles
 SCF Done:  E(RB3LYP) =  -879.940206370     A.U. after   12 cycles
 SCF Done:  E(RB3LYP) =  -879.940310946     A.U. after   11 cycles
 SCF Done:  E(RB3LYP) =  -879.940493264     A.U. after   12 cycles
 SCF Done:  E(RB3LYP) =  -879.940579151     A.U. after   12 cycles
 SCF Done:  E(RB3LYP) =  -879.940615494     A.U. after   10 cycles
 SCF Done:  E(RB3LYP) =  -879.940640041     A.U. after    8 cycles
 SCF Done:  E(RB3LYP) =  -879.940640587     A.U. after    9 cycles
 SCF Done:  E(RB3LYP) =  -879.940640801     A.U. after    8 cycles
 SCF Done:  E(RB3LYP) =  -879.940640865     A.U. after    7 cycles
 SCF Done:  E(RB3LYP) =  -879.940640875     A.U. after    6 cycles
 Optimization completed.
    -- Stationary point found.
 Normal termination of Gaussian 16 at Mon Dec 14 18:47:13 2020.

 --------------------------------------------------------------------
 #N Geom=AllCheck Guess=TCheck SCRF=Check GenChk RB3LYP/6-31G(d) Freq
 --------------------------------------------------------------------

 Structure from the checkpoint file:  "JID_3889.chk"
 -------------------------------
 CID_141113391_JID_3889_neutraal
 -------------------------------
 Charge =  0 Multiplicity = 1

 SCF Done:  E(RB3LYP) =  -879.940640875     A.U. after    1 cycles

  Exact polarizability: 156.536   0.134 138.211  -8.353   4.158  97.124
 Approx polarizability: 206.771  -1.834 256.064 -20.971  11.714 153.364

                      1                      2                      3
                      A                      A                      A
 Frequencies --     28.9703                38.9956                50.8020
 Red. masses --      1.0269                 4.7549                 4.2135
 Frc consts  --      0.0005                 0.0043                 0.0064
 IR Inten    --      0.2086                 0.4875                 0.2876

                      4                      5                      6
                      A                      A                      A
 Frequencies --     84.8284               104.5157               172.9247
 Red. masses --      4.3884                 3.4278                 3.7895
 Frc consts  --      0.0186                 0.0221                 0.0668
 IR Inten    --      0.3618                 0.8210                 0.9958

                      7                      8                      9
                      A                      A                      A
 Frequencies --    221.6472               303.4815               331.7036
 Red. masses --      5.0348                 3.8322                 2.3419
 Frc consts  --      0.1457                 0.2080                 0.1518
 IR Inten    --      0.2824                 3.7815                 0.9201

                     10                     11                     12
                      A                      A                      A
 Frequencies --    366.4222               397.9922               421.0061
 Red. masses --      4.0138                 2.0127                 3.0953
 Frc consts  --      0.3175                 0.1878                 0.3232
 IR Inten    --      8.3465                 0.1828                 0.3186

                     13                     14                     15
                      A                      A                      A
 Frequencies --    423.6081               484.5565               503.4308
 Red. masses --      3.4530                 3.4495                 4.9394
 Frc consts  --      0.3651                 0.4772                 0.7376
 IR Inten    --      1.3693                 8.6260                 3.1011

                     16                     17                     18
                      A                      A                      A
 Frequencies --    581.4682               618.0367               653.6548
 Red. masses --      5.8293                 3.4811                 1.3483
 Frc consts  --      1.1612                 0.7834                 0.3394
 IR Inten    --      2.1141                14.7662                37.1747

                     19                     20                     21
                      A                      A                      A
 Frequencies --    660.5118               695.4184               724.6837
 Red. masses --      6.6121                 5.1561                 3.8488
 Frc consts  --      1.6996                 1.4691                 1.1909
 IR Inten    --      0.0953                11.3890                 2.2359

                     22                     23                     24
                      A                      A                      A
 Frequencies --    764.8507               804.2430               835.7704
 Red. masses --      2.4832                 3.8070                 2.4513
 Frc consts  --      0.8559                 1.4508                 1.0088
 IR Inten    --     15.0737                15.1554                11.5894

                     25                     26                     27
                      A                      A                      A
 Frequencies --    856.1982               863.7784               903.3361
 Red. masses --      1.2470                 2.9630                 1.2265
 Frc consts  --      0.5386                 1.3025                 0.5897
 IR Inten    --      0.0657                 9.6780                 1.0851

                     28                     29                     30
                      A                      A                      A
 Frequencies --    923.6091               960.7019               964.0795
 Red. masses --      2.5873                 1.3356                 1.2975
 Frc consts  --      1.3004                 0.7263                 0.7105
 IR Inten    --      9.2629                 0.1309                 0.5722

                     31                     32                     33
                      A                      A                      A
 Frequencies --    985.9897              1013.1116              1035.1531
 Red. masses --      2.0615                 1.8406                 1.8653
 Frc consts  --      1.1808                 1.1131                 1.1776
 IR Inten    --      4.6206                11.2212                 8.3088

                     34                     35                     36
                      A                      A                      A
 Frequencies --   1046.3661              1055.2813              1075.9848
 Red. masses --      2.6336                 1.6939                 1.5225
 Frc consts  --      1.6989                 1.1114                 1.0385
 IR Inten    --      0.0266                 9.1985                 8.0670

                     37                     38                     39
                      A                      A                      A
 Frequencies --   1135.4172              1138.9825              1156.9988
 Red. masses --      1.1861                 3.0012                 1.4041
 Frc consts  --      0.9009                 2.2939                 1.1074
 IR Inten    --      2.2235                38.1323                 5.6129

                     40                     41                     42
                      A                      A                      A
 Frequencies --   1221.5509              1224.9340              1235.4170
 Red. masses --      1.1912                 1.3204                 2.7805
 Frc consts  --      1.0473                 1.1673                 2.5003
 IR Inten    --      3.2719                 2.4162                 9.9086

                     43                     44                     45
                      A                      A                      A
 Frequencies --   1247.8907              1297.4603              1326.9940
 Red. masses --      2.3962                 1.5215                 1.4190
 Frc consts  --      2.1985                 1.5091                 1.4722
 IR Inten    --      0.3329                11.8494                 3.8026

                     46                     47                     48
                      A                      A                      A
 Frequencies --   1354.3219              1370.7722              1386.3643
 Red. masses --      1.9753                 1.8918                 1.2756
 Frc consts  --      2.1346                 2.0944                 1.4445
 IR Inten    --      0.7004                 1.2000                33.7454

                     49                     50                     51
                      A                      A                      A
 Frequencies --   1396.7514              1442.7509              1463.6298
 Red. masses --      1.5737                 1.2481                 2.3893
 Frc consts  --      1.8089                 1.5307                 3.0157
 IR Inten    --      2.2017                 0.1187                 2.6868

                     52                     53                     54
                      A                      A                      A
 Frequencies --   1497.6061              1517.3560              1524.1862
 Red. masses --      1.0915                 1.0494                 1.1062
 Frc consts  --      1.4424                 1.4236                 1.5142
 IR Inten    --      7.7011                 5.5483                 8.4864

                     55                     56                     57
                      A                      A                      A
 Frequencies --   1533.6013              1566.9893              1635.6310
 Red. masses --      1.0939                 2.4943                 5.6205
 Frc consts  --      1.5158                 3.6085                 8.8592
 IR Inten    --      7.7580                10.5102                 0.1970

                     58                     59                     60
                      A                      A                      A
 Frequencies --   1661.3040              1677.9084              2923.2631
 Red. masses --      6.3572                 5.8376                 1.0719
 Frc consts  --     10.3374                 9.6833                 5.3970
 IR Inten    --     10.6025                 5.0175                52.1370

                     61                     62                     63
                      A                      A                      A
 Frequencies --   3041.4191              3042.3138              3043.8216
 Red. masses --      1.0746                 1.0403                 1.0720
 Frc consts  --      5.8568                 5.6732                 5.8519
 IR Inten    --     14.0513                39.6243                55.8576

                     64                     65                     66
                      A                      A                      A
 Frequencies --   3088.5870              3098.1278              3125.6451
 Red. masses --      1.1045                 1.0970                 1.1023
 Frc consts  --      6.2079                 6.2036                 6.3447
 IR Inten    --     12.7039                22.3859                16.8685

                     67                     68                     69
                      A                      A                      A
 Frequencies --   3168.5576              3175.6523              3187.3312
 Red. masses --      1.0868                 1.0872                 1.0939
 Frc consts  --      6.4287                 6.4602                 6.5474
 IR Inten    --     14.1914                15.8741                31.5162

                     70                     71                     72
                      A                      A                      A
 Frequencies --   3196.1356              3221.3943              3250.5419
 Red. masses --      1.0940                 1.0875                 1.1010
 Frc consts  --      6.5847                 6.6490                 6.8539
 IR Inten    --      9.2485                 2.5980                 7.3982

 - Thermochemistry -
 -------------------
 Temperature   298.150 Kelvin.  Pressure   1.00000 Atm.
 Atom     1 has atomic number  6 and mass  12.00000

 Molecular mass:   191.07687 amu.
 Principal axes and moments of inertia in atomic units:
                           1         2         3
     Eigenvalues --  1190.367534628.839224794.94735
           X            0.99991   0.01179  -0.00696
           Y           -0.01179   0.99993  -0.00077
           Z            0.00695   0.00085   0.99998
 This molecule is an asymmetric top.
 Rotational symmetry number  1.
 Warning -- assumption of classical behavior for rotation
           may cause significant error
 Rotational temperatures (Kelvin)      0.07276     0.01871     0.01806
 Rotational constants (GHZ):           1.51612     0.38989     0.37638
 Zero-point vibrational energy     565443.2 (Joules/Mol)
                                  135.14417 (Kcal/Mol)
 Warning -- explicit consideration of  17 degrees of freedom as
           vibrations may cause significant error
 Vibrational temperatures:     41.68    56.11    73.09   122.05   150.37
          (Kelvin)            248.80   318.90   436.64   477.25   527.20
                              572.62   605.73   609.48   697.17   724.32
                              836.60   889.22   940.46   950.33  1000.55
                             1042.66  1100.45  1157.13  1202.49  1231.88
                             1242.78  1299.70  1328.87  1382.24  1387.10
                             1418.62  1457.64  1489.35  1505.49  1518.31
                             1548.10  1633.61  1638.74  1664.66  1757.54
                             1762.41  1777.49  1795.44  1866.76  1909.25
                             1948.57  1972.24  1994.67  2009.61  2075.80
                             2105.84  2154.72  2183.14  2192.96  2206.51
                             2254.55  2353.31  2390.25  2414.14  4205.92
                             4375.92  4377.21  4379.38  4443.79  4457.51
                             4497.11  4558.85  4569.06  4585.86  4598.53
                             4634.87  4676.80

 Zero-point correction=                           0.215366 (Hartree/Particle)
 Thermal correction to Energy=                    0.227639
 Thermal correction to Enthalpy=                  0.228583
 Thermal correction to Gibbs Free Energy=         0.174760
 Sum of electronic and zero-point Energies=           -879.725275
 Sum of electronic and thermal Energies=              -879.713002
 Sum of electronic and thermal Enthalpies=            -879.712058
 Sum of electronic and thermal Free Energies=         -879.765881

                     E (Thermal)             CV                S
                      KCal/Mol        Cal/Mol-Kelvin    Cal/Mol-Kelvin
 Total                  142.845             46.447            113.280
 Electronic               0.000              0.000              0.000
 Translational            0.889              2.981             41.648
 Rotational               0.889              2.981             31.647
 Vibrational            141.068             40.486             39.986
 Vibration     1          0.593              1.984              5.899
 Vibration     2          0.594              1.981              5.309
 Vibration     3          0.595              1.977              4.786
 Vibration     4          0.601              1.960              3.776
 Vibration     5          0.605              1.946              3.368
 Vibration     6          0.626              1.876              2.403
 Vibration     7          0.648              1.808              1.946
 Vibration     8          0.695              1.667              1.398
 Vibration     9          0.714              1.612              1.252
 Vibration    10          0.739              1.541              1.095
 Vibration    11          0.764              1.474              0.970
 Vibration    12          0.784              1.425              0.889
 Vibration    13          0.786              1.419              0.880
 Vibration    14          0.841              1.284              0.698
 Vibration    15          0.859              1.242              0.650
 Vibration    16          0.938              1.071              0.483
 Vibration    17          0.978              0.994              0.420

 Optimization completed.
    -- Stationary point found.
 Normal termination of Gaussian 16 at Mon Dec 14 18:53:33 2020.

 ----------------------------------------------------------------------
 # B3LYP/6-311++G(d,p) empiricaldispersion=gd3bj scf=xqc pop=npa geom=c
 heck
 ----------------------------------------------------------------------

 ---------------------------------------
 CID_141113391_JID_3889_Energie_neutraal
 ---------------------------------------
 Structure from the checkpoint file:  "JID_3889.chk"
 Charge =  0 Multiplicity = 1

 SCF Done:  E(RB3LYP) =  -880.094118625     A.U. after   16 cycles
 Normal termination of Gaussian 16 at Mon Dec 14 18:56:49 2020.

 ----------------------------------------------------------------------
 # B3LYP/6-311++G(d,p) empiricaldispersion=gd3bj scf=xqc pop=npa geom=c
 heck
 ----------------------------------------------------------------------

 -------------------------------------
 CID_141113391_JID_3889_Energie_kation
 -------------------------------------
 Structure from the checkpoint file:  "JID_3889.chk"
 Charge =  1 Multiplicity = 2

 SCF Done:  E(UB3LYP) =  -879.833575539     A.U. after   24 cycles
 Normal termination of Gaussian 16 at Mon Dec 14 19:03:18 2020.
 Gaussian 16:  ES64L-G16RevA.03 25-Dec-2016

 ----------------------------------------------------------------------
 # B3LYP/6-311++G(d,p) empiricaldispersion=gd3bj scf=xqc pop=npa geom=c
 heck
 ----------------------------------------------------------------------

 ------------------------------------
 CID_141113391_JID_3889_Energie_anion
 ------------------------------------
 Structure from the checkpoint file:  "JID_3889.chk"
 Charge = -1 Multiplicity = 2

                         Standard orientation:
 ---------------------------------------------------------------------
 Center     Atomic      Atomic             Coordinates (Angstroms)
 Number     Number       Type             X           Y           Z
 ---------------------------------------------------------------------
      1          6           0       -4.400445   -0.323060    1.096199
      2          6           0       -3.093620   -0.121911    0.368632
      3          6           0       -2.354093   -1.218415   -0.094654
      4          6           0       -1.135782   -1.040574   -0.743689
      5          6           0       -0.614072    0.241775   -0.954338
      6          6           0       -1.356595    1.337217   -0.502770
      7          6           0       -2.576826    1.158810    0.148905
      8          6           0        0.735336    0.438529   -1.613535
      9          7           0        1.917528    0.388283   -0.742667
     10          6           0        1.934471    1.342386    0.377536
     11          6           0        2.981042    0.818557    1.326805
     12          6           0        3.194955   -0.494369    1.209721
     13         16           0        2.266937   -1.241496   -0.088729
     14          1           0       -4.996373   -1.119320    0.636626
     15          1           0       -4.231606   -0.609047    2.142693
     16          1           0       -5.001706    0.591626    1.099124
     17          1           0       -2.742233   -2.223763    0.051914
     18          1           0       -0.584302   -1.907691   -1.097019
     19          1           0       -0.980883    2.343923   -0.673144
     20          1           0       -3.138176    2.026784    0.486632
     21          1           0        0.888458   -0.307568   -2.401978
     22          1           0        0.769514    1.424132   -2.095388
     23          1           0        2.173527    2.334276   -0.030078
     24          1           0        0.960784    1.424158    0.900050
     25          1           0        3.450689    1.446473    2.075805
     26          1           0        3.852393   -1.111701    1.810233
 ---------------------------------------------------------------------

 SCF Done:  E(UB3LYP) =  -880.078695251     A.U. after   33 cycles
 SCF Done:  E(UB3LYP) =  -880.078695251     a.u. after    1 cycles

 The electronic state is 2-A.
 Alpha  occ. eigenvalues --  -88.76906 -14.23513 -10.11202 -10.10630 -10.10315
 Alpha  occ. eigenvalues --  -10.08782 -10.08181 -10.07915 -10.07882 -10.07718
 Alpha  occ. eigenvalues --  -10.07651 -10.07467 -10.07248  -7.85352  -5.81825
 Alpha  occ. eigenvalues --   -5.81383  -5.80667  -0.84302  -0.76549  -0.71560
 Alpha  occ. eigenvalues --   -0.67826  -0.65146  -0.64140  -0.61404  -0.56795
 Alpha  occ. eigenvalues --   -0.51583  -0.49918  -0.47525  -0.46629  -0.41396
 Alpha  occ. eigenvalues --   -0.39842  -0.38188  -0.36798  -0.35843  -0.33695
 Alpha  occ. eigenvalues --   -0.32625  -0.32511  -0.32119  -0.30571  -0.29532
 Alpha  occ. eigenvalues --   -0.28919  -0.26629  -0.26011  -0.25308  -0.25019
 Alpha  occ. eigenvalues --   -0.24175  -0.21811  -0.17133  -0.15882  -0.14497
 Alpha  occ. eigenvalues --   -0.09033   0.04382
 Alpha virt. eigenvalues --    0.06057   0.06682   0.07148   0.07386   0.07766
 Alpha virt. eigenvalues --    0.07964   0.08625   0.09192   0.09574   0.10011
 Alpha virt. eigenvalues --    0.10394   0.10783   0.11663   0.12084   0.12759

  Beta  occ. eigenvalues --  -88.76889 -14.23479 -10.11198 -10.10612 -10.10293
  Beta  occ. eigenvalues --  -10.08782 -10.08180 -10.07901 -10.07878 -10.07704
  Beta  occ. eigenvalues --  -10.07639 -10.07447 -10.07214  -7.85334  -5.81784
  Beta  occ. eigenvalues --   -5.81372  -5.80653  -0.84233  -0.76532  -0.71531
  Beta  occ. eigenvalues --   -0.67796  -0.65118  -0.64070  -0.61362  -0.56749
  Beta  occ. eigenvalues --   -0.51545  -0.49873  -0.47482  -0.46540  -0.41338
  Beta  occ. eigenvalues --   -0.39794  -0.38164  -0.36761  -0.35803  -0.33651
  Beta  occ. eigenvalues --   -0.32593  -0.32481  -0.32079  -0.30525  -0.29479
  Beta  occ. eigenvalues --   -0.28877  -0.26587  -0.25980  -0.25273  -0.24948
  Beta  occ. eigenvalues --   -0.24144  -0.21754  -0.17089  -0.15864  -0.14475
  Beta  occ. eigenvalues --   -0.08987
  Beta virt. eigenvalues --    0.06524   0.06945   0.07144   0.07623   0.07972
  Beta virt. eigenvalues --    0.08011   0.08300   0.09226   0.09451   0.09860
  Beta virt. eigenvalues --    0.10392   0.10670   0.11123   0.12036   0.12387

 Mulliken charges and spin densities:
               1          2
     1  C    2.715666  -3.381863
     2  C    0.090307   0.384306
     3  C   -1.022986   0.785168
     4  C   -1.112215   0.835573
     5  C    1.692350  -0.604318
     6  C   -0.134046   0.046261
     7  C   -0.186167  -0.416970
     8  C   -0.914413  -0.289671
     9  N    0.112139   0.073633
    10  C    0.347314  -0.708075
    11  C   -0.159279  -0.028506
    12  C    0.529836  -0.787815
    13  S    0.103685  -0.141003
    14  H   -0.170916   0.306881
    15  H    0.033642   0.130867
    16  H   -0.344518   0.492606
    17  H   -0.347237   0.525056
    18  H   -0.047540   0.158628
    19  H   -0.544160   0.713807
    20  H   -0.801277   0.982082
    21  H    0.122606   0.072667
    22  H   -0.098501   0.263841
    23  H   -0.200335   0.375204
    24  H    0.349416  -0.220260
    25  H   -0.532889   0.709675
    26  H   -0.480485   0.722228
 Sum of Mulliken charges =  -1.00000   1.00000

 Dipole moment (field-independent basis, Debye):
    X=              1.4698    Y=             -2.9342    Z=             -2.3579  Tot=              4.0410
 Quadrupole moment (field-independent basis, Debye-Ang):
   XX=           -172.0562   YY=           -131.0354   ZZ=           -116.4107
   XY=              4.0978   XZ=             -2.5466   YZ=              1.4429

 Summary of Natural Population Analysis:

                                       Natural Population
                Natural  -----------------------------------------------
    Atom  No    Charge         Core      Valence    Rydberg      Total
 -----------------------------------------------------------------------
      C    1   -0.29102      0.99964     2.28623    0.00515     3.29102
      C    2   -0.01667      0.99952     2.00641    0.01074     3.01667
      C    3   -0.09845      0.99951     2.08989    0.00905     3.09845
      C    4   -0.09032      0.99951     2.08188    0.00893     3.09032
      C    5   -0.03682      0.99949     2.02700    0.01033     3.03682
      C    6   -0.09479      0.99951     2.08458    0.01070     3.09479
      C    7   -0.09843      0.99951     2.08820    0.01071     3.09843
      C    8   -0.09203      0.99957     2.07930    0.01316     3.09203
      N    9   -0.31418      0.99976     2.80003    0.01439     3.81418
      C   10   -0.10066      0.99960     2.08858    0.01248     3.10066
      C   11   -0.11633      0.99950     2.10549    0.01133     3.11633
      C   12   -0.17483      0.99947     2.16336    0.01200     3.17483
      S   13    0.19683      4.99954     2.78202    0.02162     7.80317
      H   14    0.10261      0.00000     0.39600    0.00139     0.39739
      H   15    0.10422      0.00000     0.39450    0.00128     0.39578
      H   16    0.10435      0.00000     0.39405    0.00160     0.39565
      H   17    0.09831      0.00000     0.40036    0.00133     0.40169
      H   18    0.10075      0.00000     0.39816    0.00109     0.39925
      H   19    0.10188      0.00000     0.39579    0.00233     0.39812
      H   20    0.10218      0.00000     0.39619    0.00163     0.39782
      H   21    0.09878      0.00000     0.40009    0.00113     0.40122
      H   22    0.10272      0.00000     0.39607    0.00121     0.39728
      H   23    0.10292      0.00000     0.39480    0.00228     0.39708
      H   24    0.09292      0.00000     0.40509    0.00199     0.40708
      H   25    0.10618      0.00000     0.39258    0.00124     0.39382
      H   26    0.10988      0.00000     0.38874    0.00138     0.39012
 =======================================================================
   * Total *    0.00000     16.99412    33.83542    0.17047    51.00000

 Normal termination of Gaussian 16 at Mon Dec 14 19:12:00 2020.
