 Gaussian 16, Revision A.03,

 -----------------------------------------------------------
 # opt freq B3LYP/6-31G(d) empiricaldispersion=gd3bj scf=xqc
 -----------------------------------------------------------

 ------------------------------
 CID_82709204_JID_2491_neutraal
 ------------------------------
 Symbolic Z-matrix:
 Charge =  0 Multiplicity = 1

 SCF Done:  E(RB3LYP) =  -896.165999510     A.U. after   15 cycles
 SCF Done:  E(RB3LYP) =  -896.169132614     A.U. after   12 cycles
 SCF Done:  E(RB3LYP) =  -896.169797744     A.U. after   12 cycles
 SCF Done:  E(RB3LYP) =  -896.170119678     A.U. after   12 cycles
 SCF Done:  E(RB3LYP) =  -896.170316665     A.U. after   12 cycles
 SCF Done:  E(RB3LYP) =  -896.170435030     A.U. after   11 cycles
 SCF Done:  E(RB3LYP) =  -896.170481743     A.U. after   11 cycles
 SCF Done:  E(RB3LYP) =  -896.170500366     A.U. after   10 cycles
 SCF Done:  E(RB3LYP) =  -896.170507431     A.U. after   10 cycles
 SCF Done:  E(RB3LYP) =  -896.170512939     A.U. after   11 cycles
 SCF Done:  E(RB3LYP) =  -896.170516986     A.U. after   10 cycles
 SCF Done:  E(RB3LYP) =  -896.170518895     A.U. after   10 cycles
 SCF Done:  E(RB3LYP) =  -896.170519405     A.U. after    8 cycles
 SCF Done:  E(RB3LYP) =  -896.170519466     A.U. after    7 cycles
 Optimization completed.
    -- Stationary point found.
 Normal termination of Gaussian 16 at Wed Dec  9 17:28:11 2020.

 --------------------------------------------------------------------
 #N Geom=AllCheck Guess=TCheck SCRF=Check GenChk RB3LYP/6-31G(d) Freq
 --------------------------------------------------------------------

 Structure from the checkpoint file:  "JID_2491.chk"
 ------------------------------
 CID_82709204_JID_2491_neutraal
 ------------------------------
 Charge =  0 Multiplicity = 1

 SCF Done:  E(RB3LYP) =  -896.170519466     A.U. after    1 cycles

  Exact polarizability: 139.097  -0.073 117.344  12.153   1.189  86.023
 Approx polarizability: 178.671   4.001 202.304  26.514   5.139 139.342

                      1                      2                      3
                      A                      A                      A
 Frequencies --     22.5399                26.8479                54.3654
 Red. masses --      5.9556                 3.1286                 3.9821
 Frc consts  --      0.0018                 0.0013                 0.0069
 IR Inten    --      0.1022                 0.1474                 0.2231

                      4                      5                      6
                      A                      A                      A
 Frequencies --     65.0513               116.9958               132.7752
 Red. masses --      4.3647                 4.6637                 2.6024
 Frc consts  --      0.0109                 0.0376                 0.0270
 IR Inten    --      0.6508                 0.2374                 2.3786

                      7                      8                      9
                      A                      A                      A
 Frequencies --    205.0128               224.9525               244.7959
 Red. masses --      2.8433                 1.1528                 2.8408
 Frc consts  --      0.0704                 0.0344                 0.1003
 IR Inten    --      0.1513                 0.1414                 0.8589

                     10                     11                     12
                      A                      A                      A
 Frequencies --    259.8177               317.3841               350.1567
 Red. masses --      1.2516                 2.8661                 2.4336
 Frc consts  --      0.0498                 0.1701                 0.1758
 IR Inten    --      0.5266                 0.6208                 1.6488

                     13                     14                     15
                      A                      A                      A
 Frequencies --    388.0871               433.8322               474.5748
 Red. masses --      2.4074                 2.6051                 3.2249
 Frc consts  --      0.2136                 0.2889                 0.4279
 IR Inten    --      4.5492                 0.4867                 4.7774

                     16                     17                     18
                      A                      A                      A
 Frequencies --    488.9619               529.5181               610.0492
 Red. masses --      3.1456                 5.7022                 5.0653
 Frc consts  --      0.4431                 0.9420                 1.1107
 IR Inten    --      4.8358                 4.6464                 3.4389

                     19                     20                     21
                      A                      A                      A
 Frequencies --    647.9604               672.0981               740.6335
 Red. masses --      7.2668                 3.2372                 7.5974
 Frc consts  --      1.7976                 0.8616                 2.4554
 IR Inten    --      8.5186                18.0099                 3.0971

                     22                     23                     24
                      A                      A                      A
 Frequencies --    789.3939               832.6205               870.3385
 Red. masses --      1.1836                 2.9364                 2.3712
 Frc consts  --      0.4345                 1.1994                 1.0583
 IR Inten    --     27.3926                10.2722                35.8261

                     25                     26                     27
                      A                      A                      A
 Frequencies --    877.1904               887.9926               929.0439
 Red. masses --      1.9557                 4.1642                 1.5079
 Frc consts  --      0.8866                 1.9346                 0.7668
 IR Inten    --     10.9584                36.1916                32.0634

                     28                     29                     30
                      A                      A                      A
 Frequencies --    945.1937               950.4990               977.1234
 Red. masses --      1.3231                 1.3900                 1.4586
 Frc consts  --      0.6964                 0.7399                 0.8205
 IR Inten    --     16.6323                40.9601                 1.2474

                     31                     32                     33
                      A                      A                      A
 Frequencies --    985.5526              1011.2526              1077.7046
 Red. masses --      1.8400                 4.0321                 4.8354
 Frc consts  --      1.0530                 2.4294                 3.3089
 IR Inten    --      7.6145                15.1209                54.7039

                     34                     35                     36
                      A                      A                      A
 Frequencies --   1118.0409              1153.3286              1169.8934
 Red. masses --      2.1031                 2.3589                 2.3070
 Frc consts  --      1.5489                 1.8487                 1.8603
 IR Inten    --     14.0742                 4.2278                 3.3951

                     37                     38                     39
                      A                      A                      A
 Frequencies --   1192.0138              1204.2054              1213.5443
 Red. masses --      2.4983                 1.8245                 1.7183
 Frc consts  --      2.0915                 1.5588                 1.4909
 IR Inten    --     27.7129                 7.8002                 4.5979

                     40                     41                     42
                      A                      A                      A
 Frequencies --   1267.5399              1278.9266              1307.9480
 Red. masses --      1.2550                 1.1926                 1.3300
 Frc consts  --      1.1880                 1.1493                 1.3405
 IR Inten    --     13.0544                 1.3912                10.3392

                     43                     44                     45
                      A                      A                      A
 Frequencies --   1347.3421              1361.1916              1374.9965
 Red. masses --      1.3401                 1.6656                 1.3629
 Frc consts  --      1.4333                 1.8183                 1.5182
 IR Inten    --      6.3584                 7.7407                13.9267

                     46                     47                     48
                      A                      A                      A
 Frequencies --   1390.9509              1424.1069              1430.6222
 Red. masses --      1.3584                 1.3602                 1.3483
 Frc consts  --      1.5485                 1.6254                 1.6258
 IR Inten    --      1.6673                 6.1414                 2.7109

                     49                     50                     51
                      A                      A                      A
 Frequencies --   1450.8969              1479.8047              1485.3957
 Red. masses --      1.2479                 2.7456                 1.4356
 Frc consts  --      1.5478                 3.5423                 1.8663
 IR Inten    --      9.2539                28.3611                12.3429

                     52                     53                     54
                      A                      A                      A
 Frequencies --   1506.7731              1520.2630              1521.7883
 Red. masses --      1.1415                 1.0537                 1.0435
 Frc consts  --      1.5269                 1.4349                 1.4238
 IR Inten    --      7.9155                 3.7647                 0.7441

                     55                     56                     57
                      A                      A                      A
 Frequencies --   1533.6873              1543.4605              1549.7330
 Red. masses --      1.0493                 1.0644                 1.0765
 Frc consts  --      1.4542                 1.4939                 1.5232
 IR Inten    --      5.9567                 6.1643                17.5977

                     58                     59                     60
                      A                      A                      A
 Frequencies --   1581.3640              2999.2967              3031.7133
 Red. masses --      5.8455                 1.0616                 1.0791
 Frc consts  --      8.6127                 5.6265                 5.8435
 IR Inten    --     12.3550                33.0682                11.7469

                     61                     62                     63
                      A                      A                      A
 Frequencies --   3038.3512              3044.3129              3052.3528
 Red. masses --      1.0417                 1.0421                 1.0993
 Frc consts  --      5.6658                 5.6903                 6.0347
 IR Inten    --     12.5720                39.0778                63.9269

                     64                     65                     66
                      A                      A                      A
 Frequencies --   3065.4395              3101.3831              3107.2271
 Red. masses --      1.0618                 1.0988                 1.1005
 Frc consts  --      5.8787                 6.2272                 6.2601
 IR Inten    --     25.3057                13.6637                65.2606

                     67                     68                     69
                      A                      A                      A
 Frequencies --   3115.7719              3117.5698              3144.1252
 Red. masses --      1.1031                 1.1019                 1.0994
 Frc consts  --      6.3094                 6.3097                 6.4032
 IR Inten    --     11.1996                37.9153                23.9272

                     70                     71                     72
                      A                      A                      A
 Frequencies --   3236.7654              3248.0220              3454.3809
 Red. masses --      1.0931                 1.0945                 1.0755
 Frc consts  --      6.7471                 6.8032                 7.5612
 IR Inten    --      7.5253                 0.9376                 0.5608

 - Thermochemistry -
 -------------------
 Temperature   298.150 Kelvin.  Pressure   1.00000 Atm.
 Atom     1 has atomic number  6 and mass  12.00000

 Molecular mass:   186.08268 amu.
 Principal axes and moments of inertia in atomic units:
                           1         2         3
     Eigenvalues --  1062.274674639.868265341.88406
           X            0.99996   0.00869   0.00087
           Y           -0.00868   0.99992  -0.00951
           Z           -0.00096   0.00951   0.99995
 This molecule is an asymmetric top.
 Rotational symmetry number  1.
 Warning -- assumption of classical behavior for rotation
           may cause significant error
 Rotational temperatures (Kelvin)      0.08154     0.01867     0.01621
 Rotational constants (GHZ):           1.69894     0.38896     0.33785
 Zero-point vibrational energy     576030.9 (Joules/Mol)
                                  137.67469 (Kcal/Mol)
 Warning -- explicit consideration of  18 degrees of freedom as
           vibrations may cause significant error
 Vibrational temperatures:     32.43    38.63    78.22    93.59   168.33
          (Kelvin)            191.03   294.97   323.66   352.21   373.82
                              456.64   503.80   558.37   624.19   682.81
                              703.51   761.86   877.72   932.27   967.00
                             1065.61  1135.76  1197.96  1252.22  1262.08
                             1277.62  1336.69  1359.92  1367.56  1405.86
                             1417.99  1454.97  1550.58  1608.61  1659.38
                             1683.22  1715.04  1732.58  1746.02  1823.71
                             1840.09  1881.85  1938.52  1958.45  1978.31
                             2001.27  2048.97  2058.35  2087.52  2129.11
                             2137.15  2167.91  2187.32  2189.51  2206.63
                             2220.70  2229.72  2275.23  4315.32  4361.96
                             4371.51  4380.09  4391.65  4410.48  4462.20
                             4470.61  4482.90  4485.49  4523.69  4656.98
                             4673.18  4970.08

 Zero-point correction=                           0.219399 (Hartree/Particle)
 Thermal correction to Energy=                    0.232455
 Thermal correction to Enthalpy=                  0.233399
 Thermal correction to Gibbs Free Energy=         0.177328
 Sum of electronic and zero-point Energies=           -895.951121
 Sum of electronic and thermal Energies=              -895.938064
 Sum of electronic and thermal Enthalpies=            -895.937120
 Sum of electronic and thermal Free Energies=         -895.993191

                     E (Thermal)             CV                S
                      KCal/Mol        Cal/Mol-Kelvin    Cal/Mol-Kelvin
 Total                  145.868             47.176            118.011
 Electronic               0.000              0.000              0.000
 Translational            0.889              2.981             41.569
 Rotational               0.889              2.981             31.643
 Vibrational            144.090             41.214             44.799
 Vibration     1          0.593              1.985              6.397
 Vibration     2          0.593              1.984              6.050
 Vibration     3          0.596              1.976              4.652
 Vibration     4          0.597              1.971              4.298
 Vibration     5          0.608              1.935              3.149
 Vibration     6          0.613              1.921              2.905
 Vibration     7          0.640              1.833              2.088
 Vibration     8          0.650              1.803              1.919
 Vibration     9          0.660              1.771              1.768
 Vibration    10          0.668              1.746              1.663
 Vibration    11          0.704              1.640              1.324
 Vibration    12          0.727              1.575              1.165
 Vibration    13          0.756              1.496              1.007
 Vibration    14          0.795              1.397              0.846
 Vibration    15          0.831              1.306              0.725
 Vibration    16          0.845              1.275              0.686
 Vibration    17          0.884              1.185              0.588
 Vibration    18          0.969              1.011              0.433

 Optimization completed.
    -- Stationary point found.
 Normal termination of Gaussian 16 at Wed Dec  9 17:33:44 2020.

 ----------------------------------------------------------------------
 # B3LYP/6-311++G(d,p) empiricaldispersion=gd3bj scf=xqc pop=npa geom=c
 heck
 ----------------------------------------------------------------------

 --------------------------------------
 CID_82709204_JID_2491_Energie_neutraal
 --------------------------------------
 Structure from the checkpoint file:  "JID_2491.chk"
 Charge =  0 Multiplicity = 1

 SCF Done:  E(RB3LYP) =  -896.340215993     A.U. after   14 cycles
 Normal termination of Gaussian 16 at Wed Dec  9 17:37:01 2020.

 ----------------------------------------------------------------------
 # B3LYP/6-311++G(d,p) empiricaldispersion=gd3bj scf=xqc pop=npa geom=c
 heck
 ----------------------------------------------------------------------

 ------------------------------------
 CID_82709204_JID_2491_Energie_kation
 ------------------------------------
 Structure from the checkpoint file:  "JID_2491.chk"
 Charge =  1 Multiplicity = 2

 SCF Done:  E(UB3LYP) =  -896.021386990     A.U. after   26 cycles
 Normal termination of Gaussian 16 at Wed Dec  9 17:45:38 2020.
 Gaussian 16:  ES64L-G16RevA.03 25-Dec-2016

 ----------------------------------------------------------------------
 # B3LYP/6-311++G(d,p) empiricaldispersion=gd3bj scf=xqc pop=npa geom=c
 heck
 ----------------------------------------------------------------------

 -----------------------------------
 CID_82709204_JID_2491_Energie_anion
 -----------------------------------
 Structure from the checkpoint file:  "JID_2491.chk"
 Charge = -1 Multiplicity = 2

                         Standard orientation:
 ---------------------------------------------------------------------
 Center     Atomic      Atomic             Coordinates (Angstroms)
 Number     Number       Type             X           Y           Z
 ---------------------------------------------------------------------
      1          6           0        2.507354    1.667867    0.176301
      2          6           0        3.124821    0.415374   -0.456634
      3          6           0        4.603461    0.264923   -0.080127
      4          6           0        2.360373   -0.844618   -0.056737
      5          8           0        1.014140   -0.699590   -0.501413
      6          7           0        0.254697   -1.840046   -0.062968
      7          6           0       -0.698347   -1.373020    0.958239
      8          6           0       -1.629425   -0.277015    0.529179
      9          6           0       -1.479751    1.073734    0.684038
     10          7           0       -2.445710    1.874402    0.116901
     11          6           0       -3.339624    1.150363   -0.487744
     12         16           0       -3.077362   -0.578877   -0.402117
     13          1           0        2.544698    1.604285    1.272309
     14          1           0        1.462403    1.782891   -0.122868
     15          1           0        3.054906    2.568613   -0.123185
     16          1           0        3.049653    0.506695   -1.549206
     17          1           0        4.722685    0.161051    1.005935
     18          1           0        5.053828   -0.615382   -0.553373
     19          1           0        5.175153    1.145297   -0.393084
     20          1           0        2.808481   -1.740698   -0.508027
     21          1           0        2.385450   -0.973032    1.037056
     22          1           0       -0.271535   -2.086456   -0.903353
     23          1           0       -1.251987   -2.261205    1.285196
     24          1           0       -0.108176   -1.025645    1.811864
     25          1           0       -0.654973    1.533960    1.215630
     26          1           0       -4.202008    1.552229   -1.006341
 ---------------------------------------------------------------------

 SCF Done:  E(UB3LYP) =  -896.328374443     A.U. after   33 cycles
 SCF Done:  E(UB3LYP) =  -896.328374443     a.u. after    1 cycles

 The electronic state is 2-A.
 Alpha  occ. eigenvalues --  -88.75596 -19.03936 -14.24662 -14.19086 -10.10447
 Alpha  occ. eigenvalues --  -10.09989 -10.09849 -10.07601 -10.07472 -10.07318
 Alpha  occ. eigenvalues --  -10.05873 -10.05251  -7.84261  -5.80519  -5.80192
 Alpha  occ. eigenvalues --   -5.79897  -0.96086  -0.83859  -0.75765  -0.69656
 Alpha  occ. eigenvalues --   -0.67284  -0.62706  -0.58328  -0.57654  -0.53905
 Alpha  occ. eigenvalues --   -0.46591  -0.46105  -0.44495  -0.41054  -0.38563
 Alpha  occ. eigenvalues --   -0.37762  -0.35034  -0.34535  -0.31973  -0.30978
 Alpha  occ. eigenvalues --   -0.30926  -0.29479  -0.28804  -0.28276  -0.27843
 Alpha  occ. eigenvalues --   -0.27372  -0.23869  -0.23663  -0.23118  -0.22370
 Alpha  occ. eigenvalues --   -0.16854  -0.16742  -0.15778  -0.14312  -0.12807
 Alpha  occ. eigenvalues --    0.04891
 Alpha virt. eigenvalues --    0.06399   0.08007   0.08497   0.08560   0.08926
 Alpha virt. eigenvalues --    0.09830   0.10618   0.11413   0.11644   0.11977
 Alpha virt. eigenvalues --    0.12396   0.13301   0.13528   0.13720   0.14309

  Beta  occ. eigenvalues --  -88.75563 -19.03933 -14.24637 -14.19061 -10.10427
  Beta  occ. eigenvalues --  -10.09840 -10.09720 -10.07474 -10.07383 -10.07312
  Beta  occ. eigenvalues --  -10.05837 -10.05239  -7.84231  -5.80507  -5.80181
  Beta  occ. eigenvalues --   -5.79785  -0.96072  -0.83651  -0.75688  -0.69579
  Beta  occ. eigenvalues --   -0.67107  -0.62411  -0.58280  -0.57558  -0.53797
  Beta  occ. eigenvalues --   -0.46467  -0.45845  -0.44294  -0.40997  -0.38451
  Beta  occ. eigenvalues --   -0.37712  -0.34905  -0.34491  -0.31849  -0.30854
  Beta  occ. eigenvalues --   -0.30796  -0.29408  -0.28751  -0.27920  -0.27581
  Beta  occ. eigenvalues --   -0.27255  -0.23785  -0.23558  -0.23068  -0.22325
  Beta  occ. eigenvalues --   -0.16716  -0.16378  -0.15593  -0.14152  -0.11840
  Beta virt. eigenvalues --    0.07136   0.08172   0.08489   0.08858   0.09345
  Beta virt. eigenvalues --    0.09388   0.10238   0.10846   0.11668   0.11865
  Beta virt. eigenvalues --    0.12212   0.12601   0.13365   0.13730   0.13852

 Mulliken charges and spin densities:
               1          2
     1  C    0.042280  -0.664732
     2  C   -1.236862   1.609980
     3  C    0.777693  -1.362363
     4  C    0.710708  -1.195724
     5  O    0.003357   0.037409
     6  N   -0.301465   0.021427
     7  C    0.289383  -0.942116
     8  C    0.611387   0.275900
     9  C   -0.749821   0.031019
    10  N   -0.018331  -0.002559
    11  C   -0.135766   0.207420
    12  S   -0.198362  -0.054777
    13  H    0.001629   0.134802
    14  H    0.231432  -0.060321
    15  H   -0.006069   0.134282
    16  H    0.058111   0.105696
    17  H   -0.196697   0.332284
    18  H   -0.290119   0.417545
    19  H   -0.394968   0.537481
    20  H    0.037993   0.096960
    21  H   -0.054965   0.212467
    22  H    0.200133   0.066024
    23  H   -0.633529   0.837167
    24  H    0.026214   0.136304
    25  H    0.028348   0.099021
    26  H    0.198285  -0.010597
 Sum of Mulliken charges =  -1.00000   1.00000

 Dipole moment (field-independent basis, Debye):
    X=             -3.6863    Y=              0.2798    Z=             -1.9542  Tot=              4.1816
 Quadrupole moment (field-independent basis, Debye-Ang):
   XX=           -156.7935   YY=           -119.0913   ZZ=           -101.7881
   XY=             -0.1880   XZ=              4.1915   YZ=              4.1857

 Summary of Natural Population Analysis:

                                       Natural Population
                Natural  -----------------------------------------------
    Atom  No    Charge         Core      Valence    Rydberg      Total
 -----------------------------------------------------------------------
      C    1   -0.28696      0.99965     2.28116    0.00615     3.28696
      C    2   -0.12558      0.99961     2.11593    0.01004     3.12558
      C    3   -0.28414      0.99965     2.27878    0.00571     3.28414
      C    4   -0.00090      0.99955     1.98797    0.01338     3.00090
      O    5   -0.23780      0.99989     3.22824    0.00967     4.23780
      N    6   -0.17102      0.99975     2.65790    0.01337     3.67102
      C    7   -0.11414      0.99956     2.09982    0.01476     3.11414
      C    8   -0.09328      0.99949     2.08138    0.01240     3.09328
      C    9   -0.02135      0.99945     2.00414    0.01776     3.02135
      N   10   -0.24095      0.99969     2.73075    0.01052     3.74095
      C   11   -0.01256      0.99967     1.99775    0.01514     3.01256
      S   12    0.17239      4.99943     2.80738    0.02079     7.82761
      H   13    0.09490      0.00000     0.40417    0.00093     0.40510
      H   14    0.10877      0.00000     0.38981    0.00142     0.39123
      H   15    0.09570      0.00000     0.40352    0.00078     0.40430
      H   16    0.09348      0.00000     0.40457    0.00195     0.40652
      H   17    0.09734      0.00000     0.40134    0.00132     0.40266
      H   18    0.09925      0.00000     0.39951    0.00124     0.40075
      H   19    0.10031      0.00000     0.39842    0.00127     0.39969
      H   20    0.08341      0.00000     0.41476    0.00183     0.41659
      H   21    0.07983      0.00000     0.41835    0.00182     0.42017
      H   22    0.16774      0.00000     0.32985    0.00241     0.33226
      H   23    0.10570      0.00000     0.39130    0.00301     0.39430
      H   24    0.10377      0.00000     0.39461    0.00161     0.39623
      H   25    0.09770      0.00000     0.40052    0.00177     0.40230
      H   26    0.08837      0.00000     0.41048    0.00115     0.41163
 =======================================================================
   * Total *    0.00000     15.99539    33.83241    0.17220    50.00000

 Normal termination of Gaussian 16 at Wed Dec  9 17:54:19 2020.
