 Gaussian 16, Revision A.03,

 -----------------------------------------------------------
 # opt freq B3LYP/6-31G(d) empiricaldispersion=gd3bj scf=xqc
 -----------------------------------------------------------

 -----------------------------
 CID_2050787_JID_7960_neutraal
 -----------------------------
 Symbolic Z-matrix:
 Charge =  0 Multiplicity = 1

 SCF Done:  E(RB3LYP) =  -804.566680378     A.U. after   15 cycles
 SCF Done:  E(RB3LYP) =  -804.571220832     A.U. after   14 cycles
 SCF Done:  E(RB3LYP) =  -804.570700213     A.U. after   13 cycles
 SCF Done:  E(RB3LYP) =  -804.573400080     A.U. after   12 cycles
 SCF Done:  E(RB3LYP) =  -804.573815367     A.U. after   13 cycles
 SCF Done:  E(RB3LYP) =  -804.574392702     A.U. after   13 cycles
 SCF Done:  E(RB3LYP) =  -804.574782092     A.U. after   12 cycles
 SCF Done:  E(RB3LYP) =  -804.575026097     A.U. after   12 cycles
 SCF Done:  E(RB3LYP) =  -804.575162063     A.U. after   12 cycles
 SCF Done:  E(RB3LYP) =  -804.575229985     A.U. after   11 cycles
 SCF Done:  E(RB3LYP) =  -804.575256857     A.U. after   11 cycles
 SCF Done:  E(RB3LYP) =  -804.575263572     A.U. after   10 cycles
 SCF Done:  E(RB3LYP) =  -804.575263723     A.U. after    8 cycles
 SCF Done:  E(RB3LYP) =  -804.575263514     A.U. after    7 cycles
 Optimization completed.
    -- Stationary point found.
 Normal termination of Gaussian 16 at Fri Dec 11 13:28:25 2020.

 --------------------------------------------------------------------
 #N Geom=AllCheck Guess=TCheck SCRF=Check GenChk RB3LYP/6-31G(d) Freq
 --------------------------------------------------------------------

 Structure from the checkpoint file:  "JID_7960.chk"
 -----------------------------
 CID_2050787_JID_7960_neutraal
 -----------------------------
 Charge =  0 Multiplicity = 1

 SCF Done:  E(RB3LYP) =  -804.575263514     A.U. after    1 cycles

  Exact polarizability: 187.575   4.096 129.376   3.731  -3.763 116.878
 Approx polarizability: 221.565  15.141 214.089   1.695 -12.032 179.612

                      1                      2                      3
                      A                      A                      A
 Frequencies --     22.3603                40.2130                47.6728
 Red. masses --      5.5890                 6.0690                 4.3401
 Frc consts  --      0.0016                 0.0058                 0.0058
 IR Inten    --      0.3682                 1.1969                 2.6311

                      4                      5                      6
                      A                      A                      A
 Frequencies --     66.6981                89.9063                96.0712
 Red. masses --      4.7805                 3.7664                 4.9707
 Frc consts  --      0.0125                 0.0179                 0.0270
 IR Inten    --      1.7554                 0.3842                 0.8245

                      7                      8                      9
                      A                      A                      A
 Frequencies --    140.2461               201.6989               228.8523
 Red. masses --      3.4046                 4.5653                 2.2013
 Frc consts  --      0.0395                 0.1094                 0.0679
 IR Inten    --      0.0291                 3.8470                 1.3715

                     10                     11                     12
                      A                      A                      A
 Frequencies --    239.4147               281.0158               300.4165
 Red. masses --      2.5825                 3.4277                 2.1955
 Frc consts  --      0.0872                 0.1595                 0.1167
 IR Inten    --      1.6892                 0.8404                 1.6337

                     13                     14                     15
                      A                      A                      A
 Frequencies --    317.4813               357.6086               371.8395
 Red. masses --      3.5724                 2.8712                 2.9158
 Frc consts  --      0.2122                 0.2163                 0.2375
 IR Inten    --      0.4759                11.2327                 4.3768

                     16                     17                     18
                      A                      A                      A
 Frequencies --    386.7768               388.4535               427.7825
 Red. masses --      2.3715                 4.1383                 4.0028
 Frc consts  --      0.2090                 0.3679                 0.4316
 IR Inten    --      3.1989                 3.1795                 1.5791

                     19                     20                     21
                      A                      A                      A
 Frequencies --    444.7055               469.0018               481.4636
 Red. masses --      2.9850                 2.5104                 2.5049
 Frc consts  --      0.3478                 0.3253                 0.3421
 IR Inten    --      2.7643                 0.2298                 1.3513

                     22                     23                     24
                      A                      A                      A
 Frequencies --    514.5064               543.8283               581.9250
 Red. masses --      1.8382                 2.4257                 2.6459
 Frc consts  --      0.2867                 0.4227                 0.5279
 IR Inten    --      0.7898                 6.9600                39.8668

                     25                     26                     27
                      A                      A                      A
 Frequencies --    629.1953               652.0890               697.5156
 Red. masses --      1.5948                 3.1987                 2.6575
 Frc consts  --      0.3720                 0.8014                 0.7618
 IR Inten    --     15.8090                60.1411                93.7100

                     28                     29                     30
                      A                      A                      A
 Frequencies --    733.2265               782.1648               801.7997
 Red. masses --      4.5481                 2.3794                 1.4571
 Frc consts  --      1.4406                 0.8576                 0.5519
 IR Inten    --     38.1925                 0.5019                 0.6866

                     31                     32                     33
                      A                      A                      A
 Frequencies --    813.5688               827.7076               846.5822
 Red. masses --      8.4447                 3.1825                 1.6238
 Frc consts  --      3.2932                 1.2846                 0.6857
 IR Inten    --     17.9827                 1.0248                 0.5944

                     34                     35                     36
                      A                      A                      A
 Frequencies --    863.7712               906.1942               912.0089
 Red. masses --      2.1484                 1.9420                 2.1189
 Frc consts  --      0.9444                 0.9396                 1.0384
 IR Inten    --      1.2199                 5.9516                 0.7407

                     37                     38                     39
                      A                      A                      A
 Frequencies --    912.6700               938.6767               948.6024
 Red. masses --      2.0810                 1.5927                 2.5947
 Frc consts  --      1.0213                 0.8269                 1.3757
 IR Inten    --      4.2891                 0.0366                 4.6816

                     40                     41                     42
                      A                      A                      A
 Frequencies --    999.1688              1028.5551              1041.4780
 Red. masses --      2.7012                 2.4233                 2.6826
 Frc consts  --      1.5888                 1.5105                 1.7144
 IR Inten    --      6.5055                 3.3817               109.1922

                     43                     44                     45
                      A                      A                      A
 Frequencies --   1046.3752              1068.7842              1079.4215
 Red. masses --      1.8314                 1.5051                 1.7445
 Frc consts  --      1.1814                 1.0130                 1.1976
 IR Inten    --      1.1519                 1.1533                 9.3140

                     46                     47                     48
                      A                      A                      A
 Frequencies --   1093.7074              1097.0847              1104.8845
 Red. masses --      2.2548                 1.1423                 2.8323
 Frc consts  --      1.5891                 0.8100                 2.0371
 IR Inten    --      7.6751                 1.6168                 1.0202

                     49                     50                     51
                      A                      A                      A
 Frequencies --   1156.8052              1172.2311              1196.5193
 Red. masses --      2.7547                 2.4130                 2.5408
 Frc consts  --      2.1719                 1.9536                 2.1431
 IR Inten    --     52.9279               328.1173                89.2381

                     52                     53                     54
                      A                      A                      A
 Frequencies --   1202.6679              1215.8963              1234.3871
 Red. masses --      2.2407                 1.4940                 2.2129
 Frc consts  --      1.9095                 1.3014                 1.9866
 IR Inten    --     19.2779                 2.6345                 7.0972

                     55                     56                     57
                      A                      A                      A
 Frequencies --   1257.8336              1274.5170              1296.4124
 Red. masses --      1.2147                 1.4003                 1.3775
 Frc consts  --      1.1323                 1.3401                 1.3640
 IR Inten    --      4.5911                50.3183                15.1649

                     58                     59                     60
                      A                      A                      A
 Frequencies --   1302.7115              1305.4909              1316.7423
 Red. masses --      1.2924                 1.3863                 1.5117
 Frc consts  --      1.2922                 1.3921                 1.5443
 IR Inten    --      5.5575                 2.7998                35.3075

                     61                     62                     63
                      A                      A                      A
 Frequencies --   1345.1147              1372.9609              1380.8116
 Red. masses --      1.2846                 1.2643                 1.4267
 Frc consts  --      1.3694                 1.4042                 1.6027
 IR Inten    --      1.8341                 0.2701                 6.3751

                     64                     65                     66
                      A                      A                      A
 Frequencies --   1384.4555              1387.6138              1390.2577
 Red. masses --      1.3983                 1.5389                 1.4365
 Frc consts  --      1.5791                 1.7458                 1.6359
 IR Inten    --      4.3649                14.4088                11.4831

                     67                     68                     69
                      A                      A                      A
 Frequencies --   1400.0353              1401.1083              1402.6327
 Red. masses --      1.4479                 1.5779                 1.4348
 Frc consts  --      1.6721                 1.8251                 1.6631
 IR Inten    --      1.0142                 4.5603                16.6251

                     70                     71                     72
                      A                      A                      A
 Frequencies --   1404.8223              1420.7062              1426.3176
 Red. masses --      1.5105                 1.2978                 1.4744
 Frc consts  --      1.7564                 1.5433                 1.7673
 IR Inten    --      5.1204                25.6412                42.6105

                     73                     74                     75
                      A                      A                      A
 Frequencies --   1442.0737              1495.8422              1498.4006
 Red. masses --      1.3554                 2.8424                 1.0904
 Frc consts  --      1.6607                 3.7472                 1.4424
 IR Inten    --      5.6587                83.8770                 5.5410

                     76                     77                     78
                      A                      A                      A
 Frequencies --   1506.9903              1510.1942              1515.0538
 Red. masses --      1.1897                 1.0974                 1.0900
 Frc consts  --      1.5919                 1.4746                 1.4741
 IR Inten    --      8.7217                 2.3219                 1.4745

                     79                     80                     81
                      A                      A                      A
 Frequencies --   1516.7328              1519.4005              1523.7662
 Red. masses --      1.0948                 1.0938                 1.0855
 Frc consts  --      1.4839                 1.4878                 1.4850
 IR Inten    --      4.1365                 6.8026                 8.4411

                     82                     83                     84
                      A                      A                      A
 Frequencies --   1526.4949              1538.1657              1758.4754
 Red. masses --      1.1251                 1.1014                11.5537
 Frc consts  --      1.5447                 1.5353                21.0496
 IR Inten    --      6.6676                 1.3644               419.8393

                     85                     86                     87
                      A                      A                      A
 Frequencies --   1827.4345              3003.5056              3016.9186
 Red. masses --     10.4183                 1.0703                 1.0780
 Frc consts  --     20.4989                 5.6886                 5.7810
 IR Inten    --    234.6254                44.0327                 7.2725

                     88                     89                     90
                      A                      A                      A
 Frequencies --   3022.0279              3022.4404              3024.0802
 Red. masses --      1.0713                 1.0681                 1.0748
 Frc consts  --      5.7647                 5.7489                 5.7909
 IR Inten    --     38.1282                19.8162                13.6796

                     91                     92                     93
                      A                      A                      A
 Frequencies --   3028.6423              3030.6061              3038.4342
 Red. masses --      1.0628                 1.0627                 1.0662
 Frc consts  --      5.7436                 5.7509                 5.7993
 IR Inten    --     19.4345                 5.3158                97.7919

                     94                     95                     96
                      A                      A                      A
 Frequencies --   3054.6299              3068.1229              3074.8336
 Red. masses --      1.0725                 1.0684                 1.0963
 Frc consts  --      5.8963                 5.9254                 6.1072
 IR Inten    --     19.8508                35.3770                65.9275

                     97                     98                     99
                      A                      A                      A
 Frequencies --   3076.4552              3080.1666              3087.2428
 Red. masses --      1.0926                 1.1007                 1.0988
 Frc consts  --      6.0926                 6.1530                 6.1706
 IR Inten    --     67.8844                43.7006                44.7357

                    100                    101                    102
                      A                      A                      A
 Frequencies --   3095.2839              3099.8995              3120.9238
 Red. masses --      1.0975                 1.0946                 1.0931
 Frc consts  --      6.1954                 6.1974                 6.2728
 IR Inten    --     30.5498                58.0674                37.1756

                    103                    104                    105
                      A                      A                      A
 Frequencies --   3161.0358              3177.0851              3673.8790
 Red. masses --      1.0964                 1.0923                 1.0638
 Frc consts  --      6.4549                 6.4960                 8.4601
 IR Inten    --      3.1935                 8.0551                59.7209

 - Thermochemistry -
 -------------------
 Temperature   298.150 Kelvin.  Pressure   1.00000 Atm.
 Atom     1 has atomic number  6 and mass  12.00000

 Molecular mass:   240.14739 amu.
 Principal axes and moments of inertia in atomic units:
                           1         2         3
     Eigenvalues --  1387.849599027.792379222.74882
           X            0.99998   0.00085   0.00552
           Y           -0.00095   0.99981   0.01928
           Z           -0.00550  -0.01928   0.99980
 This molecule is an asymmetric top.
 Rotational symmetry number  1.
 Warning -- assumption of classical behavior for rotation
           may cause significant error
 Rotational temperatures (Kelvin)      0.06241     0.00959     0.00939
 Rotational constants (GHZ):           1.30039     0.19991     0.19568
 Zero-point vibrational energy     853233.3 (Joules/Mol)
                                  203.92764 (Kcal/Mol)
 Warning -- explicit consideration of  24 degrees of freedom as
           vibrations may cause significant error
 Vibrational temperatures:     32.17    57.86    68.59    95.96   129.36
          (Kelvin)            138.23   201.78   290.20   329.27   344.46
                              404.32   432.23   456.78   514.52   534.99
                              556.49   558.90   615.48   639.83   674.79
                              692.72   740.26   782.45   837.26   905.27
                              938.21  1003.57  1054.95  1125.36  1153.61
                             1170.54  1190.89  1218.04  1242.77  1303.81
                             1312.18  1313.13  1350.55  1364.83  1437.58
                             1479.86  1498.45  1505.50  1537.74  1553.05
                             1573.60  1578.46  1589.68  1664.38  1686.58
                             1721.52  1730.37  1749.40  1776.01  1809.74
                             1833.75  1865.25  1874.31  1878.31  1894.50
                             1935.32  1975.38  1986.68  1991.92  1996.47
                             2000.27  2014.34  2015.88  2018.08  2021.23
                             2044.08  2052.15  2074.82  2152.18  2155.86
                             2168.22  2172.83  2179.82  2182.24  2186.08
                             2192.36  2196.29  2213.08  2530.05  2629.27
                             4321.37  4340.67  4348.02  4348.62  4350.98
                             4357.54  4360.37  4371.63  4394.93  4414.34
                             4424.00  4426.33  4431.67  4441.85  4453.42
                             4460.06  4490.31  4548.03  4571.12  5285.89

 Zero-point correction=                           0.324979 (Hartree/Particle)
 Thermal correction to Energy=                    0.340903
 Thermal correction to Enthalpy=                  0.341847
 Thermal correction to Gibbs Free Energy=         0.280121
 Sum of electronic and zero-point Energies=           -804.250284
 Sum of electronic and thermal Energies=              -804.234361
 Sum of electronic and thermal Enthalpies=            -804.233416
 Sum of electronic and thermal Free Energies=         -804.295143

                     E (Thermal)             CV                S
                      KCal/Mol        Cal/Mol-Kelvin    Cal/Mol-Kelvin
 Total                  213.920             61.741            129.915
 Electronic               0.000              0.000              0.000
 Translational            0.889              2.981             42.329
 Rotational               0.889              2.981             33.113
 Vibrational            212.142             55.780             54.472
 Vibration     1          0.593              1.985              6.413
 Vibration     2          0.594              1.981              5.249
 Vibration     3          0.595              1.978              4.912
 Vibration     4          0.598              1.970              4.249
 Vibration     5          0.602              1.956              3.662
 Vibration     6          0.603              1.952              3.532
 Vibration     7          0.615              1.913              2.801
 Vibration     8          0.639              1.837              2.118
 Vibration     9          0.652              1.797              1.888
 Vibration    10          0.657              1.780              1.807
 Vibration    11          0.681              1.709              1.527
 Vibration    12          0.693              1.673              1.415
 Vibration    13          0.704              1.640              1.323
 Vibration    14          0.733              1.560              1.132
 Vibration    15          0.744              1.530              1.072
 Vibration    16          0.755              1.498              1.013
 Vibration    17          0.757              1.495              1.006
 Vibration    18          0.789              1.410              0.866
 Vibration    19          0.804              1.373              0.812
 Vibration    20          0.826              1.319              0.740
 Vibration    21          0.838              1.291              0.706
 Vibration    22          0.870              1.218              0.623
 Vibration    23          0.899              1.153              0.557
 Vibration    24          0.939              1.070              0.482

 Optimization completed.
    -- Stationary point found.
 Normal termination of Gaussian 16 at Fri Dec 11 13:42:01 2020.

 ----------------------------------------------------------------------
 # B3LYP/6-311++G(d,p) empiricaldispersion=gd3bj scf=xqc pop=npa geom=c
 heck
 ----------------------------------------------------------------------

 -------------------------------------
 CID_2050787_JID_7960_Energie_neutraal
 -------------------------------------
 Structure from the checkpoint file:  "JID_7960.chk"
 Charge =  0 Multiplicity = 1

 SCF Done:  E(RB3LYP) =  -804.809132587     A.U. after   15 cycles
 Normal termination of Gaussian 16 at Fri Dec 11 13:48:11 2020.

 ----------------------------------------------------------------------
 # B3LYP/6-311++G(d,p) empiricaldispersion=gd3bj scf=xqc pop=npa geom=c
 heck
 ----------------------------------------------------------------------

 -----------------------------------
 CID_2050787_JID_7960_Energie_kation
 -----------------------------------
 Structure from the checkpoint file:  "JID_7960.chk"
 Charge =  1 Multiplicity = 2

 SCF Done:  E(UB3LYP) =  -804.531929360     A.U. after   22 cycles
 Normal termination of Gaussian 16 at Fri Dec 11 14:00:15 2020.
 Gaussian 16:  ES64L-G16RevA.03 25-Dec-2016

 ----------------------------------------------------------------------
 # B3LYP/6-311++G(d,p) empiricaldispersion=gd3bj scf=xqc pop=npa geom=c
 heck
 ----------------------------------------------------------------------

 ----------------------------------
 CID_2050787_JID_7960_Energie_anion
 ----------------------------------
 Structure from the checkpoint file:  "JID_7960.chk"
 Charge = -1 Multiplicity = 2

                         Standard orientation:
 ---------------------------------------------------------------------
 Center     Atomic      Atomic             Coordinates (Angstroms)
 Number     Number       Type             X           Y           Z
 ---------------------------------------------------------------------
      1          6           0        4.797856    0.318803    0.760930
      2          6           0        4.665755   -0.305680   -0.633504
      3          6           0        3.277382   -0.925790   -0.841907
      4          6           0        2.152193    0.096382   -0.601153
      5          6           0        2.293648    0.713543    0.808338
      6          6           0        3.681459    1.339303    1.012040
      7          7           0        0.849621   -0.481862   -0.945975
      8          6           0        0.286090   -1.514296   -0.085624
      9          6           0       -0.656968   -0.980022    1.006990
     10          7           0       -1.669813   -0.106295    0.411864
     11          6           0       -1.124056    0.985785   -0.393298
     12          6           0       -0.178978    0.405172   -1.461627
     13          6           0       -2.980063   -0.446133    0.530493
     14          8           0       -3.397379   -1.436671    1.119171
     15          6           0       -4.007558    0.540792   -0.040277
     16          8           0       -4.020407    1.734990    0.167340
     17          8           0       -4.960698   -0.107275   -0.731216
     18          1           0        5.780502    0.792140    0.876623
     19          1           0        4.738706   -0.474728    1.520170
     20          1           0        4.831566    0.471916   -1.393432
     21          1           0        5.442332   -1.064347   -0.789240
     22          1           0        3.159964   -1.771676   -0.149828
     23          1           0        3.173781   -1.328978   -1.855019
     24          1           0        2.304290    0.909337   -1.325283
     25          1           0        2.142413   -0.071343    1.562574
     26          1           0        1.514527    1.466798    0.972486
     27          1           0        3.760937    1.755070    2.023879
     28          1           0        3.800929    2.183384    0.316980
     29          1           0       -0.289694   -2.211324   -0.711920
     30          1           0        1.092975   -2.088267    0.377830
     31          1           0       -0.099882   -0.401854    1.753438
     32          1           0       -1.179544   -1.794346    1.509840
     33          1           0       -0.586201    1.674538    0.270205
     34          1           0       -1.933723    1.544753   -0.859423
     35          1           0        0.294603    1.222603   -2.015297
     36          1           0       -0.800343   -0.160426   -2.173618
     37          1           0       -5.619461    0.568342   -0.982956
 ---------------------------------------------------------------------

 SCF Done:  E(UB3LYP) =  -804.804776156     A.U. after   33 cycles
 SCF Done:  E(UB3LYP) =  -804.804776156     a.u. after    1 cycles

 The electronic state is 2-A.
 Alpha  occ. eigenvalues --  -19.06076 -18.99581 -18.96931 -14.23458 -14.20453
 Alpha  occ. eigenvalues --  -10.17515 -10.15236 -10.10455 -10.10253 -10.10157
 Alpha  occ. eigenvalues --  -10.10035 -10.09696 -10.07071 -10.06988 -10.06909
 Alpha  occ. eigenvalues --  -10.06762 -10.06756  -1.00119  -0.92305  -0.90803
 Alpha  occ. eigenvalues --   -0.85122  -0.81235  -0.73209  -0.67370  -0.65399
 Alpha  occ. eigenvalues --   -0.64813  -0.61095  -0.57177  -0.54876  -0.52686
 Alpha  occ. eigenvalues --   -0.51659  -0.48969  -0.46408  -0.44558  -0.41821
 Alpha  occ. eigenvalues --   -0.38721  -0.38035  -0.37820  -0.37251  -0.36426
 Alpha  occ. eigenvalues --   -0.35791  -0.35188  -0.34313  -0.33580  -0.33236
 Alpha  occ. eigenvalues --   -0.31820  -0.30946  -0.29872  -0.28906  -0.28711
 Alpha  occ. eigenvalues --   -0.28256  -0.26972  -0.26715  -0.26477  -0.26050
 Alpha  occ. eigenvalues --   -0.24912  -0.24211  -0.22719  -0.22018  -0.21524
 Alpha  occ. eigenvalues --   -0.20995  -0.19511  -0.15039  -0.13528  -0.10388
 Alpha  occ. eigenvalues --    0.04189
 Alpha virt. eigenvalues --    0.05705   0.06880   0.07257   0.07431   0.08048
 Alpha virt. eigenvalues --    0.09249   0.09513   0.09788   0.10212   0.10678
 Alpha virt. eigenvalues --    0.11963   0.12066   0.12272   0.12764   0.13428

  Beta  occ. eigenvalues --  -19.06014 -18.99373 -18.96743 -14.23433 -14.20452
  Beta  occ. eigenvalues --  -10.17237 -10.15109 -10.10448 -10.10251 -10.10150
  Beta  occ. eigenvalues --  -10.10026 -10.09692 -10.07053 -10.06969 -10.06890
  Beta  occ. eigenvalues --  -10.06753 -10.06741  -0.99839  -0.92004  -0.90478
  Beta  occ. eigenvalues --   -0.85045  -0.81164  -0.73181  -0.67349  -0.65346
  Beta  occ. eigenvalues --   -0.64779  -0.60888  -0.56945  -0.54701  -0.52600
  Beta  occ. eigenvalues --   -0.51607  -0.48899  -0.46345  -0.44447  -0.41613
  Beta  occ. eigenvalues --   -0.38666  -0.38003  -0.37506  -0.37034  -0.36361
  Beta  occ. eigenvalues --   -0.35704  -0.35070  -0.34258  -0.33319  -0.32779
  Beta  occ. eigenvalues --   -0.31568  -0.30882  -0.29813  -0.28790  -0.28623
  Beta  occ. eigenvalues --   -0.28194  -0.26711  -0.26456  -0.26388  -0.25894
  Beta  occ. eigenvalues --   -0.24871  -0.24166  -0.22676  -0.21802  -0.21022
  Beta  occ. eigenvalues --   -0.20758  -0.19263  -0.14667  -0.13249  -0.10279
  Beta virt. eigenvalues --    0.06305   0.07232   0.07548   0.07669   0.08022
  Beta virt. eigenvalues --    0.09164   0.09491   0.09732   0.10071   0.10365
  Beta virt. eigenvalues --    0.10829   0.12158   0.12200   0.12417   0.12823

 Mulliken charges and spin densities:
               1          2
     1  C    0.059343  -0.416982
     2  C    0.107482  -0.672300
     3  C    0.202494  -0.031802
     4  C   -0.691205  -0.338223
     5  C   -0.166380   0.286806
     6  C    0.289585  -0.882502
     7  N    0.301110   0.054013
     8  C    0.359688  -0.528290
     9  C   -0.627681   0.250925
    10  N    0.080447   0.011415
    11  C    0.177279  -0.311963
    12  C   -0.405882   0.104762
    13  C    0.020279   0.075719
    14  O   -0.355179   0.057237
    15  C   -0.082558   0.170139
    16  O   -0.315258   0.069528
    17  O   -0.125809   0.006689
    18  H   -0.353189   0.523690
    19  H    0.007639   0.111771
    20  H   -0.029923   0.156973
    21  H   -0.273856   0.450653
    22  H    0.025488   0.068851
    23  H    0.112124   0.076597
    24  H   -0.020815   0.140923
    25  H    0.063041   0.044546
    26  H    0.126717   0.016041
    27  H   -0.225737   0.395896
    28  H   -0.130542   0.270500
    29  H    0.114946   0.069407
    30  H    0.017318   0.118451
    31  H   -0.050332   0.254333
    32  H    0.204668   0.013162
    33  H    0.146167   0.048525
    34  H    0.159760   0.063130
    35  H   -0.135026   0.264019
    36  H    0.166310   0.005924
    37  H    0.247487   0.001438
 Sum of Mulliken charges =  -1.00000   1.00000

 Dipole moment (field-independent basis, Debye):
    X=             -1.5252    Y=             -0.6708    Z=             -2.5528  Tot=              3.0484
 Quadrupole moment (field-independent basis, Debye-Ang):
   XX=           -206.7293   YY=           -138.2332   ZZ=           -128.5303
   XY=             -9.2582   XZ=              7.7947   YZ=             -1.6060

 Summary of Natural Population Analysis:

                                       Natural Population
                Natural  -----------------------------------------------
    Atom  No    Charge         Core      Valence    Rydberg      Total
 -----------------------------------------------------------------------
      C    1   -0.18926      0.99963     2.18154    0.00809     3.18926
      C    2   -0.18965      0.99963     2.18148    0.00854     3.18965
      C    3   -0.19284      0.99961     2.18294    0.01029     3.19284
      C    4    0.00319      0.99956     1.98474    0.01252     2.99681
      C    5   -0.20137      0.99960     2.19239    0.00938     3.20137
      C    6   -0.18930      0.99963     2.18098    0.00869     3.18930
      N    7   -0.28397      0.99971     2.77090    0.01337     3.78397
      C    8   -0.08917      0.99961     2.07996    0.00960     3.08917
      C    9   -0.10062      0.99961     2.09037    0.01064     3.10062
      N   10   -0.24785      0.99964     2.73839    0.00982     3.74785
      C   11   -0.09399      0.99961     2.08390    0.01049     3.09399
      C   12   -0.08511      0.99961     2.07449    0.01100     3.08511
      C   13    0.31583      0.99960     1.66141    0.02316     2.68417
      O   14   -0.30256      0.99988     3.29713    0.00556     4.30256
      C   15    0.40252      0.99973     1.57185    0.02590     2.59748
      O   16   -0.29904      0.99987     3.29234    0.00683     4.29904
      O   17   -0.33516      0.99987     3.32907    0.00621     4.33516
      H   18    0.09981      0.00000     0.39883    0.00135     0.40019
      H   19    0.09188      0.00000     0.40684    0.00128     0.40812
      H   20    0.09254      0.00000     0.40619    0.00128     0.40746
      H   21    0.09874      0.00000     0.40023    0.00103     0.40126
      H   22    0.09228      0.00000     0.40635    0.00136     0.40772
      H   23    0.10216      0.00000     0.39651    0.00133     0.39784
      H   24    0.09243      0.00000     0.40558    0.00199     0.40757
      H   25    0.09360      0.00000     0.40497    0.00143     0.40640
      H   26    0.10009      0.00000     0.39858    0.00132     0.39991
      H   27    0.09971      0.00000     0.39925    0.00104     0.40029
      H   28    0.09299      0.00000     0.40567    0.00135     0.40701
      H   29    0.09389      0.00000     0.40491    0.00120     0.40611
      H   30    0.09876      0.00000     0.40024    0.00099     0.40124
      H   31    0.09269      0.00000     0.40595    0.00136     0.40731
      H   32    0.11597      0.00000     0.38238    0.00165     0.38403
      H   33    0.09134      0.00000     0.40718    0.00147     0.40866
      H   34    0.11178      0.00000     0.38648    0.00174     0.38822
      H   35    0.09780      0.00000     0.40116    0.00104     0.40220
      H   36    0.09007      0.00000     0.40858    0.00134     0.40993
      H   37    0.22981      0.00000     0.26592    0.00427     0.27019
 =======================================================================
   * Total *    0.00000     16.99440    47.78567    0.21992    65.00000

 Normal termination of Gaussian 16 at Fri Dec 11 14:18:18 2020.
