 Gaussian 16, Revision A.03,

 -----------------------------------------------------------
 # opt freq B3LYP/6-31G(d) empiricaldispersion=gd3bj scf=xqc
 -----------------------------------------------------------

 ------------------------------
 CID_80322875_JID_7586_neutraal
 ------------------------------
 Symbolic Z-matrix:
 Charge =  0 Multiplicity = 1

 SCF Done:  E(RB3LYP) =  -821.693888243     A.U. after   15 cycles
 SCF Done:  E(RB3LYP) =  -821.699485561     A.U. after   13 cycles
 SCF Done:  E(RB3LYP) =  -821.699174779     A.U. after   13 cycles
 SCF Done:  E(RB3LYP) =  -821.699876917     A.U. after   13 cycles
 SCF Done:  E(RB3LYP) =  -821.702133342     A.U. after   14 cycles
 SCF Done:  E(RB3LYP) =  -821.702326814     A.U. after   12 cycles
 SCF Done:  E(RB3LYP) =  -821.702561057     A.U. after   12 cycles
 SCF Done:  E(RB3LYP) =  -821.702650296     A.U. after   11 cycles
 SCF Done:  E(RB3LYP) =  -821.702710583     A.U. after   10 cycles
 SCF Done:  E(RB3LYP) =  -821.702723171     A.U. after   11 cycles
 SCF Done:  E(RB3LYP) =  -821.702727713     A.U. after    9 cycles
 SCF Done:  E(RB3LYP) =  -821.702729446     A.U. after    8 cycles
 SCF Done:  E(RB3LYP) =  -821.702730358     A.U. after    8 cycles
 SCF Done:  E(RB3LYP) =  -821.702730642     A.U. after    7 cycles
 SCF Done:  E(RB3LYP) =  -821.702730772     A.U. after    7 cycles
 Optimization completed.
    -- Stationary point found.
 Normal termination of Gaussian 16 at Thu Dec 17 20:09:48 2020.

 --------------------------------------------------------------------
 #N Geom=AllCheck Guess=TCheck SCRF=Check GenChk RB3LYP/6-31G(d) Freq
 --------------------------------------------------------------------

 Structure from the checkpoint file:  "JID_7586.chk"
 ------------------------------
 CID_80322875_JID_7586_neutraal
 ------------------------------
 Charge =  0 Multiplicity = 1

 SCF Done:  E(RB3LYP) =  -821.702730772     A.U. after    1 cycles

  Exact polarizability: 154.760  -4.264 146.270   3.915   2.067 124.736
 Approx polarizability: 192.596  -8.277 209.130   6.895  10.516 208.578

                      1                      2                      3
                      A                      A                      A
 Frequencies --     21.1339                32.5078                51.5193
 Red. masses --      4.4893                 4.0308                 3.2088
 Frc consts  --      0.0012                 0.0025                 0.0050
 IR Inten    --      0.6231                 0.0502                 0.8291

                      4                      5                      6
                      A                      A                      A
 Frequencies --     63.7593                67.1758                80.7904
 Red. masses --      3.9722                 4.0006                 3.3113
 Frc consts  --      0.0095                 0.0106                 0.0127
 IR Inten    --      1.2548                 0.6000                 0.3836

                      7                      8                      9
                      A                      A                      A
 Frequencies --    104.4993               117.3458               128.3902
 Red. masses --      5.6616                 3.1769                 4.3914
 Frc consts  --      0.0364                 0.0258                 0.0426
 IR Inten    --      3.2830                 1.1129                 0.9193

                     10                     11                     12
                      A                      A                      A
 Frequencies --    178.7889               192.0325               215.0803
 Red. masses --      3.5232                 2.8027                 1.5323
 Frc consts  --      0.0664                 0.0609                 0.0418
 IR Inten    --      1.6198                 1.0196                 1.3941

                     13                     14                     15
                      A                      A                      A
 Frequencies --    237.4937               251.2154               262.8181
 Red. masses --      2.5255                 1.4058                 2.3815
 Frc consts  --      0.0839                 0.0523                 0.0969
 IR Inten    --      5.2444                 1.0367                26.3852

                     16                     17                     18
                      A                      A                      A
 Frequencies --    292.4543               297.1623               317.6831
 Red. masses --      3.1119                 1.8208                 2.4029
 Frc consts  --      0.1568                 0.0947                 0.1429
 IR Inten    --      8.3246                 3.3742                 8.3275

                     19                     20                     21
                      A                      A                      A
 Frequencies --    334.3212               344.6039               357.0510
 Red. masses --      1.7006                 2.9708                 2.5065
 Frc consts  --      0.1120                 0.2079                 0.1883
 IR Inten    --     35.2099                 1.5265                24.0254

                     22                     23                     24
                      A                      A                      A
 Frequencies --    374.5937               381.1095               410.5799
 Red. masses --      1.6113                 2.2776                 2.6797
 Frc consts  --      0.1332                 0.1949                 0.2662
 IR Inten    --     78.2343                 7.6656                10.4134

                     25                     26                     27
                      A                      A                      A
 Frequencies --    437.9975               456.1317               504.9437
 Red. masses --      2.3844                 2.5815                 3.1147
 Frc consts  --      0.2695                 0.3164                 0.4679
 IR Inten    --      1.9114                 4.6403                11.0943

                     28                     29                     30
                      A                      A                      A
 Frequencies --    527.5639               557.9075               624.4861
 Red. masses --      2.6517                 3.2874                 7.0397
 Frc consts  --      0.4348                 0.6029                 1.6175
 IR Inten    --      3.7720                 7.8601                 7.4438

                     31                     32                     33
                      A                      A                      A
 Frequencies --    689.6110               707.1048               745.6082
 Red. masses --      4.9449                 2.5124                 5.8893
 Frc consts  --      1.3855                 0.7401                 1.9290
 IR Inten    --     15.2549                36.7330                16.6720

                     34                     35                     36
                      A                      A                      A
 Frequencies --    781.0609               783.6947               826.9222
 Red. masses --      1.6208                 1.1282                 1.3446
 Frc consts  --      0.5826                 0.4082                 0.5417
 IR Inten    --    166.0328                15.2896                 1.4765

                     37                     38                     39
                      A                      A                      A
 Frequencies --    841.7279               849.0881               867.3299
 Red. masses --      2.5375                 2.3104                 2.6410
 Frc consts  --      1.0593                 0.9814                 1.1705
 IR Inten    --     10.2392                 6.3971                10.4967

                     40                     41                     42
                      A                      A                      A
 Frequencies --    917.0193               940.9864               956.3036
 Red. masses --      2.5471                 2.1970                 1.7203
 Frc consts  --      1.2620                 1.1461                 0.9269
 IR Inten    --      6.7030                 1.9615                 4.7589

                     43                     44                     45
                      A                      A                      A
 Frequencies --    985.5113              1008.3786              1017.4486
 Red. masses --      5.0900                 2.1542                 2.3639
 Frc consts  --      2.9127                 1.2906                 1.4418
 IR Inten    --     75.6533                19.4402                36.8889

                     46                     47                     48
                      A                      A                      A
 Frequencies --   1046.5417              1062.6540              1066.3797
 Red. masses --      1.8362                 1.8906                 1.6406
 Frc consts  --      1.1849                 1.2579                 1.0992
 IR Inten    --     11.7795                24.4329                11.1720

                     49                     50                     51
                      A                      A                      A
 Frequencies --   1079.5916              1080.9991              1099.6808
 Red. masses --      1.3977                 2.0819                 1.6257
 Frc consts  --      0.9598                 1.4334                 1.1583
 IR Inten    --      4.0397                 9.3782                49.8745

                     52                     53                     54
                      A                      A                      A
 Frequencies --   1108.7916              1143.5777              1154.5868
 Red. masses --      2.8099                 1.1456                 1.4165
 Frc consts  --      2.0353                 0.8827                 1.1125
 IR Inten    --      7.5526                 3.7196                24.0513

                     55                     56                     57
                      A                      A                      A
 Frequencies --   1163.8746              1172.9698              1192.9888
 Red. masses --      1.8978                 2.4284                 1.8093
 Frc consts  --      1.5147                 1.9686                 1.5172
 IR Inten    --     52.5443                87.3968                31.5995

                     58                     59                     60
                      A                      A                      A
 Frequencies --   1208.3079              1219.0059              1237.8476
 Red. masses --      1.4158                 1.9354                 1.7775
 Frc consts  --      1.2179                 1.6945                 1.6047
 IR Inten    --      1.2383                45.8947                 2.9724

                     61                     62                     63
                      A                      A                      A
 Frequencies --   1243.8226              1302.6264              1307.2680
 Red. masses --      2.3684                 1.2254                 1.6334
 Frc consts  --      2.1588                 1.2251                 1.6446
 IR Inten    --      5.0307                10.8459                43.2443

                     64                     65                     66
                      A                      A                      A
 Frequencies --   1317.4876              1335.9712              1342.6532
 Red. masses --      1.5526                 1.3385                 1.1604
 Frc consts  --      1.5878                 1.4075                 1.2325
 IR Inten    --     60.0666                48.2281                14.6108

                     67                     68                     69
                      A                      A                      A
 Frequencies --   1371.2918              1401.6495              1406.9034
 Red. masses --      1.9047                 1.2801                 1.3387
 Frc consts  --      2.1102                 1.4817                 1.5613
 IR Inten    --     40.6946                 8.6530                 4.8390

                     70                     71                     72
                      A                      A                      A
 Frequencies --   1418.0400              1434.5206              1440.1175
 Red. masses --      1.5891                 1.3409                 1.4578
 Frc consts  --      1.8827                 1.6258                 1.7813
 IR Inten    --      1.1589                28.0244                10.5572

                     73                     74                     75
                      A                      A                      A
 Frequencies --   1456.0944              1469.7376              1492.4435
 Red. masses --      1.9171                 1.4954                 1.0922
 Frc consts  --      2.3949                 1.9033                 1.4334
 IR Inten    --     70.7317                11.5369                11.3096

                     76                     77                     78
                      A                      A                      A
 Frequencies --   1496.8533              1507.5303              1510.6895
 Red. masses --      1.0896                 1.2154                 1.1225
 Frc consts  --      1.4384                 1.6275                 1.5094
 IR Inten    --      1.2752                 4.6183                 2.7817

                     79                     80                     81
                      A                      A                      A
 Frequencies --   1525.6650              1536.0017              1539.5716
 Red. masses --      1.0620                 1.3111                 1.0532
 Frc consts  --      1.4564                 1.8225                 1.4709
 IR Inten    --     10.0261                 6.1756                 5.8608

                     82                     83                     84
                      A                      A                      A
 Frequencies --   1541.1029              1549.2930              1555.7328
 Red. masses --      1.1133                 1.1398                 1.1175
 Frc consts  --      1.5579                 1.6119                 1.5936
 IR Inten    --     35.3821                34.3904                 4.2732

                     85                     86                     87
                      A                      A                      A
 Frequencies --   1667.2399              1732.5473              1746.1661
 Red. masses --      1.1916                 5.7012                 9.4056
 Frc consts  --      1.9515                10.0829                16.8969
 IR Inten    --     72.9305                57.2753               258.2231

                     88                     89                     90
                      A                      A                      A
 Frequencies --   2966.2463              2973.1158              3028.3034
 Red. masses --      1.0709                 1.0704                 1.0713
 Frc consts  --      5.5515                 5.5747                 5.7883
 IR Inten    --     19.9568                73.6669                30.4815

                     91                     92                     93
                      A                      A                      A
 Frequencies --   3042.8408              3054.4173              3085.7202
 Red. masses --      1.0482                 1.0392                 1.0913
 Frc consts  --      5.7179                 5.7123                 6.1222
 IR Inten    --     53.2601                23.5221                19.4791

                     94                     95                     96
                      A                      A                      A
 Frequencies --   3089.2815              3090.5946              3113.6806
 Red. masses --      1.0907                 1.0841                 1.0947
 Frc consts  --      6.1332                 6.1010                 6.2530
 IR Inten    --     48.4422                 0.0946                28.5618

                     97                     98                     99
                      A                      A                      A
 Frequencies --   3121.8070              3141.5856              3145.4077
 Red. masses --      1.0972                 1.0522                 1.1028
 Frc consts  --      6.2999                 6.1185                 6.4281
 IR Inten    --     29.6436                22.4256                12.1660

                    100                    101                    102
                      A                      A                      A
 Frequencies --   3147.4822              3164.7606              3166.3955
 Red. masses --      1.0576                 1.0919                 1.0901
 Frc consts  --      6.1731                 6.4433                 6.4391
 IR Inten    --     14.3909                 4.5443                10.2896

                    103                    104                    105
                      A                      A                      A
 Frequencies --   3185.0025              3216.1472              3230.8531
 Red. masses --      1.0978                 1.1187                 1.1155
 Frc consts  --      6.5614                 6.8175                 6.8605
 IR Inten    --      2.7254                 1.1788                32.3154

                    106                    107                    108
                      A                      A                      A
 Frequencies --   3526.4132              3628.0085              3774.1302
 Red. masses --      1.0476                 1.0970                 1.0679
 Frc consts  --      7.6755                 8.5073                 8.9622
 IR Inten    --      9.9358                11.5896                67.2939

 - Thermochemistry -
 -------------------
 Temperature   298.150 Kelvin.  Pressure   1.00000 Atm.
 Atom     1 has atomic number  6 and mass  12.00000

 Molecular mass:   243.15829 amu.
 Principal axes and moments of inertia in atomic units:
                           1         2         3
     Eigenvalues --  2270.928477114.254438013.71448
           X            0.99998  -0.00560   0.00349
           Y            0.00567   0.99982  -0.01813
           Z           -0.00339   0.01815   0.99983
 This molecule is an asymmetric top.
 Rotational symmetry number  1.
 Warning -- assumption of classical behavior for rotation
           may cause significant error
 Rotational temperatures (Kelvin)      0.03814     0.01217     0.01081
 Rotational constants (GHZ):           0.79472     0.25368     0.22521
 Zero-point vibrational energy     865617.5 (Joules/Mol)
                                  206.88755 (Kcal/Mol)
 Warning -- explicit consideration of  29 degrees of freedom as
           vibrations may cause significant error
 Vibrational temperatures:     30.41    46.77    74.12    91.74    96.65
          (Kelvin)            116.24   150.35   168.83   184.72   257.24
                              276.29   309.45   341.70   361.44   378.14
                              420.78   427.55   457.08   481.01   495.81
                              513.72   538.96   548.33   590.73   630.18
                              656.27   726.50   759.05   802.70   898.50
                              992.20  1017.37  1072.76  1123.77  1127.56
                             1189.76  1211.06  1221.65  1247.89  1319.39
                             1353.87  1375.91  1417.93  1450.83  1463.88
                             1505.74  1528.92  1534.28  1553.29  1555.32
                             1582.20  1595.30  1645.35  1661.19  1674.56
                             1687.64  1716.44  1738.49  1753.88  1780.99
                             1789.58  1874.19  1880.87  1895.57  1922.16
                             1931.78  1972.98  2016.66  2024.22  2040.24
                             2063.96  2072.01  2095.00  2114.62  2147.29
                             2153.64  2169.00  2173.55  2195.09  2209.96
                             2215.10  2217.30  2229.09  2238.35  2398.79
                             2492.75  2512.34  4267.77  4277.65  4357.05
                             4377.97  4394.63  4439.66  4444.79  4446.68
                             4479.89  4491.58  4520.04  4525.54  4528.52
                             4553.38  4555.74  4582.51  4627.32  4648.48
                             5073.72  5219.90  5430.13

 Zero-point correction=                           0.329696 (Hartree/Particle)
 Thermal correction to Energy=                    0.348891
 Thermal correction to Enthalpy=                  0.349835
 Thermal correction to Gibbs Free Energy=         0.281092
 Sum of electronic and zero-point Energies=           -821.373034
 Sum of electronic and thermal Energies=              -821.353840
 Sum of electronic and thermal Enthalpies=            -821.352896
 Sum of electronic and thermal Free Energies=         -821.421639

                     E (Thermal)             CV                S
                      KCal/Mol        Cal/Mol-Kelvin    Cal/Mol-Kelvin
 Total                  218.932             70.760            144.682
 Electronic               0.000              0.000              0.000
 Translational            0.889              2.981             42.367
 Rotational               0.889              2.981             33.226
 Vibrational            217.155             64.799             69.089
 Vibration     1          0.593              1.985              6.525
 Vibration     2          0.594              1.983              5.670
 Vibration     3          0.596              1.977              4.758
 Vibration     4          0.597              1.972              4.337
 Vibration     5          0.598              1.970              4.234
 Vibration     6          0.600              1.962              3.872
 Vibration     7          0.605              1.946              3.369
 Vibration     8          0.608              1.935              3.144
 Vibration     9          0.611              1.925              2.970
 Vibration    10          0.629              1.868              2.341
 Vibration    11          0.634              1.851              2.208
 Vibration    12          0.645              1.818              2.000
 Vibration    13          0.656              1.783              1.822
 Vibration    14          0.663              1.761              1.722
 Vibration    15          0.670              1.741              1.643
 Vibration    16          0.688              1.688              1.460
 Vibration    17          0.691              1.679              1.433
 Vibration    18          0.704              1.640              1.322
 Vibration    19          0.716              1.607              1.239
 Vibration    20          0.723              1.586              1.191
 Vibration    21          0.732              1.561              1.135
 Vibration    22          0.746              1.524              1.061
 Vibration    23          0.751              1.510              1.035
 Vibration    24          0.775              1.447              0.925
 Vibration    25          0.798              1.387              0.833
 Vibration    26          0.814              1.347              0.777
 Vibration    27          0.860              1.239              0.646
 Vibration    28          0.883              1.189              0.593
 Vibration    29          0.913              1.122              0.528

 Optimization completed.
    -- Stationary point found.
 Normal termination of Gaussian 16 at Thu Dec 17 20:23:41 2020.

 ----------------------------------------------------------------------
 # B3LYP/6-311++G(d,p) empiricaldispersion=gd3bj scf=xqc pop=npa geom=c
 heck
 ----------------------------------------------------------------------

 --------------------------------------
 CID_80322875_JID_7586_Energie_neutraal
 --------------------------------------
 Structure from the checkpoint file:  "JID_7586.chk"
 Charge =  0 Multiplicity = 1

 SCF Done:  E(RB3LYP) =  -821.956299652     A.U. after   16 cycles
 Normal termination of Gaussian 16 at Thu Dec 17 20:30:22 2020.

 ----------------------------------------------------------------------
 # B3LYP/6-311++G(d,p) empiricaldispersion=gd3bj scf=xqc pop=npa geom=c
 heck
 ----------------------------------------------------------------------

 ------------------------------------
 CID_80322875_JID_7586_Energie_kation
 ------------------------------------
 Structure from the checkpoint file:  "JID_7586.chk"
 Charge =  1 Multiplicity = 2

 SCF Done:  E(UB3LYP) =  -821.660808030     A.U. after   28 cycles
 Normal termination of Gaussian 16 at Thu Dec 17 20:46:09 2020.
 Gaussian 16:  ES64L-G16RevA.03 25-Dec-2016

 ----------------------------------------------------------------------
 # B3LYP/6-311++G(d,p) empiricaldispersion=gd3bj scf=xqc pop=npa geom=c
 heck
 ----------------------------------------------------------------------

 -----------------------------------
 CID_80322875_JID_7586_Energie_anion
 -----------------------------------
 Structure from the checkpoint file:  "JID_7586.chk"
 Charge = -1 Multiplicity = 2

                         Standard orientation:
 ---------------------------------------------------------------------
 Center     Atomic      Atomic             Coordinates (Angstroms)
 Number     Number       Type             X           Y           Z
 ---------------------------------------------------------------------
      1          6           0        0.913388    2.208427   -0.099088
      2          6           0        1.792163    1.039926   -0.579324
      3          6           0        3.067478    0.838756    0.215278
      4          7           0        3.949933   -0.061807   -0.037634
      5          8           0        3.517877   -0.891957   -1.104962
      6          7           0        3.292305    1.643928    1.335506
      7          6           0        0.888881   -0.201482   -0.777258
      8          8           0        0.379976   -0.362772   -1.883067
      9          7           0        0.566799   -0.992177    0.292322
     10          6           0        1.183461   -0.912566    1.608733
     11          6           0       -0.248880   -2.185287    0.051481
     12          6           0       -1.638888   -2.150315    0.704879
     13          8           0       -2.638489   -1.469120   -0.017320
     14          6           0       -2.456059   -0.060546   -0.133274
     15          6           0       -3.765768    0.563330   -0.529466
     16          6           0       -4.800388    0.864866    0.521344
     17          6           0       -4.042840    1.993597   -0.136261
     18          1           0        0.581655    2.075847    0.935024
     19          1           0        0.028733    2.272759   -0.738387
     20          1           0        1.440484    3.166872   -0.173349
     21          1           0        2.105126    1.242760   -1.607856
     22          1           0        4.260171   -1.508022   -1.191891
     23          1           0        3.086419    2.626086    1.193064
     24          1           0        4.227724    1.511111    1.708209
     25          1           0        0.465463   -1.265691    2.354295
     26          1           0        2.085783   -1.535324    1.668709
     27          1           0        1.452735    0.109426    1.869472
     28          1           0       -0.359114   -2.300808   -1.026967
     29          1           0        0.300391   -3.053177    0.443344
     30          1           0       -1.999924   -3.181145    0.791318
     31          1           0       -1.562713   -1.740601    1.728033
     32          1           0       -2.121494    0.356893    0.832562
     33          1           0       -1.687648    0.157803   -0.883689
     34          1           0       -4.133790    0.242742   -1.501562
     35          1           0       -5.848077    0.730001    0.268612
     36          1           0       -4.556493    0.617083    1.551304
     37          1           0       -3.291107    2.514743    0.452036
     38          1           0       -4.567785    2.629586   -0.843116
 ---------------------------------------------------------------------

 SCF Done:  E(UB3LYP) =  -821.947223136     A.U. after   33 cycles
 SCF Done:  E(UB3LYP) =  -821.947223137     a.u. after    1 cycles

 The electronic state is 2-A.
 Alpha  occ. eigenvalues --  -19.06601 -19.03224 -18.98863 -14.25088 -14.24650
 Alpha  occ. eigenvalues --  -14.22176 -10.17762 -10.14633 -10.13125 -10.11996
 Alpha  occ. eigenvalues --  -10.11241 -10.10390 -10.10067 -10.09097 -10.08839
 Alpha  occ. eigenvalues --  -10.08679 -10.07151  -0.98308  -0.94809  -0.94164
 Alpha  occ. eigenvalues --   -0.84480  -0.83895  -0.77635  -0.72864  -0.69607
 Alpha  occ. eigenvalues --   -0.66840  -0.62146  -0.60683  -0.56120  -0.53299
 Alpha  occ. eigenvalues --   -0.51735  -0.48899  -0.48627  -0.46154  -0.44992
 Alpha  occ. eigenvalues --   -0.41904  -0.40980  -0.39864  -0.39418  -0.38882
 Alpha  occ. eigenvalues --   -0.37827  -0.37489  -0.36835  -0.35407  -0.34055
 Alpha  occ. eigenvalues --   -0.33797  -0.32580  -0.31526  -0.30610  -0.30247
 Alpha  occ. eigenvalues --   -0.30083  -0.29240  -0.28425  -0.28309  -0.27106
 Alpha  occ. eigenvalues --   -0.26676  -0.25651  -0.22985  -0.22728  -0.21422
 Alpha  occ. eigenvalues --   -0.20725  -0.18855  -0.17381  -0.16037  -0.14956
 Alpha  occ. eigenvalues --   -0.12924   0.04189
 Alpha virt. eigenvalues --    0.06101   0.06460   0.07189   0.07880   0.08167
 Alpha virt. eigenvalues --    0.08538   0.09481   0.09684   0.09875   0.10437
 Alpha virt. eigenvalues --    0.11056   0.11330   0.11668   0.12102   0.12583

  Beta  occ. eigenvalues --  -19.06596 -19.03221 -18.98857 -14.25083 -14.24639
  Beta  occ. eigenvalues --  -14.22100 -10.17762 -10.14627 -10.13112 -10.11988
  Beta  occ. eigenvalues --  -10.11236 -10.10361 -10.10061 -10.09097 -10.08828
  Beta  occ. eigenvalues --  -10.08672 -10.07097  -0.98297  -0.94800  -0.94155
  Beta  occ. eigenvalues --   -0.84450  -0.83842  -0.77628  -0.72794  -0.69579
  Beta  occ. eigenvalues --   -0.66817  -0.62116  -0.60656  -0.56044  -0.53270
  Beta  occ. eigenvalues --   -0.51706  -0.48821  -0.48601  -0.46121  -0.44958
  Beta  occ. eigenvalues --   -0.41894  -0.40954  -0.39843  -0.39379  -0.38847
  Beta  occ. eigenvalues --   -0.37771  -0.37463  -0.36803  -0.35379  -0.34033
  Beta  occ. eigenvalues --   -0.33771  -0.32536  -0.31507  -0.30583  -0.30219
  Beta  occ. eigenvalues --   -0.30054  -0.29207  -0.28408  -0.28292  -0.27080
  Beta  occ. eigenvalues --   -0.26644  -0.25623  -0.22964  -0.22687  -0.21410
  Beta  occ. eigenvalues --   -0.20716  -0.18819  -0.17359  -0.16023  -0.14931
  Beta  occ. eigenvalues --   -0.12891
  Beta virt. eigenvalues --    0.06206   0.06536   0.07351   0.07452   0.08142
  Beta virt. eigenvalues --    0.08589   0.08903   0.09752   0.09857   0.10231
  Beta virt. eigenvalues --    0.10563   0.11348   0.11497   0.12104   0.12437

 Mulliken charges and spin densities:
               1          2
     1  C    1.183668  -2.000232
     2  C   -0.495909   0.822976
     3  C    0.880577  -1.148615
     4  N   -0.306251   0.066158
     5  O   -0.112491   0.002578
     6  N   -0.374091   0.168072
     7  C   -0.304275  -0.319118
     8  O   -0.236793   0.006926
     9  N    0.122729   0.077836
    10  C    0.224959  -0.624545
    11  C   -0.289318   0.247676
    12  C    0.030760  -0.342941
    13  O   -0.063395   0.004820
    14  C   -0.138692  -0.576602
    15  C   -0.441870   0.784884
    16  C   -0.310394  -0.083674
    17  C    0.041700  -0.466823
    18  H   -0.233656   0.428897
    19  H    0.159234   0.019421
    20  H   -0.804289   0.975092
    21  H    0.176757   0.104859
    22  H    0.250207   0.015174
    23  H   -0.386162   0.656087
    24  H   -0.375894   0.645471
    25  H   -0.531158   0.685665
    26  H    0.074067   0.108944
    27  H    0.176277   0.031038
    28  H    0.236819   0.000540
    29  H    0.091911   0.057426
    30  H   -0.012168   0.179324
    31  H    0.073304   0.070738
    32  H    0.221464  -0.107994
    33  H    0.280779  -0.070564
    34  H    0.169520   0.047189
    35  H    0.087999   0.043452
    36  H   -0.072666   0.219868
    37  H   -0.037227   0.175321
    38  H    0.043967   0.094674
 Sum of Mulliken charges =  -1.00000   1.00000

 Dipole moment (field-independent basis, Debye):
    X=             -4.3873    Y=             -6.9690    Z=             -3.6249  Tot=              8.9975
 Quadrupole moment (field-independent basis, Debye-Ang):
   XX=           -170.2741   YY=           -155.8133   ZZ=           -147.9031
   XY=            -23.7307   XZ=             -8.1924   YZ=             -8.2673

 Summary of Natural Population Analysis:

                                       Natural Population
                Natural  -----------------------------------------------
    Atom  No    Charge         Core      Valence    Rydberg      Total
 -----------------------------------------------------------------------
      C    1   -0.28471      0.99964     2.27818    0.00689     3.28471
      C    2   -0.17929      0.99951     2.16677    0.01301     3.17929
      C    3    0.20555      0.99959     1.77396    0.02090     2.79445
      N    4   -0.13212      0.99958     2.61891    0.01363     3.63212
      O    5   -0.29118      0.99990     3.28513    0.00615     4.29118
      N    6   -0.40038      0.99971     2.88971    0.01095     3.90038
      C    7    0.36623      0.99960     1.60871    0.02546     2.63377
      O    8   -0.33279      0.99988     3.32788    0.00504     4.33279
      N    9   -0.26100      0.99962     2.75020    0.01118     3.76100
      C   10   -0.18152      0.99962     2.17336    0.00854     3.18152
      C   11   -0.10283      0.99960     2.09322    0.01000     3.10283
      C   12   -0.01102      0.99958     1.99869    0.01276     3.01102
      O   13   -0.29954      0.99988     3.29110    0.00856     4.29954
      C   14   -0.01896      0.99954     2.00607    0.01336     3.01896
      C   15   -0.11808      0.99959     2.10828    0.01022     3.11808
      C   16   -0.19864      0.99962     2.19106    0.00795     3.19864
      C   17   -0.19900      0.99963     2.19179    0.00759     3.19900
      H   18    0.10411      0.00000     0.39396    0.00193     0.39589
      H   19    0.10658      0.00000     0.39215    0.00126     0.39342
      H   20    0.10595      0.00000     0.39177    0.00228     0.39405
      H   21    0.12799      0.00000     0.37056    0.00145     0.37201
      H   22    0.23230      0.00000     0.26508    0.00262     0.26770
      H   23    0.19750      0.00000     0.28696    0.01554     0.30250
      H   24    0.19205      0.00000     0.30321    0.00475     0.30795
      H   25    0.09729      0.00000     0.40120    0.00151     0.40271
      H   26    0.09557      0.00000     0.40328    0.00115     0.40443
      H   27    0.11334      0.00000     0.38419    0.00247     0.38666
      H   28    0.11889      0.00000     0.37979    0.00132     0.38111
      H   29    0.09343      0.00000     0.40544    0.00113     0.40657
      H   30    0.08896      0.00000     0.41004    0.00100     0.41104
      H   31    0.07906      0.00000     0.41948    0.00146     0.42094
      H   32    0.07859      0.00000     0.41917    0.00225     0.42141
      H   33    0.09717      0.00000     0.40098    0.00185     0.40283
      H   34    0.10319      0.00000     0.39578    0.00103     0.39681
      H   35    0.09882      0.00000     0.40043    0.00076     0.40118
      H   36    0.10318      0.00000     0.39596    0.00086     0.39682
      H   37    0.10523      0.00000     0.39381    0.00096     0.39477
      H   38    0.10008      0.00000     0.39917    0.00075     0.39992
 =======================================================================
   * Total *   -0.00000     16.99408    48.76541    0.24051    66.00000

 Normal termination of Gaussian 16 at Thu Dec 17 21:04:35 2020.
