 Gaussian 16, Revision A.03,

 -----------------------------------------------------------
 # opt freq B3LYP/6-31G(d) empiricaldispersion=gd3bj scf=xqc
 -----------------------------------------------------------

 -------------------------------
 CID_104643985_JID_4991_neutraal
 -------------------------------
 Symbolic Z-matrix:
 Charge =  0 Multiplicity = 1

 SCF Done:  E(RB3LYP) =  -710.065284382     A.U. after   14 cycles
 SCF Done:  E(RB3LYP) =  -710.069890885     A.U. after   12 cycles
 SCF Done:  E(RB3LYP) =  -710.069911847     A.U. after   12 cycles
 SCF Done:  E(RB3LYP) =  -710.070251604     A.U. after   12 cycles
 SCF Done:  E(RB3LYP) =  -710.070849517     A.U. after   11 cycles
 SCF Done:  E(RB3LYP) =  -710.070924005     A.U. after   11 cycles
 SCF Done:  E(RB3LYP) =  -710.071099296     A.U. after   11 cycles
 SCF Done:  E(RB3LYP) =  -710.071148185     A.U. after   10 cycles
 SCF Done:  E(RB3LYP) =  -710.071172031     A.U. after   10 cycles
 SCF Done:  E(RB3LYP) =  -710.071180076     A.U. after   10 cycles
 SCF Done:  E(RB3LYP) =  -710.071185196     A.U. after    9 cycles
 SCF Done:  E(RB3LYP) =  -710.071186511     A.U. after    9 cycles
 SCF Done:  E(RB3LYP) =  -710.071187201     A.U. after    8 cycles
 SCF Done:  E(RB3LYP) =  -710.071187623     A.U. after    8 cycles
 SCF Done:  E(RB3LYP) =  -710.071187805     A.U. after    7 cycles
 SCF Done:  E(RB3LYP) =  -710.071187837     A.U. after    7 cycles
 Optimization completed.
    -- Stationary point found.
 Normal termination of Gaussian 16 at Thu Dec 10 11:06:39 2020.

 --------------------------------------------------------------------
 #N Geom=AllCheck Guess=TCheck SCRF=Check GenChk RB3LYP/6-31G(d) Freq
 --------------------------------------------------------------------

 Structure from the checkpoint file:  "JID_4991.chk"
 -------------------------------
 CID_104643985_JID_4991_neutraal
 -------------------------------
 Charge =  0 Multiplicity = 1

 SCF Done:  E(RB3LYP) =  -710.071187838     A.U. after    1 cycles

  Exact polarizability: 141.671  -1.240 112.526   3.310   3.389  95.666
 Approx polarizability: 166.140   3.282 168.588   5.981   4.432 137.883

                      1                      2                      3
                      A                      A                      A
 Frequencies --     24.5287                30.0096                49.1535
 Red. masses --      3.8263                 4.3817                 5.1084
 Frc consts  --      0.0014                 0.0023                 0.0073
 IR Inten    --      0.0148                 0.4553                 0.8035

                      4                      5                      6
                      A                      A                      A
 Frequencies --     62.2225                94.3413                97.3720
 Red. masses --      3.5861                 3.1778                 3.5806
 Frc consts  --      0.0082                 0.0167                 0.0200
 IR Inten    --      0.1187                 5.6762                 1.6258

                      7                      8                      9
                      A                      A                      A
 Frequencies --    125.6439               134.7902               182.3381
 Red. masses --      2.2449                 1.1866                 2.1139
 Frc consts  --      0.0209                 0.0127                 0.0414
 IR Inten    --      0.8937                 0.0668                 2.6407

                     10                     11                     12
                      A                      A                      A
 Frequencies --    189.7073               225.8920               232.8125
 Red. masses --      3.6023                 1.8705                 2.1541
 Frc consts  --      0.0764                 0.0562                 0.0688
 IR Inten    --      0.9119                 0.8972                 1.4584

                     13                     14                     15
                      A                      A                      A
 Frequencies --    247.6358               289.0178               290.3972
 Red. masses --      2.0196                 2.0979                 1.6345
 Frc consts  --      0.0730                 0.1033                 0.0812
 IR Inten    --      0.4013                 1.2012                 0.9975

                     16                     17                     18
                      A                      A                      A
 Frequencies --    318.1679               325.1782               363.8825
 Red. masses --      2.9493                 1.9492                 1.8782
 Frc consts  --      0.1759                 0.1214                 0.1465
 IR Inten    --      3.1972                 1.1836                53.0786

                     19                     20                     21
                      A                      A                      A
 Frequencies --    377.3585               388.9128               417.9275
 Red. masses --      2.0738                 3.0633                 2.5782
 Frc consts  --      0.1740                 0.2730                 0.2653
 IR Inten    --     24.3488                37.7711                 9.2744

                     22                     23                     24
                      A                      A                      A
 Frequencies --    457.0485               479.3200               507.7555
 Red. masses --      2.4528                 2.9084                 3.3932
 Frc consts  --      0.3019                 0.3937                 0.5154
 IR Inten    --     10.1104                 2.2701                 7.5175

                     25                     26                     27
                      A                      A                      A
 Frequencies --    551.0279               676.0387               741.9509
 Red. masses --      2.3298                 1.8644                 4.5992
 Frc consts  --      0.4168                 0.5020                 1.4917
 IR Inten    --      2.6643                30.1462                36.5662

                     28                     29                     30
                      A                      A                      A
 Frequencies --    754.2706               807.4452               815.6820
 Red. masses --      2.4127                 3.7905                 2.1876
 Frc consts  --      0.8087                 1.4560                 0.8575
 IR Inten    --     78.7159                 2.4287                26.3862

                     31                     32                     33
                      A                      A                      A
 Frequencies --    821.4223               874.2427               905.9756
 Red. masses --      1.2582                 2.5621                 1.9184
 Frc consts  --      0.5002                 1.1538                 0.9277
 IR Inten    --      9.4903                27.7549                 1.1975

                     34                     35                     36
                      A                      A                      A
 Frequencies --    909.0384               967.4717               984.2624
 Red. masses --      2.2994                 1.9702                 2.2771
 Frc consts  --      1.1195                 1.0865                 1.2997
 IR Inten    --      4.1898                 0.5955                10.9308

                     37                     38                     39
                      A                      A                      A
 Frequencies --   1017.1636              1030.1595              1078.7116
 Red. masses --      4.3306                 2.5824                 2.4263
 Frc consts  --      2.6399                 1.6147                 1.6634
 IR Inten    --     15.7104                36.8293                43.9217

                     40                     41                     42
                      A                      A                      A
 Frequencies --   1097.5727              1111.7604              1137.1525
 Red. masses --      2.3310                 2.1826                 1.9714
 Frc consts  --      1.6545                 1.5894                 1.5020
 IR Inten    --     14.9012                 1.9579                40.0645

                     43                     44                     45
                      A                      A                      A
 Frequencies --   1159.1323              1183.5270              1185.5709
 Red. masses --      2.7988                 2.2626                 1.4663
 Frc consts  --      2.2156                 1.8673                 1.2143
 IR Inten    --     56.3137                42.3688                19.3385

                     46                     47                     48
                      A                      A                      A
 Frequencies --   1188.0269              1208.8793              1218.9755
 Red. masses --      3.3150                 2.3282                 2.0890
 Frc consts  --      2.7567                 2.0046                 1.8289
 IR Inten    --     36.1867               125.4056                65.4932

                     49                     50                     51
                      A                      A                      A
 Frequencies --   1223.7955              1271.5267              1296.2005
 Red. masses --      1.6203                 1.3820                 2.2685
 Frc consts  --      1.4298                 1.3164                 2.2456
 IR Inten    --     16.8258               166.1251               236.0217

                     52                     53                     54
                      A                      A                      A
 Frequencies --   1323.1051              1344.4531              1374.0285
 Red. masses --      1.2925                 1.1799                 1.2073
 Frc consts  --      1.3331                 1.2566                 1.3430
 IR Inten    --     35.4527                 4.4405                 9.9504

                     55                     56                     57
                      A                      A                      A
 Frequencies --   1389.4323              1402.7167              1415.8639
 Red. masses --      1.2384                 1.2439                 1.2721
 Frc consts  --      1.4086                 1.4420                 1.5025
 IR Inten    --      9.3241                 5.5494                 2.0999

                     58                     59                     60
                      A                      A                      A
 Frequencies --   1427.9891              1433.3798              1444.7348
 Red. masses --      1.2801                 1.2937                 1.3275
 Frc consts  --      1.5380                 1.5661                 1.6325
 IR Inten    --      8.4896                25.6237                17.1439

                     61                     62                     63
                      A                      A                      A
 Frequencies --   1445.7669              1493.1343              1497.0210
 Red. masses --      1.4429                 1.2063                 1.1059
 Frc consts  --      1.7770                 1.5846                 1.4602
 IR Inten    --     27.1876                 6.1808                 3.5470

                     64                     65                     66
                      A                      A                      A
 Frequencies --   1510.3394              1513.1777              1514.2928
 Red. masses --      1.1281                 1.0477                 1.0799
 Frc consts  --      1.5162                 1.4134                 1.4590
 IR Inten    --      2.4308                 6.9326                 2.5071

                     67                     68                     69
                      A                      A                      A
 Frequencies --   1516.3722              1523.1507              1525.4134
 Red. masses --      1.0945                 1.0482                 1.0840
 Frc consts  --      1.4828                 1.4328                 1.4862
 IR Inten    --     44.4112                 7.5023                 0.6307

                     70                     71                     72
                      A                      A                      A
 Frequencies --   1527.5985              1531.1273              1542.2322
 Red. masses --      1.0925                 1.0559                 1.0683
 Frc consts  --      1.5021                 1.4584                 1.4970
 IR Inten    --      6.0719                 9.0524                 3.3444

                     73                     74                     75
                      A                      A                      A
 Frequencies --   1558.4238              1797.6129              2969.0138
 Red. masses --      1.0998                11.0092                 1.0735
 Frc consts  --      1.5738                20.9604                 5.5753
 IR Inten    --      4.9398               201.4360               106.5211

                     76                     77                     78
                      A                      A                      A
 Frequencies --   3027.5979              3035.3956              3047.2989
 Red. masses --      1.0682                 1.0621                 1.0590
 Frc consts  --      5.7688                 5.7659                 5.7938
 IR Inten    --     15.2442                45.3227                27.7301

                     79                     80                     81
                      A                      A                      A
 Frequencies --   3055.0517              3068.9713              3081.6071
 Red. masses --      1.0371                 1.0343                 1.0293
 Frc consts  --      5.7031                 5.7399                 5.7592
 IR Inten    --     21.9548                 9.1765                31.4477

                     82                     83                     84
                      A                      A                      A
 Frequencies --   3085.6370              3087.6481              3097.6668
 Red. masses --      1.0971                 1.0908                 1.1059
 Frc consts  --      6.1545                 6.1270                 6.2521
 IR Inten    --     44.2089                18.6841                16.5361

                     85                     86                     87
                      A                      A                      A
 Frequencies --   3100.7413              3121.7044              3138.4152
 Red. masses --      1.0979                 1.1012                 1.1030
 Frc consts  --      6.2193                 6.3225                 6.4008
 IR Inten    --     51.1413                27.4637                33.1525

                     88                     89                     90
                      A                      A                      A
 Frequencies --   3141.1324              3149.2369              3159.2770
 Red. masses --      1.1028                 1.1039                 1.1080
 Frc consts  --      6.4108                 6.4503                 6.5155
 IR Inten    --     19.7253                16.0423                17.2976

                     91                     92                     93
                      A                      A                      A
 Frequencies --   3191.4234              3538.0745              3646.4638
 Red. masses --      1.1076                 1.0734                 1.0649
 Frc consts  --      6.6468                 7.9164                 8.3422
 IR Inten    --     13.4607                 1.2605                89.0758

 - Thermochemistry -
 -------------------
 Temperature   298.150 Kelvin.  Pressure   1.00000 Atm.
 Atom     1 has atomic number  6 and mass  12.00000

 Molecular mass:   205.13141 amu.
 Principal axes and moments of inertia in atomic units:
                           1         2         3
     Eigenvalues --  1220.475286542.223026990.94309
           X            1.00000   0.00119  -0.00099
           Y           -0.00117   0.99968   0.02518
           Z            0.00102  -0.02518   0.99968
 This molecule is an asymmetric top.
 Rotational symmetry number  1.
 Warning -- assumption of classical behavior for rotation
           may cause significant error
 Rotational temperatures (Kelvin)      0.07097     0.01324     0.01239
 Rotational constants (GHZ):           1.47872     0.27586     0.25815
 Zero-point vibrational energy     759162.9 (Joules/Mol)
                                  181.44428 (Kcal/Mol)
 Warning -- explicit consideration of  25 degrees of freedom as
           vibrations may cause significant error
 Vibrational temperatures:     35.29    43.18    70.72    89.52   135.74
          (Kelvin)            140.10   180.77   193.93   262.34   272.95
                              325.01   334.97   356.29   415.83   417.82
                              457.77   467.86   523.55   542.93   559.56
                              601.30   657.59   689.63   730.55   792.81
                              972.67  1067.50  1085.23  1161.73  1173.58
                             1181.84  1257.84  1303.50  1307.90  1391.98
                             1416.13  1463.47  1482.17  1552.03  1579.16
                             1599.58  1636.11  1667.73  1702.83  1705.77
                             1709.31  1739.31  1753.83  1760.77  1829.44
                             1864.94  1903.65  1934.37  1976.92  1999.08
                             2018.20  2037.11  2054.56  2062.31  2078.65
                             2080.14  2148.29  2153.88  2173.04  2177.13
                             2178.73  2181.72  2191.47  2194.73  2197.87
                             2202.95  2218.93  2242.22  2586.36  4271.75
                             4356.04  4367.26  4384.38  4395.54  4415.57
                             4433.75  4439.54  4442.44  4456.85  4461.28
                             4491.44  4515.48  4519.39  4531.05  4545.49
                             4591.75  5090.50  5246.45

 Zero-point correction=                           0.289150 (Hartree/Particle)
 Thermal correction to Energy=                    0.305995
 Thermal correction to Enthalpy=                  0.306940
 Thermal correction to Gibbs Free Energy=         0.243279
 Sum of electronic and zero-point Energies=           -709.782038
 Sum of electronic and thermal Energies=              -709.765192
 Sum of electronic and thermal Enthalpies=            -709.764248
 Sum of electronic and thermal Free Energies=         -709.827909

                     E (Thermal)             CV                S
                      KCal/Mol        Cal/Mol-Kelvin    Cal/Mol-Kelvin
 Total                  192.015             60.426            133.985
 Electronic               0.000              0.000              0.000
 Translational            0.889              2.981             41.860
 Rotational               0.889              2.981             32.390
 Vibrational            190.238             54.465             59.735
 Vibration     1          0.593              1.985              6.229
 Vibration     2          0.594              1.984              5.829
 Vibration     3          0.595              1.978              4.851
 Vibration     4          0.597              1.972              4.385
 Vibration     5          0.603              1.953              3.568
 Vibration     6          0.603              1.951              3.506
 Vibration     7          0.611              1.927              3.012
 Vibration     8          0.613              1.919              2.877
 Vibration     9          0.630              1.864              2.304
 Vibration    10          0.633              1.854              2.231
 Vibration    11          0.650              1.802              1.911
 Vibration    12          0.654              1.791              1.857
 Vibration    13          0.661              1.767              1.747
 Vibration    14          0.686              1.694              1.480
 Vibration    15          0.686              1.692              1.472
 Vibration    16          0.705              1.639              1.320
 Vibration    17          0.709              1.625              1.284
 Vibration    18          0.737              1.547              1.105
 Vibration    19          0.748              1.518              1.050
 Vibration    20          0.757              1.494              1.004
 Vibration    21          0.781              1.431              0.899
 Vibration    22          0.815              1.345              0.775
 Vibration    23          0.836              1.296              0.712
 Vibration    24          0.863              1.233              0.639
 Vibration    25          0.906              1.137              0.542

                           ! Non-Optimized Parameters !
 Normal termination of Gaussian 16 at Thu Dec 10 11:15:26 2020.

 ----------------------------------------------------------------------
 # B3LYP/6-311++G(d,p) empiricaldispersion=gd3bj scf=xqc pop=npa geom=c
 heck
 ----------------------------------------------------------------------

 ---------------------------------------
 CID_104643985_JID_4991_Energie_neutraal
 ---------------------------------------
 Structure from the checkpoint file:  "JID_4991.chk"
 Charge =  0 Multiplicity = 1

 SCF Done:  E(RB3LYP) =  -710.295211385     A.U. after   14 cycles
 Normal termination of Gaussian 16 at Thu Dec 10 11:18:57 2020.

 ----------------------------------------------------------------------
 # B3LYP/6-311++G(d,p) empiricaldispersion=gd3bj scf=xqc pop=npa geom=c
 heck
 ----------------------------------------------------------------------

 -------------------------------------
 CID_104643985_JID_4991_Energie_kation
 -------------------------------------
 Structure from the checkpoint file:  "JID_4991.chk"
 Charge =  1 Multiplicity = 2

 SCF Done:  E(UB3LYP) =  -709.994668659     A.U. after   22 cycles
 Normal termination of Gaussian 16 at Thu Dec 10 11:26:24 2020.
 Gaussian 16:  ES64L-G16RevA.03 25-Dec-2016

 ----------------------------------------------------------------------
 # B3LYP/6-311++G(d,p) empiricaldispersion=gd3bj scf=xqc pop=npa geom=c
 heck
 ----------------------------------------------------------------------

 ------------------------------------
 CID_104643985_JID_4991_Energie_anion
 ------------------------------------
 Structure from the checkpoint file:  "JID_4991.chk"
 Charge = -1 Multiplicity = 2

                         Standard orientation:
 ---------------------------------------------------------------------
 Center     Atomic      Atomic             Coordinates (Angstroms)
 Number     Number       Type             X           Y           Z
 ---------------------------------------------------------------------
      1          6           0        3.978619    1.805430   -0.318335
      2          6           0        3.796289    0.741167    0.762180
      3          8           0        3.965666   -0.595046    0.319074
      4          6           0        3.138414   -1.043317   -0.748802
      5          6           0        1.638508   -1.105868   -0.446388
      6          7           0        0.960878    0.175497   -0.677910
      7          6           0       -0.478807    0.133791   -0.844175
      8          6           0       -1.322829   -0.349604    0.380908
      9          6           0       -0.979103    0.435417    1.649683
     10          6           0       -2.797092   -0.187825    0.015949
     11          8           0       -3.528228   -1.136062   -0.203775
     12          8           0       -3.181432    1.092657   -0.083033
     13          6           0       -4.551390    1.299626   -0.475677
     14          8           0       -1.090624   -1.726996    0.628218
     15          1           0        4.934561    1.662983   -0.833501
     16          1           0        3.978965    2.801600    0.139321
     17          1           0        3.174729    1.774140   -1.059991
     18          1           0        4.555047    0.868419    1.541533
     19          1           0        2.818261    0.866929    1.259072
     20          1           0        3.296434   -0.446222   -1.657837
     21          1           0        3.497507   -2.058828   -0.945342
     22          1           0        1.185739   -1.826801   -1.136778
     23          1           0        1.489899   -1.516809    0.562425
     24          1           0        1.205483    0.848399    0.041881
     25          1           0       -0.816215    1.139439   -1.120714
     26          1           0       -0.709960   -0.537566   -1.680611
     27          1           0       -1.110186    1.510924    1.501005
     28          1           0       -1.614171    0.110750    2.478779
     29          1           0        0.059727    0.233530    1.926551
     30          1           0       -4.735413    0.856273   -1.457184
     31          1           0       -5.226852    0.847600    0.254432
     32          1           0       -4.684033    2.380626   -0.508023
     33          1           0       -1.884375   -2.193201    0.304426
 ---------------------------------------------------------------------

 SCF Done:  E(UB3LYP) =  -710.284079506     A.U. after   32 cycles

 The electronic state is 2-A.
 Alpha  occ. eigenvalues --  -19.08358 -19.03309 -19.03167 -19.02778 -14.20976
 Alpha  occ. eigenvalues --  -10.21196 -10.14830 -10.12800 -10.12792 -10.12393
 Alpha  occ. eigenvalues --  -10.10539 -10.09975 -10.07108 -10.07092  -1.02641
 Alpha  occ. eigenvalues --   -0.95047  -0.94390  -0.92539  -0.81647  -0.69870
 Alpha  occ. eigenvalues --   -0.67652  -0.64124  -0.62826  -0.59015  -0.55311
 Alpha  occ. eigenvalues --   -0.51982  -0.49015  -0.47407  -0.45654  -0.42437
 Alpha  occ. eigenvalues --   -0.40884  -0.39948  -0.39535  -0.38828  -0.36916
 Alpha  occ. eigenvalues --   -0.35366  -0.35141  -0.34347  -0.33586  -0.31613
 Alpha  occ. eigenvalues --   -0.30757  -0.30646  -0.29919  -0.29515  -0.28913
 Alpha  occ. eigenvalues --   -0.27838  -0.27474  -0.26850  -0.26228  -0.25239
 Alpha  occ. eigenvalues --   -0.22432  -0.21711  -0.20335  -0.19735  -0.17122
 Alpha  occ. eigenvalues --   -0.13368   0.04165
 Alpha virt. eigenvalues --    0.05940   0.07279   0.07464   0.08115   0.08505
 Alpha virt. eigenvalues --    0.09033   0.09066   0.09850   0.10227   0.10701
 Alpha virt. eigenvalues --    0.11237   0.11498   0.11728   0.12618   0.13395

  Beta  occ. eigenvalues --  -19.08343 -19.03308 -19.03136 -19.02770 -14.20964
  Beta  occ. eigenvalues --  -10.21168 -10.14831 -10.12772 -10.12737 -10.12388
  Beta  occ. eigenvalues --  -10.10526 -10.09970 -10.07083 -10.07055  -1.02598
  Beta  occ. eigenvalues --   -0.95017  -0.94384  -0.92504  -0.81624  -0.69833
  Beta  occ. eigenvalues --   -0.67621  -0.64081  -0.62759  -0.58969  -0.55265
  Beta  occ. eigenvalues --   -0.51913  -0.48971  -0.47351  -0.45624  -0.42411
  Beta  occ. eigenvalues --   -0.40846  -0.39898  -0.39481  -0.38791  -0.36886
  Beta  occ. eigenvalues --   -0.35321  -0.35092  -0.34317  -0.33553  -0.31587
  Beta  occ. eigenvalues --   -0.30718  -0.30593  -0.29857  -0.29482  -0.28872
  Beta  occ. eigenvalues --   -0.27807  -0.27445  -0.26812  -0.26206  -0.25205
  Beta  occ. eigenvalues --   -0.22352  -0.21695  -0.20305  -0.19719  -0.17110
  Beta  occ. eigenvalues --   -0.13353
  Beta virt. eigenvalues --    0.06271   0.07023   0.07484   0.07839   0.08462
  Beta virt. eigenvalues --    0.08856   0.09462   0.09637   0.10156   0.10648
  Beta virt. eigenvalues --    0.11152   0.11533   0.11731   0.11977   0.12695

 Mulliken charges and spin densities:
               1          2
     1  C    0.443177  -0.875848
     2  C   -0.263260   0.036453
     3  O   -0.110519   0.014636
     4  C   -0.285861  -0.286217
     5  C   -0.064801  -0.094922
     6  N   -0.034523   0.045890
     7  C    0.306121  -0.889017
     8  C   -0.473139   0.208440
     9  C    1.001301  -1.497311
    10  C   -0.976341   1.082140
    11  O   -0.262524   0.008756
    12  O   -0.114058   0.084268
    13  C    1.467797  -1.654930
    14  O   -0.169173   0.002429
    15  H    0.065422   0.077867
    16  H   -0.279071   0.417581
    17  H   -0.046678   0.210494
    18  H   -0.209994   0.390722
    19  H   -0.090895   0.195908
    20  H    0.103800   0.051505
    21  H    0.112436   0.040902
    22  H    0.132400   0.014489
    23  H    0.163782   0.047094
    24  H    0.253569   0.011754
    25  H   -0.196958   0.385150
    26  H    0.012969   0.169274
    27  H   -0.263140   0.456225
    28  H   -0.132136   0.317243
    29  H    0.222426  -0.062581
    30  H   -0.356383   0.529945
    31  H   -0.429463   0.606260
    32  H   -0.701373   0.876648
    33  H    0.175091   0.078752
 Sum of Mulliken charges =  -1.00000   1.00000

 Dipole moment (field-independent basis, Debye):
    X=              4.9606    Y=             -5.2309    Z=             -1.2102  Tot=              7.3099
 Quadrupole moment (field-independent basis, Debye-Ang):
   XX=           -189.0024   YY=           -132.9447   ZZ=           -117.3469
   XY=              7.5729   XZ=             -6.8189   YZ=              1.7243

 Summary of Natural Population Analysis:

                                       Natural Population
                Natural  -----------------------------------------------
    Atom  No    Charge         Core      Valence    Rydberg      Total
 -----------------------------------------------------------------------
      C    1   -0.30844      0.99966     2.30368    0.00510     3.30844
      C    2   -0.01086      0.99960     1.99751    0.01376     3.01086
      O    3   -0.30319      0.99989     3.29383    0.00947     4.30319
      C    4   -0.01380      0.99957     2.00226    0.01197     3.01380
      C    5   -0.10525      0.99961     2.09647    0.00917     3.10525
      N    6   -0.34350      0.99974     2.83195    0.01180     3.84350
      C    7   -0.08817      0.99957     2.07488    0.01372     3.08817
      C    8    0.08071      0.99952     1.90269    0.01708     2.91929
      C    9   -0.29389      0.99962     2.28543    0.00884     3.29389
      C   10    0.40928      0.99961     1.56506    0.02605     2.59072
      O   11   -0.31511      0.99987     3.30930    0.00594     4.31511
      O   12   -0.27159      0.99986     3.26164    0.01009     4.27159
      C   13   -0.10314      0.99959     2.09443    0.00912     3.10314
      O   14   -0.38007      0.99989     3.37341    0.00677     4.38007
      H   15    0.09733      0.00000     0.40168    0.00099     0.40267
      H   16    0.10429      0.00000     0.39436    0.00135     0.39571
      H   17    0.10482      0.00000     0.39370    0.00148     0.39518
      H   18    0.08874      0.00000     0.40993    0.00134     0.41126
      H   19    0.07327      0.00000     0.42497    0.00177     0.42673
      H   20    0.08205      0.00000     0.41642    0.00153     0.41795
      H   21    0.08833      0.00000     0.41059    0.00108     0.41167
      H   22    0.09776      0.00000     0.40100    0.00124     0.40224
      H   23    0.09313      0.00000     0.40536    0.00151     0.40687
      H   24    0.17603      0.00000     0.32017    0.00381     0.32397
      H   25    0.10447      0.00000     0.39395    0.00158     0.39553
      H   26    0.09394      0.00000     0.40469    0.00137     0.40606
      H   27    0.10954      0.00000     0.38862    0.00184     0.39046
      H   28    0.10639      0.00000     0.39248    0.00114     0.39361
      H   29    0.10215      0.00000     0.39639    0.00146     0.39785
      H   30    0.09178      0.00000     0.40660    0.00162     0.40822
      H   31    0.09391      0.00000     0.40392    0.00217     0.40609
      H   32    0.09800      0.00000     0.39870    0.00329     0.40200
      H   33    0.24109      0.00000     0.25584    0.00307     0.25891
 =======================================================================
   * Total *   -0.00000     13.99559    41.81191    0.19250    56.00000

 Normal termination of Gaussian 16 at Thu Dec 10 11:36:51 2020.
