 Gaussian 16, Revision A.03,

 -----------------------------------------------------------
 # opt freq B3LYP/6-31G(d) empiricaldispersion=gd3bj scf=xqc
 -----------------------------------------------------------

 -------------------------------
 CID_119135782_JID_8854_neutraal
 -------------------------------
 Symbolic Z-matrix:
 Charge =  0 Multiplicity = 1

 SCF Done:  E(RB3LYP) =  -855.104038838     A.U. after   15 cycles
 SCF Done:  E(RB3LYP) =  -855.108275503     A.U. after   12 cycles
 SCF Done:  E(RB3LYP) =  -855.108435644     A.U. after   13 cycles
 SCF Done:  E(RB3LYP) =  -855.109567930     A.U. after   12 cycles
 SCF Done:  E(RB3LYP) =  -855.109868909     A.U. after   12 cycles
 SCF Done:  E(RB3LYP) =  -855.110221209     A.U. after   12 cycles
 SCF Done:  E(RB3LYP) =  -855.110321900     A.U. after   12 cycles
 SCF Done:  E(RB3LYP) =  -855.110557518     A.U. after   11 cycles
 SCF Done:  E(RB3LYP) =  -855.110799377     A.U. after   12 cycles
 SCF Done:  E(RB3LYP) =  -855.110833172     A.U. after   11 cycles
 SCF Done:  E(RB3LYP) =  -855.115656040     A.U. after   13 cycles
 SCF Done:  E(RB3LYP) =  -855.115741628     A.U. after   11 cycles
 SCF Done:  E(RB3LYP) =  -855.115744446     A.U. after   10 cycles
 SCF Done:  E(RB3LYP) =  -855.115745625     A.U. after    8 cycles
 SCF Done:  E(RB3LYP) =  -855.115746033     A.U. after    8 cycles
 SCF Done:  E(RB3LYP) =  -855.115746105     A.U. after    6 cycles
 Optimization completed.
    -- Stationary point found.
 Normal termination of Gaussian 16 at Fri Dec 11 22:45:13 2020.

 --------------------------------------------------------------------
 #N Geom=AllCheck Guess=TCheck SCRF=Check GenChk RB3LYP/6-31G(d) Freq
 --------------------------------------------------------------------

 Structure from the checkpoint file:  "JID_8854.chk"
 -------------------------------
 CID_119135782_JID_8854_neutraal
 -------------------------------
 Charge =  0 Multiplicity = 1

 SCF Done:  E(RB3LYP) =  -855.115746105     A.U. after    1 cycles

  Exact polarizability: 213.250  26.783 132.321  16.991 -14.726 108.662
 Approx polarizability: 299.448  51.469 236.840  40.465 -34.207 190.429

                      1                      2                      3
                      A                      A                      A
 Frequencies --     22.8032                31.3932                48.0219
 Red. masses --      6.0687                 7.0110                 5.3267
 Frc consts  --      0.0019                 0.0041                 0.0072
 IR Inten    --      0.0774                 0.6366                 1.1125

                      4                      5                      6
                      A                      A                      A
 Frequencies --     61.8959                88.6931                89.7179
 Red. masses --      5.8630                 6.6144                 5.6429
 Frc consts  --      0.0132                 0.0307                 0.0268
 IR Inten    --      1.0281                 8.5761                 0.3546

                      7                      8                      9
                      A                      A                      A
 Frequencies --    130.3134               170.7082               213.3464
 Red. masses --      7.1510                 4.9086                 3.5321
 Frc consts  --      0.0715                 0.0843                 0.0947
 IR Inten    --      2.9021                 4.7556                 4.6488

                     10                     11                     12
                      A                      A                      A
 Frequencies --    227.6364               261.1191               286.8953
 Red. masses --      3.8569                 4.2887                 4.9825
 Frc consts  --      0.1178                 0.1723                 0.2416
 IR Inten    --      1.5181                 3.1387                 1.0927

                     13                     14                     15
                      A                      A                      A
 Frequencies --    326.3805               369.9463               426.7684
 Red. masses --      4.4780                 4.0574                 3.5467
 Frc consts  --      0.2810                 0.3272                 0.3806
 IR Inten    --      0.3749                 0.4607                 2.7873

                     16                     17                     18
                      A                      A                      A
 Frequencies --    431.9350               438.6523               509.0534
 Red. masses --      2.8951                 2.7047                 2.7836
 Frc consts  --      0.3182                 0.3066                 0.4250
 IR Inten    --      7.6432                 3.3870                11.1141

                     19                     20                     21
                      A                      A                      A
 Frequencies --    533.8247               569.7395               592.6299
 Red. masses --      5.2519                 3.2287                 5.4748
 Frc consts  --      0.8818                 0.6175                 1.1329
 IR Inten    --     19.2161                47.9541                16.8649

                     22                     23                     24
                      A                      A                      A
 Frequencies --    604.3813               636.4101               641.6094
 Red. masses --      4.2097                 4.2526                 3.7264
 Frc consts  --      0.9060                 1.0148                 0.9038
 IR Inten    --      5.8820                 4.4070                24.9530

                     25                     26                     27
                      A                      A                      A
 Frequencies --    668.0593               694.7557               729.5659
 Red. masses --      1.5158                 1.2277                 4.4474
 Frc consts  --      0.3986                 0.3491                 1.3947
 IR Inten    --     54.1609                27.0757                 7.2822

                     28                     29                     30
                      A                      A                      A
 Frequencies --    744.5355               761.0493               777.2217
 Red. masses --      3.4344                 3.0913                 3.9355
 Frc consts  --      1.1217                 1.0549                 1.4007
 IR Inten    --     10.2018                39.5199                22.7169

                     31                     32                     33
                      A                      A                      A
 Frequencies --    779.0148               809.2788               842.1781
 Red. masses --      1.8224                 3.7633                 1.6676
 Frc consts  --      0.6516                 1.4522                 0.6969
 IR Inten    --     42.0305                 7.0270                17.3263

                     34                     35                     36
                      A                      A                      A
 Frequencies --    852.3040               873.1771               887.2952
 Red. masses --      2.8908                 1.7917                 1.3512
 Frc consts  --      1.2372                 0.8048                 0.6268
 IR Inten    --     14.6487                94.2287                 5.1301

                     37                     38                     39
                      A                      A                      A
 Frequencies --    890.4684               905.4419               920.2805
 Red. masses --      1.6054                 2.2108                 5.7281
 Frc consts  --      0.7500                 1.0679                 2.8583
 IR Inten    --     11.4133                36.9436                 2.1271

                     40                     41                     42
                      A                      A                      A
 Frequencies --    954.8693               983.3577               986.3962
 Red. masses --      2.9877                 1.3060                 1.8014
 Frc consts  --      1.6050                 0.7441                 1.0327
 IR Inten    --     14.5390                 4.9725                25.0136

                     43                     44                     45
                      A                      A                      A
 Frequencies --   1055.1362              1080.3418              1108.2292
 Red. masses --      1.9932                 2.2942                 1.5326
 Frc consts  --      1.3074                 1.5776                 1.1090
 IR Inten    --      6.4240                13.9986                 9.7445

                     46                     47                     48
                      A                      A                      A
 Frequencies --   1120.3801              1153.9693              1159.3659
 Red. masses --      2.0494                 2.4590                 1.4171
 Frc consts  --      1.5156                 1.9293                 1.1223
 IR Inten    --      1.5632                82.5731                41.4005

                     49                     50                     51
                      A                      A                      A
 Frequencies --   1175.3856              1188.3295              1235.6343
 Red. masses --      1.9834                 1.9530                 1.4894
 Frc consts  --      1.6144                 1.6249                 1.3398
 IR Inten    --    150.1887                12.2643                 8.8534

                     52                     53                     54
                      A                      A                      A
 Frequencies --   1255.5673              1265.7300              1290.4692
 Red. masses --      1.5338                 2.7314                 1.6889
 Frc consts  --      1.4247                 2.5782                 1.6571
 IR Inten    --    178.7734                17.7376                10.8990

                     55                     56                     57
                      A                      A                      A
 Frequencies --   1314.9054              1338.3806              1359.2110
 Red. masses --      1.3492                 2.9173                 1.3720
 Frc consts  --      1.3744                 3.0789                 1.4934
 IR Inten    --     81.4532               182.2182                23.5279

                     58                     59                     60
                      A                      A                      A
 Frequencies --   1374.2453              1384.2768              1389.4128
 Red. masses --      2.0442                 1.5466                 2.2135
 Frc consts  --      2.2746                 1.7461                 2.5177
 IR Inten    --      8.7581                73.2467                17.8588

                     61                     62                     63
                      A                      A                      A
 Frequencies --   1401.9543              1428.3799              1440.1539
 Red. masses --      3.0118                 1.8660                 1.6835
 Frc consts  --      3.4877                 2.2431                 2.0572
 IR Inten    --     34.2169               168.4498                 6.7207

                     64                     65                     66
                      A                      A                      A
 Frequencies --   1485.3322              1495.5926              1512.8401
 Red. masses --      3.9991                 1.4446                 1.0808
 Frc consts  --      5.1983                 1.9038                 1.4575
 IR Inten    --      4.4003                54.2637                 3.8686

                     67                     68                     69
                      A                      A                      A
 Frequencies --   1520.0858              1524.2906              1527.2521
 Red. masses --      3.8852                 1.1385                 1.1248
 Frc consts  --      5.2893                 1.5586                 1.5458
 IR Inten    --      5.6076                 5.8430                29.8258

                     70                     71                     72
                      A                      A                      A
 Frequencies --   1559.4625              1591.3331              1684.8272
 Red. masses --      5.4630                 4.9660                 6.9062
 Frc consts  --      7.8277                 7.4093                11.5505
 IR Inten    --      4.6192                 1.6409                66.9507

                     73                     74                     75
                      A                      A                      A
 Frequencies --   1758.2357              1822.3484              3055.0149
 Red. masses --      8.4514                 8.7751                 1.0603
 Frc consts  --     15.3933                17.1698                 5.8306
 IR Inten    --    275.7999               229.9317                20.2141

                     76                     77                     78
                      A                      A                      A
 Frequencies --   3084.3043              3096.1445              3108.3824
 Red. masses --      1.0718                 1.0835                 1.0694
 Frc consts  --      6.0072                 6.1193                 6.0877
 IR Inten    --      7.4666                 3.1328                40.2072

                     79                     80                     81
                      A                      A                      A
 Frequencies --   3143.6467              3149.6247              3222.3115
 Red. masses --      1.1046                 1.1062                 1.0879
 Frc consts  --      6.4319                 6.4657                 6.6556
 IR Inten    --      8.3174                26.9870                 0.8366

                     82                     83                     84
                      A                      A                      A
 Frequencies --   3239.0395              3250.8888              3256.4669
 Red. masses --      1.0955                 1.0925                 1.0939
 Frc consts  --      6.7716                 6.8025                 6.8345
 IR Inten    --      2.7859                 0.4121                11.2375

                     85                     86                     87
                      A                      A                      A
 Frequencies --   3297.9481              3525.9576              3673.2362
 Red. masses --      1.1010                 1.0750                 1.0638
 Frc consts  --      7.0557                 7.8745                 8.4568
 IR Inten    --      0.8121               101.4219                55.9988

 - Thermochemistry -
 -------------------
 Temperature   298.150 Kelvin.  Pressure   1.00000 Atm.
 Atom     1 has atomic number  6 and mass  12.00000

 Molecular mass:   247.09569 amu.
 Principal axes and moments of inertia in atomic units:
                           1         2         3
     Eigenvalues --  1633.639979784.144439858.46914
           X            0.99999   0.00046  -0.00500
           Y           -0.00203   0.94764  -0.31933
           Z            0.00459   0.31934   0.94763
 This molecule is an asymmetric top.
 Rotational symmetry number  1.
 Warning -- assumption of classical behavior for rotation
           may cause significant error
 Rotational temperatures (Kelvin)      0.05302     0.00885     0.00879
 Rotational constants (GHZ):           1.10474     0.18446     0.18307
 Zero-point vibrational energy     651230.0 (Joules/Mol)
                                  155.64770 (Kcal/Mol)
 Warning -- explicit consideration of  22 degrees of freedom as
           vibrations may cause significant error
 Vibrational temperatures:     32.81    45.17    69.09    89.05   127.61
          (Kelvin)            129.08   187.49   245.61   306.96   327.52
                              375.69   412.78   469.59   532.27   614.02
                              621.46   631.12   732.41   768.05   819.73
                              852.66   869.57   915.65   923.13   961.19
                              999.60  1049.68  1071.22  1094.98  1118.25
                             1120.83  1164.37  1211.71  1226.28  1256.31
                             1276.62  1281.19  1302.73  1324.08  1373.84
                             1414.83  1419.20  1518.11  1554.37  1594.49
                             1611.98  1660.30  1668.07  1691.12  1709.74
                             1777.80  1806.48  1821.10  1856.70  1891.86
                             1925.63  1955.60  1977.23  1991.67  1999.06
                             2017.10  2055.12  2072.06  2137.06  2151.82
                             2176.64  2187.06  2193.11  2197.38  2243.72
                             2289.57  2424.09  2529.71  2621.95  4395.49
                             4437.63  4454.66  4472.27  4523.01  4531.61
                             4636.19  4660.26  4677.30  4685.33  4745.01
                             5073.07  5284.97

 Zero-point correction=                           0.248040 (Hartree/Particle)
 Thermal correction to Energy=                    0.263464
 Thermal correction to Enthalpy=                  0.264409
 Thermal correction to Gibbs Free Energy=         0.202815
 Sum of electronic and zero-point Energies=           -854.867706
 Sum of electronic and thermal Energies=              -854.852282
 Sum of electronic and thermal Enthalpies=            -854.851337
 Sum of electronic and thermal Free Energies=         -854.912931

                     E (Thermal)             CV                S
                      KCal/Mol        Cal/Mol-Kelvin    Cal/Mol-Kelvin
 Total                  165.326             58.762            129.634
 Electronic               0.000              0.000              0.000
 Translational            0.889              2.981             42.414
 Rotational               0.889              2.981             33.421
 Vibrational            163.549             52.800             53.799
 Vibration     1          0.593              1.985              6.374
 Vibration     2          0.594              1.983              5.739
 Vibration     3          0.595              1.978              4.897
 Vibration     4          0.597              1.972              4.396
 Vibration     5          0.602              1.957              3.689
 Vibration     6          0.602              1.956              3.666
 Vibration     7          0.612              1.923              2.941
 Vibration     8          0.626              1.879              2.428
 Vibration     9          0.644              1.821              2.015
 Vibration    10          0.651              1.799              1.898
 Vibration    11          0.669              1.744              1.654
 Vibration    12          0.684              1.698              1.492
 Vibration    13          0.710              1.623              1.278
 Vibration    14          0.742              1.534              1.080
 Vibration    15          0.788              1.412              0.869
 Vibration    16          0.793              1.401              0.852
 Vibration    17          0.799              1.386              0.831
 Vibration    18          0.864              1.230              0.636
 Vibration    19          0.889              1.175              0.579
 Vibration    20          0.926              1.097              0.505
 Vibration    21          0.950              1.047              0.463
 Vibration    22          0.963              1.023              0.442

 Optimization completed.
    -- Stationary point found.
 Normal termination of Gaussian 16 at Fri Dec 11 22:57:34 2020.

 ----------------------------------------------------------------------
 # B3LYP/6-311++G(d,p) empiricaldispersion=gd3bj scf=xqc pop=npa geom=c
 heck
 ----------------------------------------------------------------------

 ---------------------------------------
 CID_119135782_JID_8854_Energie_neutraal
 ---------------------------------------
 Structure from the checkpoint file:  "JID_8854.chk"
 Charge =  0 Multiplicity = 1

 SCF Done:  E(RB3LYP) =  -855.362246617     A.U. after   16 cycles
 Normal termination of Gaussian 16 at Fri Dec 11 23:03:40 2020.

 ----------------------------------------------------------------------
 # B3LYP/6-311++G(d,p) empiricaldispersion=gd3bj scf=xqc pop=npa geom=c
 heck
 ----------------------------------------------------------------------

 -------------------------------------
 CID_119135782_JID_8854_Energie_kation
 -------------------------------------
 Structure from the checkpoint file:  "JID_8854.chk"
 Charge =  1 Multiplicity = 2

 SCF Done:  E(UB3LYP) =  -855.068113552     A.U. after   28 cycles
 Normal termination of Gaussian 16 at Fri Dec 11 23:19:04 2020.
 Gaussian 16:  ES64L-G16RevA.03 25-Dec-2016

 ----------------------------------------------------------------------
 # B3LYP/6-311++G(d,p) empiricaldispersion=gd3bj scf=xqc pop=npa geom=c
 heck
 ----------------------------------------------------------------------

 ------------------------------------
 CID_119135782_JID_8854_Energie_anion
 ------------------------------------
 Structure from the checkpoint file:  "JID_8854.chk"
 Charge = -1 Multiplicity = 2

                         Standard orientation:
 ---------------------------------------------------------------------
 Center     Atomic      Atomic             Coordinates (Angstroms)
 Number     Number       Type             X           Y           Z
 ---------------------------------------------------------------------
      1          6           0        1.374942   -1.600176    0.204837
      2          6           0        2.626646   -1.542578    0.762482
      3          6           0        3.440768   -0.407131    0.547356
      4          7           0        4.662159   -0.110666    0.977769
      5          6           0        4.947452    1.111600    0.436260
      6          6           0        3.912452    1.595231   -0.336494
      7          7           0        2.930541    0.626133   -0.274635
      8          6           0        1.690825    0.560153   -0.842665
      9          6           0        0.887854   -0.524755   -0.601342
     10          6           0       -0.450090   -0.531561   -1.272590
     11          8           0       -0.611320   -0.003854   -2.370333
     12          7           0       -1.479362   -1.174763   -0.618434
     13          6           0       -1.720865   -1.046997    0.821977
     14          6           0       -1.957942    0.404793    1.275049
     15          6           0       -2.929677    1.203015    0.376380
     16          6           0       -4.250500    0.495722    0.194738
     17          8           0       -4.416300   -0.511810   -0.467143
     18          8           0       -5.258442    1.079006    0.878701
     19          1           0        0.757734   -2.482095    0.332516
     20          1           0        3.031603   -2.350170    1.361194
     21          1           0        5.895519    1.597648    0.626476
     22          1           0        3.781813    2.501356   -0.907214
     23          1           0        1.383865    1.377375   -1.483301
     24          1           0       -2.345215   -1.108356   -1.149925
     25          1           0       -2.595737   -1.663667    1.039605
     26          1           0       -0.883798   -1.462263    1.386258
     27          1           0       -2.322253    0.399489    2.309751
     28          1           0       -1.001501    0.940440    1.276408
     29          1           0       -3.095248    2.196080    0.800052
     30          1           0       -2.488565    1.319484   -0.618759
     31          1           0       -6.054265    0.539129    0.708310
 ---------------------------------------------------------------------

 SCF Done:  E(UB3LYP) =  -855.369965659     A.U. after   32 cycles

 The electronic state is 2-A.
 Alpha  occ. eigenvalues --  -19.08857 -19.03149 -18.96787 -14.26631 -14.21245
 Alpha  occ. eigenvalues --  -14.17696 -10.22250 -10.14709 -10.11372 -10.10734
 Alpha  occ. eigenvalues --  -10.09570 -10.08860 -10.08618 -10.07902 -10.07710
 Alpha  occ. eigenvalues --  -10.06506 -10.05566 -10.05306  -1.02857  -0.93744
 Alpha  occ. eigenvalues --   -0.91802  -0.91044  -0.80863  -0.78727  -0.71351
 Alpha  occ. eigenvalues --   -0.70596  -0.64294  -0.62511  -0.62132  -0.55458
 Alpha  occ. eigenvalues --   -0.54045  -0.50706  -0.50055  -0.49465  -0.45916
 Alpha  occ. eigenvalues --   -0.41782  -0.41714  -0.40968  -0.38629  -0.38073
 Alpha  occ. eigenvalues --   -0.37373  -0.36457  -0.35699  -0.34300  -0.34061
 Alpha  occ. eigenvalues --   -0.33525  -0.33071  -0.31763  -0.30689  -0.30356
 Alpha  occ. eigenvalues --   -0.28692  -0.28262  -0.27446  -0.26575  -0.25659
 Alpha  occ. eigenvalues --   -0.24718  -0.24142  -0.22241  -0.20541  -0.20097
 Alpha  occ. eigenvalues --   -0.16446  -0.15589  -0.13771  -0.12864  -0.09995
 Alpha  occ. eigenvalues --    0.03556
 Alpha virt. eigenvalues --    0.04938   0.07172   0.07978   0.08236   0.08450
 Alpha virt. eigenvalues --    0.08884   0.09559   0.10102   0.10601   0.11982
 Alpha virt. eigenvalues --    0.12239   0.12512   0.12970   0.13216   0.13509

  Beta  occ. eigenvalues --  -19.08808 -19.03137 -18.96713 -14.26549 -14.21234
  Beta  occ. eigenvalues --  -14.17705 -10.22233 -10.14599 -10.11361 -10.10726
  Beta  occ. eigenvalues --  -10.09554 -10.08849 -10.08644 -10.07822 -10.07233
  Beta  occ. eigenvalues --  -10.06494 -10.05539 -10.05117  -1.02789  -0.93693
  Beta  occ. eigenvalues --   -0.91633  -0.90831  -0.80794  -0.78515  -0.71149
  Beta  occ. eigenvalues --   -0.70541  -0.63942  -0.62431  -0.61893  -0.55289
  Beta  occ. eigenvalues --   -0.53722  -0.50516  -0.49971  -0.49336  -0.45791
  Beta  occ. eigenvalues --   -0.41676  -0.41618  -0.40913  -0.38516  -0.37976
  Beta  occ. eigenvalues --   -0.37210  -0.36347  -0.35647  -0.33991  -0.33680
  Beta  occ. eigenvalues --   -0.33306  -0.33017  -0.31679  -0.30601  -0.30218
  Beta  occ. eigenvalues --   -0.28545  -0.28160  -0.27238  -0.26430  -0.25551
  Beta  occ. eigenvalues --   -0.24583  -0.24081  -0.21440  -0.20047  -0.19911
  Beta  occ. eigenvalues --   -0.16433  -0.15383  -0.13551  -0.12321  -0.09085
  Beta virt. eigenvalues --    0.06037   0.07259   0.08006   0.08257   0.08464
  Beta virt. eigenvalues --    0.08928   0.09119   0.09540   0.10016   0.10616
  Beta virt. eigenvalues --    0.11987   0.12313   0.12442   0.12863   0.13189

 Mulliken charges and spin densities:
               1          2
     1  C   -0.167894  -0.031687
     2  C   -0.288446   0.220766
     3  C   -0.381464  -0.022947
     4  N   -0.145857  -0.006102
     5  C   -0.075589   0.062538
     6  C   -0.029369   0.008711
     7  N    0.233517   0.004163
     8  C   -0.513933   0.324814
     9  C    0.962909  -0.051403
    10  C   -0.882114   0.087820
    11  O   -0.324974   0.030078
    12  N   -0.175250   0.010094
    13  C   -0.073418  -0.035750
    14  C   -0.360829   0.102378
    15  C    0.291540  -0.691387
    16  C   -0.045941  -0.093181
    17  O   -0.310564   0.010311
    18  O   -0.158155   0.028651
    19  H    0.188635  -0.011604
    20  H    0.151487  -0.007020
    21  H    0.138861  -0.004342
    22  H    0.102761   0.018490
    23  H    0.193463  -0.025285
    24  H    0.342535  -0.003291
    25  H    0.170348   0.022221
    26  H    0.090139   0.028506
    27  H    0.015016   0.139744
    28  H    0.117540   0.077065
    29  H    0.079222   0.134806
    30  H    0.122880   0.117364
    31  H   -0.267055   0.555480
 Sum of Mulliken charges =  -1.00000   1.00000

 Dipole moment (field-independent basis, Debye):
    X=             -0.0286    Y=              0.5259    Z=              1.5035  Tot=              1.5931
 Quadrupole moment (field-independent basis, Debye-Ang):
   XX=           -201.4697   YY=           -116.9088   ZZ=           -132.7193
   XY=              8.7836   XZ=             -6.8683   YZ=             -4.9642

 Summary of Natural Population Analysis:

                                       Natural Population
                Natural  -----------------------------------------------
    Atom  No    Charge         Core      Valence    Rydberg      Total
 -----------------------------------------------------------------------
      C    1   -0.09287      0.99955     2.08535    0.00797     3.09287
      C    2   -0.09105      0.99952     2.08323    0.00830     3.09105
      C    3    0.17850      0.99958     1.80119    0.02073     2.82150
      N    4   -0.27209      0.99970     2.76298    0.00940     3.77209
      C    5   -0.00553      0.99960     1.99315    0.01277     3.00553
      C    6   -0.06447      0.99958     2.05244    0.01245     3.06447
      N    7   -0.17349      0.99962     2.66556    0.00831     3.67349
      C    8    0.13335      0.99952     1.85579    0.01134     2.86665
      C    9   -0.10364      0.99947     2.09307    0.01110     3.10364
      C   10    0.35325      0.99962     1.62429    0.02284     2.64675
      O   11   -0.31994      0.99988     3.31476    0.00530     4.31994
      N   12   -0.33260      0.99968     2.82337    0.00955     3.83260
      C   13   -0.09300      0.99962     2.08183    0.01156     3.09300
      C   14   -0.19423      0.99962     2.18716    0.00745     3.19423
      C   15   -0.24590      0.99957     2.23761    0.00872     3.24590
      C   16    0.40986      0.99972     1.56498    0.02544     2.59014
      O   17   -0.31759      0.99987     3.31143    0.00629     4.31759
      O   18   -0.34110      0.99988     3.33454    0.00668     4.34110
      H   19    0.10009      0.00000     0.39883    0.00108     0.39991
      H   20    0.10247      0.00000     0.39675    0.00078     0.39753
      H   21    0.08923      0.00000     0.40992    0.00085     0.41077
      H   22    0.09985      0.00000     0.39936    0.00079     0.40015
      H   23    0.09968      0.00000     0.39927    0.00105     0.40032
      H   24    0.19940      0.00000     0.29837    0.00222     0.30060
      H   25    0.09752      0.00000     0.40147    0.00100     0.40248
      H   26    0.10301      0.00000     0.39586    0.00113     0.39699
      H   27    0.09798      0.00000     0.40099    0.00103     0.40202
      H   28    0.10832      0.00000     0.39051    0.00117     0.39168
      H   29    0.11096      0.00000     0.38811    0.00092     0.38904
      H   30    0.12197      0.00000     0.37668    0.00135     0.37803
      H   31    0.24203      0.00000     0.24713    0.01083     0.25797
 =======================================================================
   * Total *    0.00000     17.99360    46.77598    0.23042    65.00000

 Normal termination of Gaussian 16 at Fri Dec 11 23:36:31 2020.
