 Gaussian 16, Revision A.03,

 -----------------------------------------------------------
 # opt freq B3LYP/6-31G(d) empiricaldispersion=gd3bj scf=xqc
 -----------------------------------------------------------

 -------------------------------
 CID_116990912_JID_5766_neutraal
 -------------------------------
 Symbolic Z-matrix:
 Charge =  0 Multiplicity = 1

 SCF Done:  E(RB3LYP) =  -707.480178355     A.U. after   15 cycles
 SCF Done:  E(RB3LYP) =  -707.485793320     A.U. after   12 cycles
 SCF Done:  E(RB3LYP) =  -707.486216047     A.U. after   12 cycles
 SCF Done:  E(RB3LYP) =  -707.486480866     A.U. after   12 cycles
 SCF Done:  E(RB3LYP) =  -707.486835613     A.U. after   11 cycles
 SCF Done:  E(RB3LYP) =  -707.487042473     A.U. after   11 cycles
 SCF Done:  E(RB3LYP) =  -707.487144962     A.U. after   10 cycles
 SCF Done:  E(RB3LYP) =  -707.487193226     A.U. after   10 cycles
 SCF Done:  E(RB3LYP) =  -707.487223927     A.U. after   10 cycles
 SCF Done:  E(RB3LYP) =  -707.487228169     A.U. after   10 cycles
 SCF Done:  E(RB3LYP) =  -707.487229241     A.U. after    9 cycles
 SCF Done:  E(RB3LYP) =  -707.487229486     A.U. after    8 cycles
 SCF Done:  E(RB3LYP) =  -707.487229690     A.U. after    8 cycles
 Optimization completed.
    -- Stationary point found.
 Normal termination of Gaussian 16 at Thu Dec 10 16:49:07 2020.

 --------------------------------------------------------------------
 #N Geom=AllCheck Guess=TCheck SCRF=Check GenChk RB3LYP/6-31G(d) Freq
 --------------------------------------------------------------------

 Structure from the checkpoint file:  "JID_5766.chk"
 -------------------------------
 CID_116990912_JID_5766_neutraal
 -------------------------------
 Charge =  0 Multiplicity = 1

 SCF Done:  E(RB3LYP) =  -707.487229690     A.U. after    1 cycles

  Exact polarizability: 171.775  13.684 124.258 -15.057  10.824  81.157
 Approx polarizability: 249.487  29.435 211.278 -32.853  25.929 128.160

                      1                      2                      3
                      A                      A                      A
 Frequencies --     50.7467                62.6056                81.7826
 Red. masses --      4.2986                 3.8096                 5.7144
 Frc consts  --      0.0065                 0.0088                 0.0225
 IR Inten    --      0.5532                 0.4758                 0.6920

                      4                      5                      6
                      A                      A                      A
 Frequencies --    159.1747               205.8075               215.8127
 Red. masses --      5.3199                 3.9681                 1.0871
 Frc consts  --      0.0794                 0.0990                 0.0298
 IR Inten    --      0.4012                 0.6077                 0.1609

                      7                      8                      9
                      A                      A                      A
 Frequencies --    257.8546               268.0454               293.5742
 Red. masses --      2.7408                 1.2902                 4.2552
 Frc consts  --      0.1074                 0.0546                 0.2161
 IR Inten    --      0.6783                 0.4712                 3.6487

                     10                     11                     12
                      A                      A                      A
 Frequencies --    314.4621               325.2903               335.4775
 Red. masses --      6.4177                 2.6985                 4.2121
 Frc consts  --      0.3739                 0.1682                 0.2793
 IR Inten    --      3.5349                 3.9009                 2.3177

                     13                     14                     15
                      A                      A                      A
 Frequencies --    411.0762               427.9947               432.7404
 Red. masses --      3.0124                 1.3440                 3.6508
 Frc consts  --      0.2999                 0.1451                 0.4028
 IR Inten    --      2.2420                60.1461                10.1646

                     16                     17                     18
                      A                      A                      A
 Frequencies --    452.1756               468.3174               488.6781
 Red. masses --      3.8217                 4.3281                 2.4970
 Frc consts  --      0.4604                 0.5593                 0.3513
 IR Inten    --     15.9175                 2.6562                20.2591

                     19                     20                     21
                      A                      A                      A
 Frequencies --    516.3327               562.5860               571.8874
 Red. masses --      3.5008                 4.3639                 3.7483
 Frc consts  --      0.5499                 0.8138                 0.7223
 IR Inten    --     31.2306                 0.8467                19.2279

                     22                     23                     24
                      A                      A                      A
 Frequencies --    593.1855               617.3407               685.8511
 Red. masses --      1.8728                 3.8144                 5.0815
 Frc consts  --      0.3883                 0.8565                 1.4083
 IR Inten    --     56.7644                 9.5530                23.6806

                     25                     26                     27
                      A                      A                      A
 Frequencies --    707.9109               733.3970               759.8435
 Red. masses --      6.0287                 5.1873                 1.2520
 Frc consts  --      1.7800                 1.6439                 0.4259
 IR Inten    --      6.3742                11.4693                67.2643

                     28                     29                     30
                      A                      A                      A
 Frequencies --    795.2823               807.1940               856.4468
 Red. masses --      4.6970                 3.8202                 1.4037
 Frc consts  --      1.7503                 1.4665                 0.6066
 IR Inten    --      2.3273                 1.1965                 0.0944

                     31                     32                     33
                      A                      A                      A
 Frequencies --    908.0730               921.1931               923.0481
 Red. masses --      3.8762                 1.3486                 3.2067
 Frc consts  --      1.8832                 0.6743                 1.6097
 IR Inten    --      3.6871                 3.6063                17.8103

                     34                     35                     36
                      A                      A                      A
 Frequencies --    954.8070               959.2684               962.8907
 Red. masses --      1.5127                 2.9637                 1.2395
 Frc consts  --      0.8125                 1.6068                 0.6771
 IR Inten    --      6.1255                19.9439                 0.3910

                     37                     38                     39
                      A                      A                      A
 Frequencies --    999.8419              1033.4029              1058.6775
 Red. masses --      2.2349                 1.4980                 2.9254
 Frc consts  --      1.3164                 0.9425                 1.9318
 IR Inten    --     30.7309                 7.7872                19.5942

                     40                     41                     42
                      A                      A                      A
 Frequencies --   1071.7956              1144.5939              1155.5529
 Red. masses --      2.4357                 1.5896                 1.8005
 Frc consts  --      1.6485                 1.2270                 1.4165
 IR Inten    --     41.3986                 9.3994                29.2417

                     43                     44                     45
                      A                      A                      A
 Frequencies --   1190.5287              1221.9956              1243.6197
 Red. masses --      1.0949                 2.2012                 2.7312
 Frc consts  --      0.9144                 1.9366                 2.4888
 IR Inten    --      0.1014                69.3186                46.7598

                     46                     47                     48
                      A                      A                      A
 Frequencies --   1249.8422              1276.5484              1313.0846
 Red. masses --      2.8311                 1.7743                 1.8731
 Frc consts  --      2.6056                 1.7035                 1.9029
 IR Inten    --     35.0447                10.6255                25.6670

                     49                     50                     51
                      A                      A                      A
 Frequencies --   1324.6732              1360.0550              1379.1275
 Red. masses --      1.5436                 4.7989                 3.7490
 Frc consts  --      1.5959                 5.2301                 4.2012
 IR Inten    --      2.3751               104.4300               210.5504

                     52                     53                     54
                      A                      A                      A
 Frequencies --   1391.1597              1404.1466              1435.4330
 Red. masses --      1.4882                 1.4167                 1.3571
 Frc consts  --      1.6970                 1.6457                 1.6476
 IR Inten    --     16.1638                58.0346                17.5158

                     55                     56                     57
                      A                      A                      A
 Frequencies --   1452.1159              1461.3563              1508.0362
 Red. masses --      1.2694                 2.1322                 1.0523
 Frc consts  --      1.5771                 2.6829                 1.4100
 IR Inten    --     23.7751                66.6658                 1.0943

                     58                     59                     60
                      A                      A                      A
 Frequencies --   1518.7680              1530.4658              1533.5659
 Red. masses --      1.0501                 1.0730                 2.6456
 Frc consts  --      1.4272                 1.4809                 3.6659
 IR Inten    --      4.5043                 8.2245                14.6545

                     61                     62                     63
                      A                      A                      A
 Frequencies --   1539.8836              1558.3647              1662.4979
 Red. masses --      1.0621                 3.1717                 6.3664
 Frc consts  --      1.4838                 4.5382                10.3674
 IR Inten    --      6.3573               180.0018                 7.7274

                     64                     65                     66
                      A                      A                      A
 Frequencies --   1669.1622              1802.4267              3059.8564
 Red. masses --      6.7007                 9.1461                 1.0354
 Frc consts  --     10.9994                17.5065                 5.7119
 IR Inten    --     10.6718               467.0194                12.9477

                     67                     68                     69
                      A                      A                      A
 Frequencies --   3071.2376              3126.5045              3130.0879
 Red. masses --      1.0367                 1.0872                 1.1017
 Frc consts  --      5.7615                 6.2614                 6.3596
 IR Inten    --     14.5201                 9.5438                16.0681

                     70                     71                     72
                      A                      A                      A
 Frequencies --   3137.2399              3140.8971              3168.8362
 Red. masses --      1.1026                 1.1023                 1.1015
 Frc consts  --      6.3940                 6.4070                 6.5168
 IR Inten    --     15.7466                33.8303                10.4608

                     73                     74                     75
                      A                      A                      A
 Frequencies --   3186.4417              3201.5613              3213.0765
 Red. masses --      1.0883                 1.0877                 1.0923
 Frc consts  --      6.5106                 6.5687                 6.6438
 IR Inten    --      7.1871                 4.3589                15.2455

                     76                     77                     78
                      A                      A                      A
 Frequencies --   3222.8900              3596.2675              3710.9323
 Red. masses --      1.0974                 1.0768                 1.0648
 Frc consts  --      6.7156                 8.2049                 8.6395
 IR Inten    --     12.8772                34.4887                25.9533

 - Thermochemistry -
 -------------------
 Temperature   298.150 Kelvin.  Pressure   1.00000 Atm.
 Atom     1 has atomic number  6 and mass  12.00000

 Molecular mass:   207.08954 amu.
 Principal axes and moments of inertia in atomic units:
                           1         2         3
     Eigenvalues --  1616.236813737.521014580.53049
           X            0.99998  -0.00435   0.00370
           Y            0.00432   0.99996   0.00833
           Z           -0.00373  -0.00832   0.99996
 This molecule is an asymmetric top.
 Rotational symmetry number  1.
 Warning -- assumption of classical behavior for rotation
           may cause significant error
 Rotational temperatures (Kelvin)      0.05359     0.02317     0.01891
 Rotational constants (GHZ):           1.11663     0.48287     0.39400
 Zero-point vibrational energy     601390.9 (Joules/Mol)
                                  143.73587 (Kcal/Mol)
 Warning -- explicit consideration of  23 degrees of freedom as
           vibrations may cause significant error
 Vibrational temperatures:     73.01    90.08   117.67   229.02   296.11
          (Kelvin)            310.51   371.00   385.66   422.39   452.44
                              468.02   482.68   591.45   615.79   622.62
                              650.58   673.80   703.10   742.89   809.44
                              822.82   853.46   888.22   986.79  1018.53
                             1055.19  1093.25  1144.23  1161.37  1232.24
                             1306.51  1325.39  1328.06  1373.75  1380.17
                             1385.38  1438.55  1486.84  1523.20  1542.07
                             1646.82  1662.58  1712.91  1758.18  1789.29
                             1798.24  1836.67  1889.24  1905.91  1956.82
                             1984.26  2001.57  2020.25  2065.27  2089.27
                             2102.57  2169.73  2185.17  2202.00  2206.46
                             2215.55  2242.14  2391.96  2401.55  2593.29
                             4402.45  4418.83  4498.34  4503.50  4513.79
                             4519.05  4559.25  4584.58  4606.33  4622.90
                             4637.02  5174.23  5339.20

 Zero-point correction=                           0.229058 (Hartree/Particle)
 Thermal correction to Energy=                    0.242304
 Thermal correction to Enthalpy=                  0.243248
 Thermal correction to Gibbs Free Energy=         0.189808
 Sum of electronic and zero-point Energies=           -707.258172
 Sum of electronic and thermal Energies=              -707.244926
 Sum of electronic and thermal Enthalpies=            -707.243981
 Sum of electronic and thermal Free Energies=         -707.297422

                     E (Thermal)             CV                S
                      KCal/Mol        Cal/Mol-Kelvin    Cal/Mol-Kelvin
 Total                  152.048             53.084            112.474
 Electronic               0.000              0.000              0.000
 Translational            0.889              2.981             41.888
 Rotational               0.889              2.981             31.693
 Vibrational            150.271             47.122             38.894
 Vibration     1          0.595              1.977              4.788
 Vibration     2          0.597              1.972              4.373
 Vibration     3          0.600              1.962              3.848
 Vibration     4          0.621              1.892              2.560
 Vibration     5          0.640              1.832              2.081
 Vibration     6          0.645              1.817              1.994
 Vibration     7          0.667              1.749              1.676
 Vibration     8          0.673              1.732              1.609
 Vibration     9          0.688              1.686              1.453
 Vibration    10          0.702              1.646              1.339
 Vibration    11          0.709              1.625              1.283
 Vibration    12          0.717              1.605              1.234
 Vibration    13          0.775              1.446              0.923
 Vibration    14          0.790              1.409              0.865
 Vibration    15          0.794              1.399              0.850
 Vibration    16          0.811              1.356              0.789
 Vibration    17          0.826              1.320              0.742
 Vibration    18          0.845              1.275              0.687
 Vibration    19          0.871              1.214              0.619
 Vibration    20          0.918              1.112              0.519
 Vibration    21          0.928              1.092              0.501
 Vibration    22          0.951              1.046              0.462
 Vibration    23          0.977              0.995              0.421

 Optimization completed.
    -- Stationary point found.
 Normal termination of Gaussian 16 at Thu Dec 10 16:58:22 2020.

 ----------------------------------------------------------------------
 # B3LYP/6-311++G(d,p) empiricaldispersion=gd3bj scf=xqc pop=npa geom=c
 heck
 ----------------------------------------------------------------------

 ---------------------------------------
 CID_116990912_JID_5766_Energie_neutraal
 ---------------------------------------
 Structure from the checkpoint file:  "JID_5766.chk"
 Charge =  0 Multiplicity = 1

 SCF Done:  E(RB3LYP) =  -707.694722647     A.U. after   15 cycles
 Normal termination of Gaussian 16 at Thu Dec 10 17:02:13 2020.

 ----------------------------------------------------------------------
 # B3LYP/6-311++G(d,p) empiricaldispersion=gd3bj scf=xqc pop=npa geom=c
 heck
 ----------------------------------------------------------------------

 -------------------------------------
 CID_116990912_JID_5766_Energie_kation
 -------------------------------------
 Structure from the checkpoint file:  "JID_5766.chk"
 Charge =  1 Multiplicity = 2

 SCF Done:  E(UB3LYP) =  -707.395407201     A.U. after   24 cycles
 Normal termination of Gaussian 16 at Thu Dec 10 17:09:46 2020.
 Gaussian 16:  ES64L-G16RevA.03 25-Dec-2016

 ----------------------------------------------------------------------
 # B3LYP/6-311++G(d,p) empiricaldispersion=gd3bj scf=xqc pop=npa geom=c
 heck
 ----------------------------------------------------------------------

 ------------------------------------
 CID_116990912_JID_5766_Energie_anion
 ------------------------------------
 Structure from the checkpoint file:  "JID_5766.chk"
 Charge = -1 Multiplicity = 2

                         Standard orientation:
 ---------------------------------------------------------------------
 Center     Atomic      Atomic             Coordinates (Angstroms)
 Number     Number       Type             X           Y           Z
 ---------------------------------------------------------------------
      1          6           0        3.416876   -0.163586    0.456631
      2          6           0        2.001715   -0.716750    0.313099
      3          6           0        1.263466   -0.708280    1.658772
      4          6           0        1.217872    0.060759   -0.787520
      5          6           0        0.922032    1.510364   -0.419655
      6          8           0        1.793323    2.366096   -0.438018
      7          7           0       -0.364510    1.778180   -0.036516
      8          6           0       -1.392735    0.826236    0.008090
      9          6           0       -2.632401    1.093229    0.587517
     10          6           0       -3.629127    0.116938    0.585035
     11          6           0       -3.383022   -1.129867    0.010034
     12          6           0       -2.138355   -1.404770   -0.559749
     13          6           0       -1.146562   -0.429808   -0.561120
     14          8           0        0.050976   -0.702436   -1.170192
     15          8           0        2.144672   -2.055641   -0.157801
     16          1           0        3.406739    0.869867    0.807761
     17          1           0        3.937520   -0.199913   -0.504931
     18          1           0        3.969108   -0.784697    1.168624
     19          1           0        1.157519    0.306983    2.056435
     20          1           0        0.265470   -1.148859    1.571001
     21          1           0        1.833129   -1.303410    2.378165
     22          1           0        1.839858    0.077287   -1.684377
     23          1           0       -0.550122    2.732863    0.246706
     24          1           0       -2.812173    2.067709    1.034186
     25          1           0       -4.593004    0.334097    1.033944
     26          1           0       -4.154114   -1.893665    0.006890
     27          1           0       -1.921931   -2.366164   -1.014401
     28          1           0        1.263246   -2.330303   -0.463093
 ---------------------------------------------------------------------

 SCF Done:  E(UB3LYP) =  -707.678676643     A.U. after   33 cycles
 SCF Done:  E(UB3LYP) =  -707.679769724     a.u. after    8 cycles

 The electronic state is 2-A.
 Alpha  occ. eigenvalues --  -19.05167 -19.01936 -18.97390 -14.24269 -10.15026
 Alpha  occ. eigenvalues --  -10.13570 -10.13297 -10.11918 -10.09678 -10.06171
 Alpha  occ. eigenvalues --  -10.06059 -10.06038 -10.05717 -10.05505 -10.04603
 Alpha  occ. eigenvalues --   -0.97329  -0.92835  -0.92370  -0.83242  -0.73758
 Alpha  occ. eigenvalues --   -0.69494  -0.64574  -0.63352  -0.59834  -0.59517
 Alpha  occ. eigenvalues --   -0.53503  -0.51378  -0.48574  -0.44987  -0.44565
 Alpha  occ. eigenvalues --   -0.41950  -0.40854  -0.36689  -0.36462  -0.35298
 Alpha  occ. eigenvalues --   -0.34681  -0.33637  -0.32483  -0.31418  -0.30347
 Alpha  occ. eigenvalues --   -0.29900  -0.28903  -0.28238  -0.28023  -0.26604
 Alpha  occ. eigenvalues --   -0.26235  -0.25648  -0.24259  -0.22856  -0.21647
 Alpha  occ. eigenvalues --   -0.19984  -0.18035  -0.14954  -0.13046  -0.10231
 Alpha  occ. eigenvalues --    0.05590
 Alpha virt. eigenvalues --    0.06863   0.07834   0.08101   0.09171   0.09315
 Alpha virt. eigenvalues --    0.10041   0.10331   0.10967   0.11997   0.12175
 Alpha virt. eigenvalues --    0.12944   0.13075   0.13752   0.14386   0.14750

  Beta  occ. eigenvalues --  -19.05145 -19.01919 -18.97161 -14.24336 -10.14743
  Beta  occ. eigenvalues --  -10.13554 -10.13311 -10.11919 -10.09505 -10.06168
  Beta  occ. eigenvalues --  -10.06056 -10.05966 -10.05741 -10.05468 -10.04414
  Beta  occ. eigenvalues --   -0.97260  -0.92523  -0.92245  -0.83106  -0.73582
  Beta  occ. eigenvalues --   -0.69436  -0.64471  -0.63040  -0.59780  -0.59440
  Beta  occ. eigenvalues --   -0.53277  -0.51067  -0.48507  -0.44891  -0.44456
  Beta  occ. eigenvalues --   -0.41812  -0.40697  -0.36610  -0.36397  -0.35191
  Beta  occ. eigenvalues --   -0.34551  -0.33399  -0.32336  -0.31181  -0.30189
  Beta  occ. eigenvalues --   -0.29563  -0.28881  -0.28156  -0.27725  -0.26441
  Beta  occ. eigenvalues --   -0.26089  -0.25515  -0.24162  -0.22767  -0.21359
  Beta  occ. eigenvalues --   -0.19298  -0.17921  -0.14752  -0.12568  -0.09686
  Beta virt. eigenvalues --    0.07397   0.08078   0.08692   0.09394   0.09555
  Beta virt. eigenvalues --    0.09911   0.10230   0.10806   0.11104   0.12070
  Beta virt. eigenvalues --    0.12369   0.12918   0.13558   0.14210   0.14585

 Mulliken charges and spin densities:
               1          2
     1  C   -0.460263  -0.067368
     2  C   -0.034796  -0.012370
     3  C   -0.419272   0.001785
     4  C    0.062798  -0.012935
     5  C   -0.124272   0.051955
     6  O   -0.384679   0.085190
     7  N   -0.265329   0.026276
     8  C    0.944074  -0.396276
     9  C   -0.301948   0.005043
    10  C   -0.345298  -0.013179
    11  C    1.212181  -1.439958
    12  C   -0.028060  -0.249022
    13  C   -0.464331   0.509185
    14  O   -0.147889   0.002057
    15  O   -0.146331   0.006004
    16  H    0.188522  -0.006613
    17  H    0.105128   0.041254
    18  H    0.132350  -0.001207
    19  H    0.187808   0.000971
    20  H    0.198057  -0.035185
    21  H    0.126471   0.021275
    22  H    0.176467   0.091403
    23  H    0.093436   0.231144
    24  H   -0.077150   0.195413
    25  H   -0.053499   0.193002
    26  H   -1.111149   1.272514
    27  H   -0.287510   0.443056
    28  H    0.224482   0.056588
 Sum of Mulliken charges =  -1.00000   1.00000

 Dipole moment (field-independent basis, Debye):
    X=              5.4431    Y=              2.1345    Z=              1.7710  Tot=              6.1090
 Quadrupole moment (field-independent basis, Debye-Ang):
   XX=           -158.0551   YY=           -134.5344   ZZ=           -104.8998
   XY=            -20.6155   XZ=             -0.3566   YZ=             -1.4123

 Summary of Natural Population Analysis:

                                       Natural Population
                Natural  -----------------------------------------------
    Atom  No    Charge         Core      Valence    Rydberg      Total
 -----------------------------------------------------------------------
      C    1   -0.29147      0.99961     2.28610    0.00576     3.29147
      C    2    0.12285      0.99954     1.86326    0.01435     2.87715
      C    3   -0.30338      0.99961     2.29609    0.00767     3.30338
      C    4    0.02299      0.99944     1.96181    0.01576     2.97701
      C    5    0.36352      0.99965     1.61268    0.02415     2.63648
      O    6   -0.30236      0.99988     3.29686    0.00562     4.30236
      N    7   -0.31086      0.99964     2.80267    0.00855     3.81086
      C    8    0.07135      0.99943     1.91846    0.01075     2.92865
      C    9   -0.10328      0.99954     2.09449    0.00924     3.10328
      C   10   -0.11499      0.99957     2.10547    0.00994     3.11499
      C   11   -0.07650      0.99957     2.06618    0.01075     3.07650
      C   12   -0.11525      0.99952     2.10484    0.01089     3.11525
      C   13    0.13988      0.99933     1.84650    0.01429     2.86012
      O   14   -0.28720      0.99986     3.27782    0.00953     4.28720
      O   15   -0.37905      0.99989     3.37239    0.00677     4.37905
      H   16    0.11246      0.00000     0.38681    0.00073     0.38754
      H   17    0.10215      0.00000     0.39682    0.00102     0.39785
      H   18    0.09751      0.00000     0.40158    0.00090     0.40249
      H   19    0.10347      0.00000     0.39587    0.00067     0.39653
      H   20    0.10867      0.00000     0.39051    0.00082     0.39133
      H   21    0.10037      0.00000     0.39879    0.00084     0.39963
      H   22    0.10729      0.00000     0.39172    0.00099     0.39271
      H   23    0.19814      0.00000     0.29819    0.00367     0.30186
      H   24    0.09569      0.00000     0.40315    0.00116     0.40431
      H   25    0.09786      0.00000     0.40140    0.00074     0.40214
      H   26    0.10098      0.00000     0.39598    0.00304     0.39902
      H   27    0.10397      0.00000     0.39439    0.00164     0.39603
      H   28    0.23517      0.00000     0.26190    0.00293     0.26483
 =======================================================================
   * Total *    0.00000     14.99408    39.82275    0.18318    55.00000

 Normal termination of Gaussian 16 at Thu Dec 10 18:21:30 2020.
