 Gaussian 16, Revision A.03,

 -----------------------------------------------------------
 # opt freq B3LYP/6-31G(d) empiricaldispersion=gd3bj scf=xqc
 -----------------------------------------------------------

 -------------------------------
 CID_150133892_JID_7410_neutraal
 -------------------------------
 Symbolic Z-matrix:
 Charge =  0 Multiplicity = 1

 SCF Done:  E(RB3LYP) =  -815.344784973     A.U. after   17 cycles
 SCF Done:  E(RB3LYP) =  -815.353839814     A.U. after   14 cycles
 SCF Done:  E(RB3LYP) =  -815.355245014     A.U. after   14 cycles
 SCF Done:  E(RB3LYP) =  -815.352877825     A.U. after   16 cycles
 SCF Done:  E(RB3LYP) =  -815.356633958     A.U. after   15 cycles
 SCF Done:  E(RB3LYP) =  -815.356850927     A.U. after   14 cycles
 SCF Done:  E(RB3LYP) =  -815.357021747     A.U. after   15 cycles
 SCF Done:  E(RB3LYP) =  -815.357438945     A.U. after   14 cycles
 SCF Done:  E(RB3LYP) =  -815.357799305     A.U. after   16 cycles
 SCF Done:  E(RB3LYP) =  -815.357928656     A.U. after   18 cycles
 SCF Done:  E(RB3LYP) =  -815.358796557     A.U. after   12 cycles
 SCF Done:  E(RB3LYP) =  -815.358797229     A.U. after   11 cycles
 SCF Done:  E(RB3LYP) =  -815.358797554     A.U. after   10 cycles
 SCF Done:  E(RB3LYP) =  -815.358797629     A.U. after    8 cycles
 SCF Done:  E(RB3LYP) =  -815.358797644     A.U. after    7 cycles
 SCF Done:  E(RB3LYP) =  -815.358797640     A.U. after    8 cycles
 Optimization completed on the basis of negligible forces.
    -- Stationary point found.
 Normal termination of Gaussian 16 at Sat Feb 27 18:44:13 2021.

 --------------------------------------------------------------------
 #N Geom=AllCheck Guess=TCheck SCRF=Check GenChk RB3LYP/6-31G(d) Freq
 --------------------------------------------------------------------

 Structure from the checkpoint file:  "JID_7410.chk"
 -------------------------------
 CID_150133892_JID_7410_neutraal
 -------------------------------
 Charge =  0 Multiplicity = 1

 SCF Done:  E(RB3LYP) =  -815.358797640     A.U. after    1 cycles

  Exact polarizability: 175.811  -3.555 153.635  18.309  12.811 131.098
 Approx polarizability: 237.730   8.321 211.958  34.929  30.987 229.673

                      1                      2                      3
                      A                      A                      A
 Frequencies --      9.3544                13.0160                13.9893
 Red. masses --      3.2592                 4.3028                 5.0657
 Frc consts  --      0.0002                 0.0004                 0.0006
 IR Inten    --      0.0073                 0.1977                 0.1330

                      4                      5                      6
                      A                      A                      A
 Frequencies --     16.0645                21.0888                34.8920
 Red. masses --      1.0470                 6.9363                 5.2922
 Frc consts  --      0.0002                 0.0018                 0.0038
 IR Inten    --      0.0582                 0.3893                 0.1429

                      7                      8                      9
                      A                      A                      A
 Frequencies --     38.8297                68.7362                90.7281
 Red. masses --      6.0688                 5.5397                 4.4834
 Frc consts  --      0.0054                 0.0154                 0.0217
 IR Inten    --      0.7858                 1.1416                 0.8531

                     10                     11                     12
                      A                      A                      A
 Frequencies --    106.2586               127.3984               145.8449
 Red. masses --      4.6266                 5.8312                 5.2536
 Frc consts  --      0.0308                 0.0558                 0.0658
 IR Inten    --      0.0843                 1.3560                 1.2872

                     13                     14                     15
                      A                      A                      A
 Frequencies --    212.4224               214.2270               224.6390
 Red. masses --      1.7146                 5.9791                 3.9392
 Frc consts  --      0.0456                 0.1617                 0.1171
 IR Inten    --      2.0048                 1.6207                 2.0831

                     16                     17                     18
                      A                      A                      A
 Frequencies --    262.9113               283.8529               302.1295
 Red. masses --      5.4589                 5.3958                 3.3174
 Frc consts  --      0.2223                 0.2561                 0.1784
 IR Inten    --      1.7865                 5.8767                 2.3591

                     19                     20                     21
                      A                      A                      A
 Frequencies --    322.8085               344.2584               374.6759
 Red. masses --      2.8228                 2.5158                 6.0598
 Frc consts  --      0.1733                 0.1757                 0.5012
 IR Inten    --      3.8793                 1.7353                 2.1572

                     22                     23                     24
                      A                      A                      A
 Frequencies --    392.9636               422.5375               439.0688
 Red. masses --      6.4202                10.6758                10.7976
 Frc consts  --      0.5841                 1.1230                 1.2264
 IR Inten    --      0.6007                 8.6379                 3.5069

                     25                     26                     27
                      A                      A                      A
 Frequencies --    442.5485               475.8053               508.4515
 Red. masses --     10.4819                 5.8783                 7.5745
 Frc consts  --      1.2095                 0.7841                 1.1537
 IR Inten    --     23.2423                 7.3426                 1.4096

                     28                     29                     30
                      A                      A                      A
 Frequencies --    545.4726               568.1869               607.4759
 Red. masses --     13.7586                 6.4248                12.5003
 Frc consts  --      2.4120                 1.2221                 2.7179
 IR Inten    --     11.2197                 2.5494                 4.3127

                     31                     32                     33
                      A                      A                      A
 Frequencies --    655.4158               706.6814               767.7725
 Red. masses --      5.7157                 9.8122                 4.9565
 Frc consts  --      1.4466                 2.8871                 1.7214
 IR Inten    --      8.3840                 0.0361                 7.9415

                     34                     35                     36
                      A                      A                      A
 Frequencies --    779.3931               792.1923               822.8297
 Red. masses --      5.3592                 1.1752                 4.3097
 Frc consts  --      1.9181                 0.4345                 1.7192
 IR Inten    --     12.0741                 1.6304                31.5711

                     37                     38                     39
                      A                      A                      A
 Frequencies --    899.1977               961.7044               989.4059
 Red. masses --      3.4960                 2.9839                 2.4873
 Frc consts  --      1.6655                 1.6260                 1.4346
 IR Inten    --    105.5237                19.9323                17.7522

                     40                     41                     42
                      A                      A                      A
 Frequencies --   1037.3998              1071.5249              1076.4044
 Red. masses --      3.0070                 1.3889                 1.3618
 Frc consts  --      1.9067                 0.9396                 0.9296
 IR Inten    --    215.3526                 1.9245                 1.0264

                     43                     44                     45
                      A                      A                      A
 Frequencies --   1094.8131              1118.6810              1124.3828
 Red. masses --      1.7971                 1.7622                 2.6728
 Frc consts  --      1.2691                 1.2994                 1.9909
 IR Inten    --     14.7181                34.6793                65.5611

                     46                     47                     48
                      A                      A                      A
 Frequencies --   1190.5666              1264.5528              1273.1076
 Red. masses --     13.4144                 1.4157                 2.6092
 Frc consts  --     11.2029                 1.3338                 2.4916
 IR Inten    --     91.6605               117.9683               178.2879

                     49                     50                     51
                      A                      A                      A
 Frequencies --   1276.1145              1298.9165              1305.6478
 Red. masses --      2.6825                 5.2905                 1.1497
 Frc consts  --      2.5738                 5.2590                 1.1547
 IR Inten    --     97.4858               145.7444                 0.8990

                     52                     53                     54
                      A                      A                      A
 Frequencies --   1372.0532              1384.8329              1403.2921
 Red. masses --      1.8179                 1.7380                 1.2250
 Frc consts  --      2.0164                 1.9638                 1.4213
 IR Inten    --     39.4956                 0.8227                53.0368

                     55                     56                     57
                      A                      A                      A
 Frequencies --   1411.2723              1436.3564              1450.1988
 Red. masses --      1.4677                 1.2217                 1.2865
 Frc consts  --      1.7223                 1.4851                 1.5940
 IR Inten    --     46.2055                 1.1252                 0.1346

                     58                     59                     60
                      A                      A                      A
 Frequencies --   1478.3587              1505.9571              1509.4560
 Red. masses --      1.1022                 1.0735                 1.0408
 Frc consts  --      1.4193                 1.4344                 1.3972
 IR Inten    --      9.0467                 2.2361                 5.6913

                     61                     62                     63
                      A                      A                      A
 Frequencies --   1513.0174              1524.8696              1534.8544
 Red. masses --      1.0406                 1.0407                 1.0594
 Frc consts  --      1.4036                 1.4257                 1.4704
 IR Inten    --      4.9624                 6.0219                 3.3935

                     64                     65                     66
                      A                      A                      A
 Frequencies --   2173.9879              2362.3373              2406.9470
 Red. masses --     13.9828                11.9679                11.8860
 Frc consts  --     38.9366                39.3508                40.5712
 IR Inten    --    452.0660                21.0504               152.8324

                     67                     68                     69
                      A                      A                      A
 Frequencies --   2424.9665              3031.8462              3039.2087
 Red. masses --     11.8548                 1.0599                 1.0346
 Frc consts  --     41.0729                 5.7403                 5.6306
 IR Inten    --    120.3864                31.3202                41.9181

                     70                     71                     72
                      A                      A                      A
 Frequencies --   3049.7414              3056.5740              3059.7608
 Red. masses --      1.0609                 1.0367                 1.0997
 Frc consts  --      5.8136                 5.7068                 6.0658
 IR Inten    --      3.3028                30.3415                12.0564

                     73                     74                     75
                      A                      A                      A
 Frequencies --   3073.0984              3088.0905              3097.7106
 Red. masses --      1.0860                 1.1020                 1.1020
 Frc consts  --      6.0427                 6.1917                 6.2304
 IR Inten    --     32.8307                 4.8856                16.1302

                     76                     77                     78
                      A                      A                      A
 Frequencies --   3102.1127              3126.6791              3134.9817
 Red. masses --      1.1013                 1.1030                 1.1036
 Frc consts  --      6.2442                 6.3534                 6.3903
 IR Inten    --     12.7658                41.2004                29.7588

 - Thermochemistry -
 -------------------
 Temperature   298.150 Kelvin.  Pressure   1.00000 Atm.
 Atom     1 has atomic number  8 and mass  15.99491

 Molecular mass:   233.08004 amu.
 Principal axes and moments of inertia in atomic units:
                           1         2         3
     Eigenvalues --  5051.138537049.64639**********
           X            0.99835  -0.05605  -0.01252
           Y            0.05616   0.99839   0.00841
           Z            0.01203  -0.00910   0.99989
 This molecule is an asymmetric top.
 Rotational symmetry number  1.
 Warning -- assumption of classical behavior for rotation
           may cause significant error
 Rotational temperatures (Kelvin)      0.01715     0.01229     0.00843
 Rotational constants (GHZ):           0.35729     0.25600     0.17568
 Zero-point vibrational energy     537661.0 (Joules/Mol)
                                  128.50407 (Kcal/Mol)
 Warning -- explicit consideration of  30 degrees of freedom as
           vibrations may cause significant error
 Vibrational temperatures:     13.46    18.73    20.13    23.11    30.34
          (Kelvin)             50.20    55.87    98.90   130.54   152.88
                              183.30   209.84   305.63   308.22   323.21
                              378.27   408.40   434.70   464.45   495.31
                              539.08   565.39   607.94   631.72   636.73
                              684.58   731.55   784.81   817.49   874.02
                              943.00  1016.76  1104.65  1121.37  1139.79
                             1183.87  1293.74  1383.68  1423.53  1492.59
                             1541.69  1548.71  1575.19  1609.53  1617.74
                             1712.96  1819.41  1831.72  1836.04  1868.85
                             1878.54  1974.08  1992.47  2019.02  2030.51
                             2066.60  2086.51  2127.03  2166.74  2171.77
                             2176.89  2193.95  2208.31  3127.88  3398.88
                             3463.06  3488.99  4362.15  4372.74  4387.90
                             4397.73  4402.31  4421.50  4443.07  4456.91
                             4463.25  4498.59  4510.54

 Zero-point correction=                           0.204784 (Hartree/Particle)
 Thermal correction to Energy=                    0.224674
 Thermal correction to Enthalpy=                  0.225618
 Thermal correction to Gibbs Free Energy=         0.147760
 Sum of electronic and zero-point Energies=           -815.154013
 Sum of electronic and thermal Energies=              -815.134124
 Sum of electronic and thermal Enthalpies=            -815.133179
 Sum of electronic and thermal Free Energies=         -815.211038

                     E (Thermal)             CV                S
                      KCal/Mol        Cal/Mol-Kelvin    Cal/Mol-Kelvin
 Total                  140.985             65.852            163.867
 Electronic               0.000              0.000              0.000
 Translational            0.889              2.981             42.240
 Rotational               0.889              2.981             34.258
 Vibrational            139.208             59.890             87.369
 Vibration     1          0.593              1.987              8.144
 Vibration     2          0.593              1.987              7.487
 Vibration     3          0.593              1.986              7.344
 Vibration     4          0.593              1.986              7.069
 Vibration     5          0.593              1.985              6.529
 Vibration     6          0.594              1.983              5.530
 Vibration     7          0.594              1.981              5.318
 Vibration     8          0.598              1.969              4.189
 Vibration     9          0.602              1.956              3.644
 Vibration    10          0.605              1.944              3.336
 Vibration    11          0.611              1.926              2.985
 Vibration    12          0.617              1.907              2.726
 Vibration    13          0.643              1.822              2.023
 Vibration    14          0.644              1.819              2.007
 Vibration    15          0.649              1.804              1.921
 Vibration    16          0.670              1.741              1.642
 Vibration    17          0.682              1.704              1.510
 Vibration    18          0.694              1.670              1.405
 Vibration    19          0.708              1.630              1.296
 Vibration    20          0.723              1.587              1.192
 Vibration    21          0.746              1.524              1.061
 Vibration    22          0.760              1.485              0.989
 Vibration    23          0.785              1.421              0.883
 Vibration    24          0.799              1.385              0.830
 Vibration    25          0.802              1.377              0.819
 Vibration    26          0.832              1.304              0.721
 Vibration    27          0.864              1.231              0.637
 Vibration    28          0.901              1.150              0.554
 Vibration    29          0.924              1.100              0.508
 Vibration    30          0.966              1.016              0.437

 Optimization completed on the basis of negligible forces.
    -- Stationary point found.
 Normal termination of Gaussian 16 at Sat Feb 27 18:53:26 2021.

 ----------------------------------------------------------------------
 # B3LYP/6-311++G(d,p) empiricaldispersion=gd3bj scf=xqc pop=npa geom=c
 heck
 ----------------------------------------------------------------------

 ---------------------------------------
 CID_150133892_JID_7410_Energie_neutraal
 ---------------------------------------
 Structure from the checkpoint file:  "JID_7410.chk"
 Charge =  0 Multiplicity = 1

 SCF Done:  E(RB3LYP) =  -815.593190009     A.U. after   17 cycles
 Normal termination of Gaussian 16 at Sat Feb 27 18:57:16 2021.

 ----------------------------------------------------------------------
 # B3LYP/6-311++G(d,p) empiricaldispersion=gd3bj scf=xqc pop=npa geom=c
 heck
 ----------------------------------------------------------------------

 -------------------------------------
 CID_150133892_JID_7410_Energie_kation
 -------------------------------------
 Structure from the checkpoint file:  "JID_7410.chk"
 Charge =  1 Multiplicity = 2

 SCF Done:  E(UB3LYP) =  -815.291572143     A.U. after   29 cycles
 Normal termination of Gaussian 16 at Sat Feb 27 19:06:55 2021.
 Gaussian 16:  ES64L-G16RevA.03 25-Dec-2016

 ----------------------------------------------------------------------
 # B3LYP/6-311++G(d,p) empiricaldispersion=gd3bj scf=xqc pop=npa geom=c
 heck
 ----------------------------------------------------------------------

 ------------------------------------
 CID_150133892_JID_7410_Energie_anion
 ------------------------------------
 Structure from the checkpoint file:  "JID_7410.chk"
 Charge = -1 Multiplicity = 2

                         Standard orientation:
 ---------------------------------------------------------------------
 Center     Atomic      Atomic             Coordinates (Angstroms)
 Number     Number       Type             X           Y           Z
 ---------------------------------------------------------------------
      1          8           0        1.033064    0.307224   -0.393021
      2          8           0        1.483684   -1.604949    0.773166
      3          8           0       -3.234085   -1.592250    0.767195
      4          7           0       -4.137511   -0.590598    0.032039
      5          7           0       -4.270379   -1.086808   -1.109661
      6          7           0       -4.476282   -1.451468   -2.170713
      7          6           0        1.333400   -0.214067    0.917224
      8          6           0        0.193360    0.050201    1.896429
      9          6           0        1.205818    4.281083   -0.650082
     10          6           0       -1.080006   -0.524492    1.485260
     11          6           0       -0.018658    4.961794   -0.013962
     12          6           0        1.105522    1.616846   -0.472410
     13          6           0        1.172535    2.820741   -0.544290
     14          6           0        2.558449   -1.990381    0.109333
     15          6           0       -2.122068   -1.017737    1.120861
     16          6           0        3.536569   -2.386329   -0.473137
     17          6           0        4.709549   -2.870665   -1.196310
     18          1           0        2.270820    0.241292    1.257603
     19          1           0        0.495114   -0.331582    2.879981
     20          1           0        0.099868    1.139695    1.993440
     21          1           0        2.123523    4.663804   -0.182792
     22          1           0        1.271527    4.561300   -1.710133
     23          1           0       -0.942355    4.621828   -0.492342
     24          1           0        0.047815    6.050033   -0.120789
     25          1           0       -0.084536    4.723983    1.052762
     26          1           0        5.014212   -2.160846   -1.974671
     27          1           0        4.498885   -3.827629   -1.688596
     28          1           0        5.566217   -3.021940   -0.528321
 ---------------------------------------------------------------------

 SCF Done:  E(UB3LYP) =  -815.637473063     A.U. after   28 cycles

 The electronic state is 2-A.
 Alpha  occ. eigenvalues --  -19.10800 -19.09835 -19.00499 -14.24579 -14.19080
 Alpha  occ. eigenvalues --  -14.15963 -10.21622 -10.13692 -10.13328 -10.12150
 Alpha  occ. eigenvalues --  -10.12128 -10.09809 -10.09356 -10.08639 -10.07901
 Alpha  occ. eigenvalues --  -10.06856 -10.00816  -1.04533  -0.99336  -0.95018
 Alpha  occ. eigenvalues --   -0.89674  -0.74938  -0.72340  -0.71626  -0.69740
 Alpha  occ. eigenvalues --   -0.64972  -0.63095  -0.60379  -0.56907  -0.55526
 Alpha  occ. eigenvalues --   -0.51172  -0.48786  -0.43101  -0.41115  -0.40303
 Alpha  occ. eigenvalues --   -0.39220  -0.38494  -0.36233  -0.36175  -0.35691
 Alpha  occ. eigenvalues --   -0.34812  -0.34032  -0.32981  -0.32656  -0.31865
 Alpha  occ. eigenvalues --   -0.31609  -0.30862  -0.30051  -0.29034  -0.27861
 Alpha  occ. eigenvalues --   -0.27069  -0.26103  -0.23698  -0.18566  -0.17721
 Alpha  occ. eigenvalues --   -0.17570  -0.16283  -0.15452  -0.11321  -0.09199
 Alpha  occ. eigenvalues --   -0.06254   0.03373
 Alpha virt. eigenvalues --    0.05262   0.05649   0.07482   0.08056   0.09005
 Alpha virt. eigenvalues --    0.09247   0.09577   0.10313   0.10732   0.11843
 Alpha virt. eigenvalues --    0.12482   0.13212   0.13433   0.14109   0.14169

  Beta  occ. eigenvalues --  -19.10800 -19.09834 -18.99787 -14.24256 -14.18727
  Beta  occ. eigenvalues --  -14.14934 -10.21623 -10.13692 -10.13328 -10.12150
  Beta  occ. eigenvalues --  -10.12128 -10.09818 -10.09356 -10.08639 -10.07901
  Beta  occ. eigenvalues --  -10.06873 -10.00707  -1.04532  -0.99335  -0.93679
  Beta  occ. eigenvalues --   -0.88355  -0.73688  -0.72332  -0.71611  -0.69726
  Beta  occ. eigenvalues --   -0.64955  -0.63063  -0.60284  -0.56843  -0.55451
  Beta  occ. eigenvalues --   -0.51170  -0.48748  -0.41536  -0.40770  -0.40272
  Beta  occ. eigenvalues --   -0.39218  -0.38492  -0.36221  -0.36159  -0.35595
  Beta  occ. eigenvalues --   -0.34782  -0.33830  -0.32677  -0.32276  -0.31660
  Beta  occ. eigenvalues --   -0.30877  -0.30294  -0.30048  -0.29032  -0.27216
  Beta  occ. eigenvalues --   -0.26529  -0.24181  -0.22065  -0.18531  -0.17719
  Beta  occ. eigenvalues --   -0.16401  -0.16046  -0.15406  -0.10282  -0.08822
  Beta  occ. eigenvalues --   -0.05568
  Beta virt. eigenvalues --    0.05253   0.05644   0.07466   0.08047   0.08991
  Beta virt. eigenvalues --    0.09234   0.09567   0.10297   0.10706   0.11803
  Beta virt. eigenvalues --    0.12417   0.12778   0.13222   0.13564   0.14120

 Mulliken charges and spin densities:
               1          2
     1  O   -0.094568  -0.000717
     2  O   -0.060336  -0.000138
     3  O   -0.184207   0.100850
     4  N   -0.537635   0.168865
     5  N    0.283056   0.112713
     6  N   -0.359761   0.533844
     7  C   -0.077093   0.018931
     8  C   -0.921962  -0.038441
     9  C   -0.690141   0.000698
    10  C    0.313986   0.106874
    11  C   -0.481597  -0.000835
    12  C    0.122028   0.000631
    13  C    0.400989  -0.000147
    14  C    0.184200  -0.005496
    15  C    0.094687  -0.013509
    16  C    0.173828  -0.002056
    17  C   -0.773591  -0.002603
    18  H    0.163326   0.001114
    19  H    0.165771   0.015876
    20  H    0.136104   0.000651
    21  H    0.134234   0.000013
    22  H    0.149202  -0.000044
    23  H    0.154961   0.000899
    24  H    0.114541   0.000122
    25  H    0.138885  -0.000135
    26  H    0.158669   0.000501
    27  H    0.152591   0.000516
    28  H    0.139834   0.001024
 Sum of Mulliken charges =  -1.00000   1.00000

 Dipole moment (field-independent basis, Debye):
    X=             15.7007    Y=              6.1507    Z=              2.7813  Tot=             17.0903
 Quadrupole moment (field-independent basis, Debye-Ang):
   XX=           -167.1122   YY=           -110.4176   ZZ=           -115.7014
   XY=            -19.1036   XZ=            -13.4819   YZ=             -2.2542

 Summary of Natural Population Analysis:

                                       Natural Population
                Natural  -----------------------------------------------
    Atom  No    Charge         Core      Valence    Rydberg      Total
 -----------------------------------------------------------------------
      O    1   -0.25904      0.99984     3.25005    0.00915     4.25904
      O    2   -0.25219      0.99983     3.24333    0.00903     4.25219
      O    3   -0.15894      0.99985     3.14895    0.01014     4.15894
      N    4   -0.06848      0.99974     2.55460    0.01414     3.56848
      N    5    0.09922      0.99972     2.38481    0.01625     3.40078
      N    6    0.09216      0.99982     2.39390    0.01413     3.40784
      C    7    0.23581      0.99952     1.75019    0.01447     2.76419
      C    8   -0.23335      0.99957     2.22506    0.00872     3.23335
      C    9   -0.22111      0.99963     2.21525    0.00623     3.22111
      C   10   -0.11664      0.99916     2.10926    0.00821     3.11664
      C   11   -0.27901      0.99967     2.27519    0.00415     3.27901
      C   12    0.15312      0.99896     1.83831    0.00960     2.84688
      C   13   -0.07254      0.99913     2.06669    0.00672     3.07254
      C   14    0.15339      0.99892     1.83858    0.00911     2.84661
      C   15    0.19391      0.99899     1.79486    0.01224     2.80609
      C   16   -0.07564      0.99917     2.07083    0.00564     3.07564
      C   17   -0.30708      0.99954     2.30404    0.00350     3.30708
      H   18    0.07473      0.00000     0.42308    0.00219     0.42527
      H   19    0.10881      0.00000     0.38981    0.00138     0.39119
      H   20    0.11325      0.00000     0.38540    0.00136     0.38675
      H   21    0.10145      0.00000     0.39707    0.00148     0.39855
      H   22    0.10522      0.00000     0.39336    0.00142     0.39478
      H   23    0.10415      0.00000     0.39497    0.00089     0.39585
      H   24    0.09210      0.00000     0.40694    0.00096     0.40790
      H   25    0.09873      0.00000     0.40031    0.00096     0.40127
      H   26    0.10731      0.00000     0.39114    0.00156     0.39269
      H   27    0.10771      0.00000     0.39070    0.00158     0.39229
      H   28    0.10298      0.00000     0.39538    0.00164     0.39702
 =======================================================================
   * Total *    0.00000     16.99107    43.83206    0.17686    61.00000

 Normal termination of Gaussian 16 at Sat Feb 27 19:16:33 2021.
