 Gaussian 16, Revision A.03,

 -----------------------------------------------------------
 # opt freq B3LYP/6-31G(d) empiricaldispersion=gd3bj scf=xqc
 -----------------------------------------------------------

 -------------------------------
 CID_136306913_JID_6970_neutraal
 -------------------------------
 Symbolic Z-matrix:
 Charge =  0 Multiplicity = 1

 SCF Done:  E(RB3LYP) =  -745.380651168     A.U. after   14 cycles
 SCF Done:  E(RB3LYP) =  -745.387169316     A.U. after   13 cycles
 SCF Done:  E(RB3LYP) =  -745.373900541     A.U. after   14 cycles
 SCF Done:  E(RB3LYP) =  -745.384624128     A.U. after   13 cycles
 SCF Done:  E(RB3LYP) =  -745.387530065     A.U. after   11 cycles
 SCF Done:  E(RB3LYP) =  -745.389220829     A.U. after   12 cycles
 SCF Done:  E(RB3LYP) =  -745.389742178     A.U. after   11 cycles
 SCF Done:  E(RB3LYP) =  -745.389764563     A.U. after   12 cycles
 SCF Done:  E(RB3LYP) =  -745.389927703     A.U. after   11 cycles
 SCF Done:  E(RB3LYP) =  -745.389945251     A.U. after   10 cycles
 SCF Done:  E(RB3LYP) =  -745.389953662     A.U. after    9 cycles
 SCF Done:  E(RB3LYP) =  -745.389955537     A.U. after    9 cycles
 SCF Done:  E(RB3LYP) =  -745.389956296     A.U. after    8 cycles
 SCF Done:  E(RB3LYP) =  -745.389956572     A.U. after    7 cycles
 SCF Done:  E(RB3LYP) =  -745.389956621     A.U. after    7 cycles
 Optimization completed.
    -- Stationary point found.
 Normal termination of Gaussian 16 at Fri Dec 11 01:20:10 2020.

 --------------------------------------------------------------------
 #N Geom=AllCheck Guess=TCheck SCRF=Check GenChk RB3LYP/6-31G(d) Freq
 --------------------------------------------------------------------

 Structure from the checkpoint file:  "JID_6970.chk"
 -------------------------------
 CID_136306913_JID_6970_neutraal
 -------------------------------
 Charge =  0 Multiplicity = 1

 SCF Done:  E(RB3LYP) =  -745.389956621     A.U. after    1 cycles

  Exact polarizability: 180.094  -6.056 130.101   6.601   2.239 105.955
 Approx polarizability: 239.932  -7.273 183.056  12.383  10.559 162.346

                      1                      2                      3
                      A                      A                      A
 Frequencies --     32.9451                43.8247                60.5829
 Red. masses --      3.9404                 3.5736                 3.0405
 Frc consts  --      0.0025                 0.0040                 0.0066
 IR Inten    --      0.4047                 0.2050                 0.6514

                      4                      5                      6
                      A                      A                      A
 Frequencies --     76.8985                92.9662               115.3566
 Red. masses --      2.7840                 4.3590                 2.9395
 Frc consts  --      0.0097                 0.0222                 0.0230
 IR Inten    --      2.6386                 0.0252                 1.5010

                      7                      8                      9
                      A                      A                      A
 Frequencies --    155.1855               170.6710               197.2943
 Red. masses --      3.5389                 3.7611                 2.6240
 Frc consts  --      0.0502                 0.0645                 0.0602
 IR Inten    --      0.6235                 1.9183                 0.7543

                     10                     11                     12
                      A                      A                      A
 Frequencies --    214.2439               240.5003               261.6680
 Red. masses --      1.6196                 1.4985                 1.5291
 Frc consts  --      0.0438                 0.0511                 0.0617
 IR Inten    --      0.4912                 3.9693                 1.7359

                     13                     14                     15
                      A                      A                      A
 Frequencies --    289.1406               300.6405               325.2647
 Red. masses --      4.2184                 2.5758                 2.5646
 Frc consts  --      0.2078                 0.1372                 0.1599
 IR Inten    --      4.8213                 1.4712                 5.2593

                     16                     17                     18
                      A                      A                      A
 Frequencies --    363.9471               380.5594               414.5658
 Red. masses --      3.3628                 1.9353                 2.7201
 Frc consts  --      0.2624                 0.1651                 0.2754
 IR Inten    --      0.8331                 0.5064                 4.1351

                     19                     20                     21
                      A                      A                      A
 Frequencies --    429.8885               456.5040               565.6377
 Red. masses --      3.5843                 3.7006                 2.7322
 Frc consts  --      0.3903                 0.4544                 0.5150
 IR Inten    --      2.3796                 0.0245                 8.8600

                     22                     23                     24
                      A                      A                      A
 Frequencies --    578.1397               607.6626               621.2015
 Red. masses --      1.1390                 2.5963                 3.2119
 Frc consts  --      0.2243                 0.5648                 0.7303
 IR Inten    --     97.3777                 9.9746                32.5584

                     25                     26                     27
                      A                      A                      A
 Frequencies --    647.4258               675.7873               726.4915
 Red. masses --      2.0395                 4.5265                 4.1909
 Frc consts  --      0.5037                 1.2180                 1.3032
 IR Inten    --     40.3378                 7.8007                15.3809

                     28                     29                     30
                      A                      A                      A
 Frequencies --    731.5229               764.0185               766.1991
 Red. masses --      5.2169                 2.5260                 4.6091
 Frc consts  --      1.6448                 0.8687                 1.5942
 IR Inten    --      5.1048                33.5937                27.7210

                     31                     32                     33
                      A                      A                      A
 Frequencies --    813.8395               861.5551               872.1219
 Red. masses --      2.5688                 2.5317                 2.0658
 Frc consts  --      1.0024                 1.1072                 0.9258
 IR Inten    --      2.5110                30.8690                 1.8881

                     34                     35                     36
                      A                      A                      A
 Frequencies --    916.4429               918.2306               943.9894
 Red. masses --      2.4248                 2.0096                 1.9583
 Frc consts  --      1.1999                 0.9983                 1.0282
 IR Inten    --      2.5532                12.7094                 0.8441

                     37                     38                     39
                      A                      A                      A
 Frequencies --    969.8252               990.0177              1005.6979
 Red. masses --      1.8124                 2.8490                 2.1916
 Frc consts  --      1.0044                 1.6452                 1.3060
 IR Inten    --      1.4218                10.8151                 7.4345

                     40                     41                     42
                      A                      A                      A
 Frequencies --   1035.3425              1044.6787              1050.3095
 Red. masses --      1.8853                 1.6942                 2.8906
 Frc consts  --      1.1907                 1.0894                 1.8788
 IR Inten    --      3.2116                 6.1991                25.3183

                     43                     44                     45
                      A                      A                      A
 Frequencies --   1091.7898              1099.7966              1114.2269
 Red. masses --      1.5792                 2.3124                 2.4489
 Frc consts  --      1.1091                 1.6479                 1.7913
 IR Inten    --     11.5388                10.9176                 6.8089

                     46                     47                     48
                      A                      A                      A
 Frequencies --   1127.3946              1136.3790              1163.0779
 Red. masses --      2.0912                 2.1410                 5.5573
 Frc consts  --      1.5660                 1.6290                 4.4292
 IR Inten    --     21.4073                23.4684               112.6834

                     49                     50                     51
                      A                      A                      A
 Frequencies --   1165.3775              1194.2800              1202.7230
 Red. masses --      1.6963                 1.2921                 1.8855
 Frc consts  --      1.3574                 1.0858                 1.6070
 IR Inten    --     19.3897                 1.5305                18.1852

                     52                     53                     54
                      A                      A                      A
 Frequencies --   1233.7374              1249.1769              1264.4428
 Red. masses --      1.4869                 2.0779                 1.4412
 Frc consts  --      1.3335                 1.9104                 1.3576
 IR Inten    --     14.0032                 3.0116                 7.5790

                     55                     56                     57
                      A                      A                      A
 Frequencies --   1273.1726              1303.3753              1315.1101
 Red. masses --      1.1626                 1.5268                 1.8731
 Frc consts  --      1.1103                 1.5282                 1.9087
 IR Inten    --      4.2541                 6.5639                82.0745

                     58                     59                     60
                      A                      A                      A
 Frequencies --   1321.0111              1342.3732              1363.3391
 Red. masses --      1.1606                 1.4322                 1.4339
 Frc consts  --      1.1933                 1.5206                 1.5702
 IR Inten    --     16.2103                26.1626                17.9646

                     61                     62                     63
                      A                      A                      A
 Frequencies --   1365.5815              1391.8495              1393.9924
 Red. masses --      1.5077                 1.5097                 1.4505
 Frc consts  --      1.6565                 1.7231                 1.6607
 IR Inten    --      5.4740                93.7700                 7.8303

                     64                     65                     66
                      A                      A                      A
 Frequencies --   1402.3267              1414.2718              1432.1181
 Red. masses --      2.3134                 4.4575                 1.3875
 Frc consts  --      2.6804                 5.2530                 1.6767
 IR Inten    --     34.1928               111.8506                21.6524

                     67                     68                     69
                      A                      A                      A
 Frequencies --   1448.6906              1472.3029              1502.5283
 Red. masses --      1.2470                 1.3838                 1.1526
 Frc consts  --      1.5419                 1.7673                 1.5332
 IR Inten    --      6.0075                 7.3684                 2.1352

                     70                     71                     72
                      A                      A                      A
 Frequencies --   1509.5226              1513.1935              1514.5738
 Red. masses --      1.0852                 1.0509                 1.0729
 Frc consts  --      1.4570                 1.4178                 1.4501
 IR Inten    --      5.1793                 7.5818                 1.4425

                     73                     74                     75
                      A                      A                      A
 Frequencies --   1525.2906              1528.4133              1529.7722
 Red. masses --      1.0714                 1.0891                 1.0679
 Frc consts  --      1.4687                 1.4990                 1.4724
 IR Inten    --      8.8385                15.4241                10.7504

                     76                     77                     78
                      A                      A                      A
 Frequencies --   1535.7273              1543.3571              1550.9420
 Red. masses --      1.0865                 1.0544                 1.0924
 Frc consts  --      1.5098                 1.4798                 1.5483
 IR Inten    --      2.7772                 6.1694                 2.4252

                     79                     80                     81
                      A                      A                      A
 Frequencies --   1781.8851              1847.3209              2988.9041
 Red. masses --      7.4118                11.4160                 1.0568
 Frc consts  --     13.8655                22.9535                 5.5626
 IR Inten    --    954.2772               200.6075                34.6966

                     82                     83                     84
                      A                      A                      A
 Frequencies --   2996.0409              3005.0251              3037.1645
 Red. masses --      1.0681                 1.0395                 1.0683
 Frc consts  --      5.6489                 5.5304                 5.8062
 IR Inten    --     44.5445                94.5727                20.4494

                     85                     86                     87
                      A                      A                      A
 Frequencies --   3038.7711              3047.0385              3052.6110
 Red. masses --      1.1023                 1.0390                 1.1057
 Frc consts  --      5.9973                 5.6833                 6.0709
 IR Inten    --     77.2705                28.8563                42.0634

                     88                     89                     90
                      A                      A                      A
 Frequencies --   3057.6149              3074.7140              3075.3581
 Red. masses --      1.0793                 1.0936                 1.0609
 Frc consts  --      5.9453                 6.0915                 5.9118
 IR Inten    --     45.9114                54.9504                23.0615

                     91                     92                     93
                      A                      A                      A
 Frequencies --   3079.0641              3097.3327              3109.9362
 Red. masses --      1.0643                 1.0961                 1.1022
 Frc consts  --      5.9451                 6.1953                 6.2806
 IR Inten    --     17.0022                23.7971                38.2745

                     94                     95                     96
                      A                      A                      A
 Frequencies --   3121.6927              3122.9820              3132.8201
 Red. masses --      1.1063                 1.1059                 1.1014
 Frc consts  --      6.3519                 6.3546                 6.3691
 IR Inten    --     33.0810                16.5694                14.8073

                     97                     98                     99
                      A                      A                      A
 Frequencies --   3137.3351              3539.4241              3650.0255
 Red. masses --      1.0985                 1.0768                 1.0795
 Frc consts  --      6.3707                 7.9480                 8.4732
 IR Inten    --     25.1454               144.1814                64.5733

 - Thermochemistry -
 -------------------
 Temperature   298.150 Kelvin.  Pressure   1.00000 Atm.
 Atom     1 has atomic number  6 and mass  12.00000

 Molecular mass:   225.14773 amu.
 Principal axes and moments of inertia in atomic units:
                           1         2         3
     Eigenvalues --  2089.383005097.142256378.27346
           X            0.99998  -0.00314  -0.00533
           Y            0.00302   0.99973  -0.02289
           Z            0.00540   0.02287   0.99972
 This molecule is an asymmetric top.
 Rotational symmetry number  1.
 Warning -- assumption of classical behavior for rotation
           may cause significant error
 Rotational temperatures (Kelvin)      0.04145     0.01699     0.01358
 Rotational constants (GHZ):           0.86377     0.35407     0.28295
 Zero-point vibrational energy     803035.7 (Joules/Mol)
                                  191.93014 (Kcal/Mol)
 Warning -- explicit consideration of  23 degrees of freedom as
           vibrations may cause significant error
 Vibrational temperatures:     47.40    63.05    87.17   110.64   133.76
          (Kelvin)            165.97   223.28   245.56   283.86   308.25
                              346.03   376.48   416.01   432.55   467.98
                              523.64   547.54   596.47   618.51   656.81
                              813.83   831.81   874.29   893.77   931.50
                              972.31  1045.26  1052.50  1099.25  1102.39
                             1170.93  1239.59  1254.79  1318.56  1321.13
                             1358.19  1395.36  1424.41  1446.98  1489.63
                             1503.06  1511.16  1570.84  1582.36  1603.12
                             1622.07  1635.00  1673.41  1676.72  1718.30
                             1730.45  1775.07  1797.29  1819.25  1831.81
                             1875.27  1892.15  1900.64  1931.38  1961.54
                             1964.77  2002.56  2005.64  2017.64  2034.82
                             2060.50  2084.34  2118.32  2161.80  2171.87
                             2177.15  2179.13  2194.55  2199.05  2201.00
                             2209.57  2220.55  2231.46  2563.74  2657.88
                             4300.37  4310.63  4323.56  4369.80  4372.11
                             4384.01  4392.03  4399.23  4423.83  4424.75
                             4430.09  4456.37  4474.50  4491.42  4493.27
                             4507.43  4513.93  5092.44  5251.57

 Zero-point correction=                           0.305860 (Hartree/Particle)
 Thermal correction to Energy=                    0.321774
 Thermal correction to Enthalpy=                  0.322719
 Thermal correction to Gibbs Free Energy=         0.261843
 Sum of electronic and zero-point Energies=           -745.084096
 Sum of electronic and thermal Energies=              -745.068182
 Sum of electronic and thermal Enthalpies=            -745.067238
 Sum of electronic and thermal Free Energies=         -745.128114

                     E (Thermal)             CV                S
                      KCal/Mol        Cal/Mol-Kelvin    Cal/Mol-Kelvin
 Total                  201.916             60.323            128.124
 Electronic               0.000              0.000              0.000
 Translational            0.889              2.981             42.137
 Rotational               0.889              2.981             32.585
 Vibrational            200.139             54.361             53.401
 Vibration     1          0.594              1.983              5.644
 Vibration     2          0.595              1.980              5.078
 Vibration     3          0.597              1.973              4.438
 Vibration     4          0.599              1.965              3.969
 Vibration     5          0.602              1.954              3.597
 Vibration     6          0.608              1.937              3.177
 Vibration     7          0.620              1.897              2.608
 Vibration     8          0.626              1.879              2.428
 Vibration     9          0.637              1.844              2.158
 Vibration    10          0.644              1.819              2.007
 Vibration    11          0.658              1.778              1.799
 Vibration    12          0.669              1.743              1.651
 Vibration    13          0.686              1.694              1.479
 Vibration    14          0.693              1.672              1.413
 Vibration    15          0.709              1.625              1.284
 Vibration    16          0.737              1.546              1.105
 Vibration    17          0.750              1.512              1.037
 Vibration    18          0.778              1.439              0.911
 Vibration    19          0.791              1.405              0.859
 Vibration    20          0.815              1.347              0.776
 Vibration    21          0.922              1.106              0.513
 Vibration    22          0.935              1.079              0.489
 Vibration    23          0.966              1.016              0.437

                           ! Non-Optimized Parameters !
 Normal termination of Gaussian 16 at Fri Dec 11 01:32:05 2020.

 ----------------------------------------------------------------------
 # B3LYP/6-311++G(d,p) empiricaldispersion=gd3bj scf=xqc pop=npa geom=c
 heck
 ----------------------------------------------------------------------

 ---------------------------------------
 CID_136306913_JID_6970_Energie_neutraal
 ---------------------------------------
 Structure from the checkpoint file:  "JID_6970.chk"
 Charge =  0 Multiplicity = 1

 SCF Done:  E(RB3LYP) =  -745.604996460     A.U. after   14 cycles
 Normal termination of Gaussian 16 at Fri Dec 11 01:36:43 2020.

 ----------------------------------------------------------------------
 # B3LYP/6-311++G(d,p) empiricaldispersion=gd3bj scf=xqc pop=npa geom=c
 heck
 ----------------------------------------------------------------------

 -------------------------------------
 CID_136306913_JID_6970_Energie_kation
 -------------------------------------
 Structure from the checkpoint file:  "JID_6970.chk"
 Charge =  1 Multiplicity = 2

 SCF Done:  E(UB3LYP) =  -745.304545705     A.U. after   25 cycles
 Normal termination of Gaussian 16 at Fri Dec 11 01:47:45 2020.
 Gaussian 16:  ES64L-G16RevA.03 25-Dec-2016

 ----------------------------------------------------------------------
 # B3LYP/6-311++G(d,p) empiricaldispersion=gd3bj scf=xqc pop=npa geom=c
 heck
 ----------------------------------------------------------------------

 ------------------------------------
 CID_136306913_JID_6970_Energie_anion
 ------------------------------------
 Structure from the checkpoint file:  "JID_6970.chk"
 Charge = -1 Multiplicity = 2

                         Standard orientation:
 ---------------------------------------------------------------------
 Center     Atomic      Atomic             Coordinates (Angstroms)
 Number     Number       Type             X           Y           Z
 ---------------------------------------------------------------------
      1          6           0       -4.180853    0.655630    0.017423
      2          6           0       -2.957674    1.175943    0.783220
      3          6           0       -2.006909    2.000944   -0.106899
      4          6           0       -1.213769    0.937415   -0.878442
      5          6           0       -0.997649   -0.220709    0.145240
      6          6           0       -2.048572    0.025693    1.268523
      7          6           0       -1.160835   -1.580813   -0.544656
      8          8           0       -2.180771   -2.038705   -1.024993
      9          7           0        0.081214   -2.163665   -0.528909
     10          6           0        1.050041   -1.382075    0.114214
     11          7           0        2.279290   -1.721539    0.148302
     12          6           0        3.190875   -0.864310    0.890510
     13          6           0        3.690881    0.336479    0.093253
     14          8           0        2.643717    1.295602   -0.028290
     15          6           0        2.991547    2.398160   -0.840232
     16          7           0        0.376981   -0.297337    0.658954
     17          1           0       -4.856447    0.120637    0.694547
     18          1           0       -3.892035   -0.049169   -0.768819
     19          1           0       -4.742615    1.480123   -0.437363
     20          1           0       -3.303672    1.774101    1.634743
     21          1           0       -2.534947    2.697872   -0.766720
     22          1           0       -1.328759    2.592330    0.523082
     23          1           0       -1.805799    0.565005   -1.720113
     24          1           0       -0.256919    1.290004   -1.275669
     25          1           0       -1.499294    0.313983    2.170124
     26          1           0       -2.613292   -0.882438    1.499347
     27          1           0        0.293593   -3.072611   -0.915264
     28          1           0        2.752470   -0.494793    1.832251
     29          1           0        4.069789   -1.462799    1.158475
     30          1           0        4.552904    0.797069    0.603406
     31          1           0        4.015734    0.009380   -0.906128
     32          1           0        3.851036    2.946777   -0.425498
     33          1           0        3.240453    2.080056   -1.863822
     34          1           0        2.125325    3.063961   -0.872660
     35          1           0        0.924011    0.558976    0.660983
 ---------------------------------------------------------------------

 SCF Done:  E(UB3LYP) =  -745.593456910     A.U. after   32 cycles

 The electronic state is 2-A.
 Alpha  occ. eigenvalues --  -19.04041 -19.02073 -14.27325 -14.23658 -14.19365
 Alpha  occ. eigenvalues --  -10.19911 -10.18626 -10.13790 -10.12547 -10.11396
 Alpha  occ. eigenvalues --  -10.10579 -10.08164 -10.08161 -10.07935 -10.07186
 Alpha  occ. eigenvalues --  -10.06277  -0.97515  -0.95120  -0.91959  -0.81412
 Alpha  occ. eigenvalues --   -0.81143  -0.74498  -0.67247  -0.64968  -0.63010
 Alpha  occ. eigenvalues --   -0.59379  -0.58065  -0.55211  -0.54695  -0.50174
 Alpha  occ. eigenvalues --   -0.48526  -0.46404  -0.43177  -0.41504  -0.40248
 Alpha  occ. eigenvalues --   -0.40104  -0.39952  -0.37332  -0.36847  -0.36489
 Alpha  occ. eigenvalues --   -0.35465  -0.35060  -0.33793  -0.31602  -0.30606
 Alpha  occ. eigenvalues --   -0.30528  -0.30237  -0.29031  -0.27500  -0.27001
 Alpha  occ. eigenvalues --   -0.26676  -0.26102  -0.24234  -0.24061  -0.23292
 Alpha  occ. eigenvalues --   -0.22921  -0.18962  -0.18868  -0.17649  -0.17024
 Alpha  occ. eigenvalues --   -0.14272   0.04200
 Alpha virt. eigenvalues --    0.06090   0.07167   0.07466   0.07766   0.08227
 Alpha virt. eigenvalues --    0.08489   0.09034   0.09355   0.10166   0.10670
 Alpha virt. eigenvalues --    0.10809   0.11225   0.11853   0.12660   0.12886

  Beta  occ. eigenvalues --  -19.04030 -19.02068 -14.27323 -14.23649 -14.19366
  Beta  occ. eigenvalues --  -10.19907 -10.18617 -10.13791 -10.12521 -10.11333
  Beta  occ. eigenvalues --  -10.10570 -10.08150 -10.08146 -10.07927 -10.07157
  Beta  occ. eigenvalues --  -10.06263  -0.97506  -0.95101  -0.91948  -0.81404
  Beta  occ. eigenvalues --   -0.81134  -0.74473  -0.67216  -0.64939  -0.62979
  Beta  occ. eigenvalues --   -0.59326  -0.58016  -0.55180  -0.54634  -0.50129
  Beta  occ. eigenvalues --   -0.48493  -0.46365  -0.43156  -0.41482  -0.40221
  Beta  occ. eigenvalues --   -0.40057  -0.39887  -0.37307  -0.36815  -0.36461
  Beta  occ. eigenvalues --   -0.35434  -0.35040  -0.33771  -0.31578  -0.30578
  Beta  occ. eigenvalues --   -0.30506  -0.30201  -0.28995  -0.27473  -0.26961
  Beta  occ. eigenvalues --   -0.26653  -0.26073  -0.24208  -0.23994  -0.23252
  Beta  occ. eigenvalues --   -0.22888  -0.18943  -0.18861  -0.17620  -0.17016
  Beta  occ. eigenvalues --   -0.14258
  Beta virt. eigenvalues --    0.06391   0.06892   0.07567   0.07916   0.07939
  Beta virt. eigenvalues --    0.08562   0.09007   0.09376   0.09930   0.10601
  Beta virt. eigenvalues --    0.10891   0.11223   0.11505   0.12134   0.12839

 Mulliken charges and spin densities:
               1          2
     1  C    0.350446  -1.104444
     2  C   -0.512451   0.814879
     3  C    0.625477  -1.053827
     4  C   -0.512987   0.169433
     5  C    0.279118  -0.526506
     6  C   -0.179811  -0.122871
     7  C    0.013973  -0.091666
     8  O   -0.327443   0.009691
     9  N   -0.258609  -0.047196
    10  C    0.147679  -0.186429
    11  N   -0.160402   0.059624
    12  C   -0.291949  -0.161109
    13  C    0.296760  -0.406951
    14  O   -0.323218   0.105371
    15  C    1.137683  -1.413618
    16  N    0.065054   0.030897
    17  H    0.032066   0.093671
    18  H    0.129208   0.061371
    19  H    0.032090   0.089491
    20  H   -0.573762   0.806094
    21  H   -0.438297   0.631171
    22  H   -0.068103   0.212559
    23  H    0.031527   0.156652
    24  H    0.269348  -0.053595
    25  H   -0.001522   0.162152
    26  H    0.094478   0.115444
    27  H    0.285057   0.058120
    28  H    0.080680   0.080208
    29  H   -0.098095   0.277755
    30  H   -0.275167   0.416834
    31  H    0.101481   0.051381
    32  H   -0.514306   0.654290
    33  H   -0.374199   0.513662
    34  H   -0.547740   0.693937
    35  H    0.485937  -0.096475
 Sum of Mulliken charges =  -1.00000   1.00000

 Dipole moment (field-independent basis, Debye):
    X=             -2.1812    Y=             -6.7780    Z=              0.4533  Tot=              7.1347
 Quadrupole moment (field-independent basis, Debye-Ang):
   XX=           -181.8101   YY=           -156.4336   ZZ=           -131.0912
   XY=             -9.7027   XZ=              2.8030   YZ=             -0.1068

 Summary of Natural Population Analysis:

                                       Natural Population
                Natural  -----------------------------------------------
    Atom  No    Charge         Core      Valence    Rydberg      Total
 -----------------------------------------------------------------------
      C    1   -0.29002      0.99965     2.28356    0.00682     3.29002
      C    2   -0.11382      0.99961     2.10296    0.01125     3.11382
      C    3   -0.18966      0.99962     2.18015    0.00989     3.18966
      C    4   -0.19378      0.99960     2.18466    0.00953     3.19378
      C    5    0.02726      0.99953     1.95906    0.01414     2.97274
      C    6   -0.18789      0.99958     2.17765    0.01066     3.18789
      C    7    0.35221      0.99960     1.62427    0.02392     2.64779
      O    8   -0.31165      0.99987     3.30630    0.00548     4.31165
      N    9   -0.31035      0.99962     2.80291    0.00782     3.81035
      C   10    0.31407      0.99960     1.66970    0.01663     2.68593
      N   11   -0.29421      0.99964     2.78382    0.01075     3.79421
      C   12   -0.10967      0.99960     2.09685    0.01322     3.10967
      C   13   -0.01008      0.99958     1.99875    0.01176     3.01008
      O   14   -0.31273      0.99988     3.30162    0.01123     4.31273
      C   15   -0.09514      0.99962     2.08626    0.00926     3.09514
      N   16   -0.33645      0.99965     2.82761    0.00920     3.83645
      H   17    0.09762      0.00000     0.40164    0.00074     0.40238
      H   18    0.10613      0.00000     0.39280    0.00107     0.39387
      H   19    0.09719      0.00000     0.40202    0.00080     0.40281
      H   20    0.10051      0.00000     0.39792    0.00157     0.39949
      H   21    0.10328      0.00000     0.39551    0.00120     0.39672
      H   22    0.10074      0.00000     0.39721    0.00205     0.39926
      H   23    0.10506      0.00000     0.39344    0.00150     0.39494
      H   24    0.10915      0.00000     0.38942    0.00143     0.39085
      H   25    0.10887      0.00000     0.38988    0.00125     0.39113
      H   26    0.10517      0.00000     0.39367    0.00116     0.39483
      H   27    0.20528      0.00000     0.29233    0.00239     0.29472
      H   28    0.09040      0.00000     0.40802    0.00158     0.40960
      H   29    0.09589      0.00000     0.40272    0.00139     0.40411
      H   30    0.08348      0.00000     0.41450    0.00203     0.41652
      H   31    0.08296      0.00000     0.41553    0.00151     0.41704
      H   32    0.08292      0.00000     0.41396    0.00313     0.41708
      H   33    0.08020      0.00000     0.41787    0.00193     0.41980
      H   34    0.09466      0.00000     0.40303    0.00231     0.40534
      H   35    0.21240      0.00000     0.28361    0.00399     0.28760
 =======================================================================
   * Total *   -0.00000     15.99423    44.79120    0.21457    61.00000

 Normal termination of Gaussian 16 at Fri Dec 11 02:01:55 2020.
