 Gaussian 16, Revision A.03,

 -----------------------------------------------------------
 # opt freq B3LYP/6-31G(d) empiricaldispersion=gd3bj scf=xqc
 -----------------------------------------------------------

 ---------------------------
 CID_26392_JID_1950_neutraal
 ---------------------------
 Symbolic Z-matrix:
 Charge =  0 Multiplicity = 1

 SCF Done:  E(RB3LYP) =  -515.511529764     A.U. after   15 cycles
 SCF Done:  E(RB3LYP) =  -515.513337247     A.U. after   12 cycles
 SCF Done:  E(RB3LYP) =  -515.513360071     A.U. after   13 cycles
 SCF Done:  E(RB3LYP) =  -515.513939295     A.U. after   12 cycles
 SCF Done:  E(RB3LYP) =  -515.514267722     A.U. after   12 cycles
 SCF Done:  E(RB3LYP) =  -515.514582390     A.U. after   13 cycles
 SCF Done:  E(RB3LYP) =  -515.514651708     A.U. after   11 cycles
 SCF Done:  E(RB3LYP) =  -515.514673262     A.U. after   11 cycles
 SCF Done:  E(RB3LYP) =  -515.514676293     A.U. after    9 cycles
 SCF Done:  E(RB3LYP) =  -515.514676788     A.U. after    9 cycles
 SCF Done:  E(RB3LYP) =  -515.514676860     A.U. after    8 cycles
 Optimization completed.
    -- Stationary point found.
 Normal termination of Gaussian 16 at Tue Dec  8 21:38:14 2020.

 --------------------------------------------------------------------
 #N Geom=AllCheck Guess=TCheck SCRF=Check GenChk RB3LYP/6-31G(d) Freq
 --------------------------------------------------------------------

 Structure from the checkpoint file:  "JID_1950.chk"
 ---------------------------
 CID_26392_JID_1950_neutraal
 ---------------------------
 Charge =  0 Multiplicity = 1

 SCF Done:  E(RB3LYP) =  -515.514676860     A.U. after    1 cycles

  Exact polarizability: 122.670  -1.207 107.078  -1.119   1.516  47.570
 Approx polarizability: 177.830   4.296 187.369   0.569   6.605  74.407

                      1                      2                      3
                      A                      A                      A
 Frequencies --     55.8228                93.7615               173.8971
 Red. masses --      6.1781                 4.3985                 1.0780
 Frc consts  --      0.0113                 0.0228                 0.0192
 IR Inten    --      5.0557                 2.6315                 5.0607

                      4                      5                      6
                      A                      A                      A
 Frequencies --    182.7726               191.6699               261.3297
 Red. masses --      5.2451                 3.0825                 3.9862
 Frc consts  --      0.1032                 0.0667                 0.1604
 IR Inten    --      2.2167                 2.1353                 5.9988

                      7                      8                      9
                      A                      A                      A
 Frequencies --    321.2437               325.6147               345.2913
 Red. masses --      1.5822                 1.8036                 4.6258
 Frc consts  --      0.0962                 0.1127                 0.3249
 IR Inten    --     53.1066                40.0724                 0.2451

                     10                     11                     12
                      A                      A                      A
 Frequencies --    396.3315               420.8753               459.4470
 Red. masses --      4.6097                 1.2491                 3.4887
 Frc consts  --      0.4266                 0.1304                 0.4339
 IR Inten    --      8.7002               190.0255                 4.6608

                     13                     14                     15
                      A                      A                      A
 Frequencies --    524.3021               558.1247               560.7689
 Red. masses --      3.3566                 3.3275                 3.4217
 Frc consts  --      0.5436                 0.6107                 0.6339
 IR Inten    --      2.7779                 6.7789                 2.2258

                     16                     17                     18
                      A                      A                      A
 Frequencies --    575.7024               620.4974               677.2867
 Red. masses --      1.5073                 5.4992                 3.8022
 Frc consts  --      0.2943                 1.2475                 1.0276
 IR Inten    --     35.1672                23.9997                14.5090

                     19                     20                     21
                      A                      A                      A
 Frequencies --    732.1200               772.1005               811.6861
 Red. masses --      6.0860                 1.6679                 2.7865
 Frc consts  --      1.9220                 0.5858                 1.0816
 IR Inten    --      3.8525                46.8393                 3.0054

                     22                     23                     24
                      A                      A                      A
 Frequencies --    853.0204               898.0017               929.1457
 Red. masses --      5.3442                 3.5655                 1.3411
 Frc consts  --      2.2912                 1.6940                 0.6822
 IR Inten    --     13.2550                13.7856                 0.3838

                     25                     26                     27
                      A                      A                      A
 Frequencies --    966.8872              1025.4073              1071.9542
 Red. masses --      1.2626                 1.6201                 1.4678
 Frc consts  --      0.6955                 1.0037                 0.9938
 IR Inten    --      1.4645                 1.5258                 1.6775

                     28                     29                     30
                      A                      A                      A
 Frequencies --   1107.0429              1125.9729              1184.1994
 Red. masses --      1.8254                 1.8935                 1.8414
 Frc consts  --      1.3181                 1.4144                 1.5214
 IR Inten    --     11.0100                18.6468                20.5151

                     31                     32                     33
                      A                      A                      A
 Frequencies --   1203.2262              1253.0517              1309.6931
 Red. masses --      1.3123                 2.8492                 3.0665
 Frc consts  --      1.1194                 2.6358                 3.0991
 IR Inten    --     19.7359                71.0360                32.9908

                     34                     35                     36
                      A                      A                      A
 Frequencies --   1314.7606              1362.9764              1391.6315
 Red. masses --      1.7843                 3.4552                 2.9396
 Frc consts  --      1.8173                 3.7818                 3.3542
 IR Inten    --     63.5019               189.5878                53.7904

                     37                     38                     39
                      A                      A                      A
 Frequencies --   1442.5976              1497.2606              1516.4230
 Red. masses --      1.2995                 2.6296                 1.9942
 Frc consts  --      1.5933                 3.4732                 2.7019
 IR Inten    --      8.0866                76.7359                13.5805

                     40                     41                     42
                      A                      A                      A
 Frequencies --   1521.0049              1544.5487              1639.6335
 Red. masses --      1.0431                 1.3904                 1.2272
 Frc consts  --      1.4218                 1.9543                 1.9438
 IR Inten    --      7.3094                 7.1423               118.9038

                     43                     44                     45
                      A                      A                      A
 Frequencies --   1652.7926              1667.2534              1802.5892
 Red. masses --      5.4854                 6.1810                 9.3021
 Frc consts  --      8.8287                10.1230                17.8084
 IR Inten    --     24.4336                34.4027               289.9299

                     46                     47                     48
                      A                      A                      A
 Frequencies --   3020.0143              3063.9245              3134.5766
 Red. masses --      1.0419                 1.1011                 1.0951
 Frc consts  --      5.5988                 6.0900                 6.3398
 IR Inten    --     30.4938                22.3586                10.2843

                     49                     50                     51
                      A                      A                      A
 Frequencies --   3182.1590              3200.2122              3215.5976
 Red. masses --      1.0878                 1.0889                 1.0961
 Frc consts  --      6.4902                 6.5707                 6.6776
 IR Inten    --     10.1372                10.1638                17.2530

                     52                     53                     54
                      A                      A                      A
 Frequencies --   3571.9438              3695.0739              3766.7243
 Red. masses --      1.0457                 1.1029                 1.0653
 Frc consts  --      7.8607                 8.8718                 8.9053
 IR Inten    --     31.0878                21.3484                48.9759

 - Thermochemistry -
 -------------------
 Temperature   298.150 Kelvin.  Pressure   1.00000 Atm.
 Atom     1 has atomic number  6 and mass  12.00000

 Molecular mass:   151.06333 amu.
 Principal axes and moments of inertia in atomic units:
                           1         2         3
     Eigenvalues --   950.103941998.019352801.67467
           X            0.99909  -0.04181  -0.00877
           Y            0.04177   0.99912  -0.00475
           Z            0.00896   0.00438   0.99995
 This molecule is an asymmetric top.
 Rotational symmetry number  1.
 Warning -- assumption of classical behavior for rotation
           may cause significant error
 Rotational temperatures (Kelvin)      0.09116     0.04335     0.03092
 Rotational constants (GHZ):           1.89952     0.90327     0.64417
 Zero-point vibrational energy     419841.1 (Joules/Mol)
                                  100.34443 (Kcal/Mol)
 Warning -- explicit consideration of  17 degrees of freedom as
           vibrations may cause significant error
 Vibrational temperatures:     80.32   134.90   250.20   262.97   275.77
          (Kelvin)            376.00   462.20   468.49   496.80   570.23
                              605.55   661.04   754.35   803.02   806.82
                              828.31   892.76   974.46  1053.36  1110.88
                             1167.84  1227.31  1292.02  1336.83  1391.13
                             1475.33  1542.30  1592.79  1620.02  1703.80
                             1731.17  1802.86  1884.36  1891.65  1961.02
                             2002.25  2075.58  2154.22  2181.79  2188.39
                             2222.26  2359.07  2378.00  2398.81  2593.52
                             4345.13  4408.30  4509.96  4578.42  4604.39
                             4626.53  5139.23  5316.39  5419.48

 Zero-point correction=                           0.159909 (Hartree/Particle)
 Thermal correction to Energy=                    0.170273
 Thermal correction to Enthalpy=                  0.171217
 Thermal correction to Gibbs Free Energy=         0.124255
 Sum of electronic and zero-point Energies=           -515.354768
 Sum of electronic and thermal Energies=              -515.344404
 Sum of electronic and thermal Enthalpies=            -515.343460
 Sum of electronic and thermal Free Energies=         -515.390421

                     E (Thermal)             CV                S
                      KCal/Mol        Cal/Mol-Kelvin    Cal/Mol-Kelvin
 Total                  106.848             39.552             98.838
 Electronic               0.000              0.000              0.000
 Translational            0.889              2.981             40.948
 Rotational               0.889              2.981             30.054
 Vibrational            105.070             33.591             27.837
 Vibration     1          0.596              1.975              4.600
 Vibration     2          0.603              1.954              3.580
 Vibration     3          0.627              1.875              2.393
 Vibration     4          0.630              1.863              2.300
 Vibration     5          0.634              1.851              2.212
 Vibration     6          0.669              1.744              1.653
 Vibration     7          0.707              1.633              1.304
 Vibration     8          0.710              1.624              1.282
 Vibration     9          0.724              1.585              1.188
 Vibration    10          0.763              1.478              0.976
 Vibration    11          0.783              1.425              0.889
 Vibration    12          0.817              1.340              0.768
 Vibration    13          0.879              1.196              0.600
 Vibration    14          0.914              1.122              0.528
 Vibration    15          0.916              1.116              0.522
 Vibration    16          0.932              1.084              0.493
 Vibration    17          0.981              0.989              0.416

 Optimization completed.
    -- Stationary point found.
 Normal termination of Gaussian 16 at Tue Dec  8 21:41:54 2020.

 ----------------------------------------------------------------------
 # B3LYP/6-311++G(d,p) empiricaldispersion=gd3bj scf=xqc pop=npa geom=c
 heck
 ----------------------------------------------------------------------

 -----------------------------------
 CID_26392_JID_1950_Energie_neutraal
 -----------------------------------
 Structure from the checkpoint file:  "JID_1950.chk"
 Charge =  0 Multiplicity = 1

 SCF Done:  E(RB3LYP) =  -515.674680323     A.U. after   15 cycles
 Normal termination of Gaussian 16 at Tue Dec  8 21:43:39 2020.

 ----------------------------------------------------------------------
 # B3LYP/6-311++G(d,p) empiricaldispersion=gd3bj scf=xqc pop=npa geom=c
 heck
 ----------------------------------------------------------------------

 ---------------------------------
 CID_26392_JID_1950_Energie_kation
 ---------------------------------
 Structure from the checkpoint file:  "JID_1950.chk"
 Charge =  1 Multiplicity = 2

 SCF Done:  E(UB3LYP) =  -515.366986203     A.U. after   24 cycles
 Normal termination of Gaussian 16 at Tue Dec  8 21:47:37 2020.
 Gaussian 16:  ES64L-G16RevA.03 25-Dec-2016

 ----------------------------------------------------------------------
 # B3LYP/6-311++G(d,p) empiricaldispersion=gd3bj scf=xqc pop=npa geom=c
 heck
 ----------------------------------------------------------------------

 --------------------------------
 CID_26392_JID_1950_Energie_anion
 --------------------------------
 Structure from the checkpoint file:  "JID_1950.chk"
 Charge = -1 Multiplicity = 2

                         Standard orientation:
 ---------------------------------------------------------------------
 Center     Atomic      Atomic             Coordinates (Angstroms)
 Number     Number       Type             X           Y           Z
 ---------------------------------------------------------------------
      1          6           0        2.950891   -1.077470    0.145630
      2          6           0        1.791001   -0.118243    0.031816
      3          6           0        0.470766   -0.607563    0.043486
      4          6           0       -0.621831    0.272655   -0.051603
      5          6           0       -0.375956    1.647614   -0.154668
      6          6           0        0.923133    2.146034   -0.175207
      7          6           0        1.993922    1.258196   -0.082019
      8          6           0       -2.030963   -0.246834   -0.097027
      9          8           0       -2.379239   -1.213417   -0.755182
     10          7           0       -2.932259    0.514008    0.620931
     11          8           0        0.210042   -1.935947    0.185888
     12          1           0        2.931022   -1.641486    1.089364
     13          1           0        2.965882   -1.807325   -0.676434
     14          1           0        3.902336   -0.540335    0.113957
     15          1           0       -1.221841    2.321609   -0.249076
     16          1           0        1.101405    3.212484   -0.270315
     17          1           0        3.013667    1.634995   -0.096440
     18          1           0       -2.604693    1.067922    1.399613
     19          1           0       -3.861922    0.122613    0.700197
     20          1           0        1.047748   -2.419953    0.234518
 ---------------------------------------------------------------------

 SCF Done:  E(UB3LYP) =  -515.663230738     A.U. after   33 cycles
 SCF Done:  E(UB3LYP) =  -515.663230739     a.u. after    1 cycles

 The electronic state is 2-A.
 Alpha  occ. eigenvalues --  -19.04696 -18.98062 -14.22510 -10.16839 -10.13312
 Alpha  occ. eigenvalues --  -10.07814 -10.07506 -10.07271 -10.06952 -10.06841
 Alpha  occ. eigenvalues --  -10.06551  -0.96161  -0.93009  -0.79918  -0.75264
 Alpha  occ. eigenvalues --   -0.67764  -0.64483  -0.59135  -0.53729  -0.50649
 Alpha  occ. eigenvalues --   -0.47190  -0.44181  -0.43276  -0.38558  -0.37787
 Alpha  occ. eigenvalues --   -0.34867  -0.33282  -0.32302  -0.31020  -0.30456
 Alpha  occ. eigenvalues --   -0.29144  -0.28780  -0.28105  -0.25576  -0.24472
 Alpha  occ. eigenvalues --   -0.23508  -0.17317  -0.15460  -0.14522  -0.12252
 Alpha  occ. eigenvalues --    0.04487
 Alpha virt. eigenvalues --    0.06241   0.06778   0.07480   0.08902   0.09796
 Alpha virt. eigenvalues --    0.10098   0.10229   0.11032   0.12016   0.13161
 Alpha virt. eigenvalues --    0.13922   0.14609   0.15650   0.16033   0.16772

  Beta  occ. eigenvalues --  -19.04671 -18.98027 -14.22467 -10.16816 -10.13290
  Beta  occ. eigenvalues --  -10.07810 -10.07480 -10.07232 -10.06884 -10.06773
  Beta  occ. eigenvalues --  -10.06553  -0.96107  -0.92947  -0.79831  -0.75189
  Beta  occ. eigenvalues --   -0.67683  -0.64397  -0.59018  -0.53595  -0.50586
  Beta  occ. eigenvalues --   -0.47106  -0.44112  -0.43222  -0.38483  -0.37721
  Beta  occ. eigenvalues --   -0.34794  -0.33195  -0.32230  -0.30941  -0.30351
  Beta  occ. eigenvalues --   -0.29083  -0.28726  -0.28017  -0.25525  -0.24415
  Beta  occ. eigenvalues --   -0.23371  -0.17221  -0.15327  -0.14323  -0.12127
  Beta virt. eigenvalues --    0.06878   0.07232   0.07554   0.08086   0.09735
  Beta virt. eigenvalues --    0.09922   0.10694   0.10886   0.11755   0.12488
  Beta virt. eigenvalues --    0.13689   0.14156   0.14914   0.15909   0.15955

 Mulliken charges and spin densities:
               1          2
     1  C    4.639821  -5.212928
     2  C   -2.743082   3.622841
     3  C   -2.587788   1.971245
     4  C    1.363653  -0.718047
     5  C    0.496899  -1.074504
     6  C   -0.039699  -0.458731
     7  C    1.538978  -1.774959
     8  C   -0.558189   0.642560
     9  O   -0.328193   0.004809
    10  N   -0.250429  -0.107068
    11  O   -0.218555   0.022257
    12  H   -0.426428   0.593824
    13  H   -0.235087   0.387493
    14  H   -0.868076   1.052184
    15  H   -0.098313   0.272427
    16  H   -0.324127   0.476600
    17  H   -0.236309   0.355152
    18  H   -0.069475   0.301100
    19  H   -0.061643   0.355509
    20  H    0.006042   0.288235
 Sum of Mulliken charges =  -1.00000   1.00000

 Dipole moment (field-independent basis, Debye):
    X=             -2.8943    Y=              2.0224    Z=             -0.5005  Tot=              3.5662
 Quadrupole moment (field-independent basis, Debye-Ang):
   XX=           -130.7084   YY=           -101.0161   ZZ=            -89.6464
   XY=              3.4274   XZ=             -6.6379   YZ=             -0.6046

 Summary of Natural Population Analysis:

                                       Natural Population
                Natural  -----------------------------------------------
    Atom  No    Charge         Core      Valence    Rydberg      Total
 -----------------------------------------------------------------------
      C    1   -0.30492      0.99964     2.29780    0.00748     3.30492
      C    2   -0.05045      0.99949     2.04034    0.01061     3.05045
      C    3    0.18017      0.99932     1.80660    0.01392     2.81983
      C    4   -0.08946      0.99943     2.07831    0.01173     3.08946
      C    5   -0.08550      0.99954     2.07539    0.01057     3.08550
      C    6   -0.11831      0.99956     2.10881    0.00994     3.11831
      C    7   -0.07657      0.99952     2.06706    0.00998     3.07657
      C    8    0.33962      0.99966     1.63712    0.02360     2.66038
      O    9   -0.30533      0.99988     3.29953    0.00592     4.30533
      N   10   -0.40739      0.99972     2.89956    0.00811     3.90739
      O   11   -0.33040      0.99987     3.32386    0.00667     4.33040
      H   12    0.10677      0.00000     0.38981    0.00341     0.39323
      H   13    0.10270      0.00000     0.39575    0.00155     0.39730
      H   14    0.11242      0.00000     0.38499    0.00259     0.38758
      H   15    0.10303      0.00000     0.39568    0.00129     0.39697
      H   16    0.09965      0.00000     0.39937    0.00099     0.40035
      H   17    0.09982      0.00000     0.39905    0.00113     0.40018
      H   18    0.19342      0.00000     0.30398    0.00260     0.30658
      H   19    0.19206      0.00000     0.30557    0.00236     0.30794
      H   20    0.23867      0.00000     0.25808    0.00325     0.26133
 =======================================================================
   * Total *   -0.00000     10.99563    28.86665    0.13772    40.00000

 Normal termination of Gaussian 16 at Tue Dec  8 21:53:19 2020.
