 Gaussian 16, Revision A.03,

 -----------------------------------------------------------
 # opt freq B3LYP/6-31G(d) empiricaldispersion=gd3bj scf=xqc
 -----------------------------------------------------------

 ------------------------------
 CID_81723456_JID_7508_neutraal
 ------------------------------
 Symbolic Z-matrix:
 Charge =  0 Multiplicity = 1

 SCF Done:  E(RB3LYP) =  -819.328639786     A.U. after   14 cycles
 SCF Done:  E(RB3LYP) =  -819.335700246     A.U. after   13 cycles
 SCF Done:  E(RB3LYP) =  -819.333593480     A.U. after   13 cycles
 SCF Done:  E(RB3LYP) =  -819.337331928     A.U. after   12 cycles
 SCF Done:  E(RB3LYP) =  -819.338079050     A.U. after   13 cycles
 SCF Done:  E(RB3LYP) =  -819.338216300     A.U. after   11 cycles
 SCF Done:  E(RB3LYP) =  -819.338312352     A.U. after   11 cycles
 SCF Done:  E(RB3LYP) =  -819.338382185     A.U. after   11 cycles
 SCF Done:  E(RB3LYP) =  -819.338553467     A.U. after   12 cycles
 SCF Done:  E(RB3LYP) =  -819.338600111     A.U. after   12 cycles
 SCF Done:  E(RB3LYP) =  -819.340167834     A.U. after   11 cycles
 SCF Done:  E(RB3LYP) =  -819.340175849     A.U. after   10 cycles
 SCF Done:  E(RB3LYP) =  -819.340175107     A.U. after    8 cycles
 SCF Done:  E(RB3LYP) =  -819.340175999     A.U. after    8 cycles
 SCF Done:  E(RB3LYP) =  -819.340176054     A.U. after    7 cycles
 Optimization completed.
    -- Stationary point found.
 Normal termination of Gaussian 16 at Sun Dec 13 13:15:15 2020.

 --------------------------------------------------------------------
 #N Geom=AllCheck Guess=TCheck SCRF=Check GenChk RB3LYP/6-31G(d) Freq
 --------------------------------------------------------------------

 Structure from the checkpoint file:  "JID_7508.chk"
 ------------------------------
 CID_81723456_JID_7508_neutraal
 ------------------------------
 Charge =  0 Multiplicity = 1

 SCF Done:  E(RB3LYP) =  -819.340176054     A.U. after    1 cycles

  Exact polarizability: 140.562 -14.351 142.278  -2.580  -2.552 114.496
 Approx polarizability: 193.636 -19.001 198.630 -14.336  -9.816 190.878

                      1                      2                      3
                      A                      A                      A
 Frequencies --     37.4368                59.4159                66.2549
 Red. masses --      4.2606                 4.1197                 3.9802
 Frc consts  --      0.0035                 0.0086                 0.0103
 IR Inten    --      0.1553                 1.0746                 1.0247

                      4                      5                      6
                      A                      A                      A
 Frequencies --     79.6080                86.1521               106.3515
 Red. masses --      1.5077                 1.9204                 3.7417
 Frc consts  --      0.0056                 0.0084                 0.0249
 IR Inten    --      2.6473                 1.3472                 0.4631

                      7                      8                      9
                      A                      A                      A
 Frequencies --    126.5428               188.9776               218.3367
 Red. masses --      3.9904                 4.0550                 3.5034
 Frc consts  --      0.0376                 0.0853                 0.0984
 IR Inten    --      1.3346                 1.9425                 3.1885

                     10                     11                     12
                      A                      A                      A
 Frequencies --    238.8429               265.9544               296.5996
 Red. masses --      2.5741                 2.1866                 4.0061
 Frc consts  --      0.0865                 0.0911                 0.2076
 IR Inten    --      3.8530                 2.5677                 0.9967

                     13                     14                     15
                      A                      A                      A
 Frequencies --    310.5643               352.9027               395.3408
 Red. masses --      3.4455                 3.4206                 2.7552
 Frc consts  --      0.1958                 0.2510                 0.2537
 IR Inten    --      0.3591                 1.5170                 1.8095

                     16                     17                     18
                      A                      A                      A
 Frequencies --    412.6784               419.7257               452.6154
 Red. masses --      2.4926                 4.9661                 2.2593
 Frc consts  --      0.2501                 0.5155                 0.2727
 IR Inten    --      3.7072                 2.7196                 1.6274

                     19                     20                     21
                      A                      A                      A
 Frequencies --    478.1105               503.2512               540.9112
 Red. masses --      2.5370                 3.0141                 2.7501
 Frc consts  --      0.3417                 0.4498                 0.4741
 IR Inten    --     12.1911                 5.1676                 4.3069

                     22                     23                     24
                      A                      A                      A
 Frequencies --    626.0562               657.3546               673.2231
 Red. masses --      5.2175                 2.3062                 4.7564
 Frc consts  --      1.2049                 0.5872                 1.2701
 IR Inten    --      9.1332                 2.4325                 4.0306

                     25                     26                     27
                      A                      A                      A
 Frequencies --    696.1184               726.5640               779.9548
 Red. masses --      3.3789                 5.3502                 4.2973
 Frc consts  --      0.9647                 1.6640                 1.5402
 IR Inten    --     12.1354                12.0396                 1.7400

                     28                     29                     30
                      A                      A                      A
 Frequencies --    802.5173               825.3224               873.6065
 Red. masses --      5.7485                 3.6003                 1.7421
 Frc consts  --      2.1813                 1.4449                 0.7833
 IR Inten    --     38.6152                 1.4092                 7.7279

                     31                     32                     33
                      A                      A                      A
 Frequencies --    887.1877               901.0182               905.9204
 Red. masses --      2.0192                 2.8821                 6.1758
 Frc consts  --      0.9364                 1.3785                 2.9862
 IR Inten    --     36.6350                 3.6091                 1.7261

                     34                     35                     36
                      A                      A                      A
 Frequencies --    914.9868               958.6090               961.2616
 Red. masses --      1.8445                 2.3815                 2.4341
 Frc consts  --      0.9098                 1.2894                 1.3252
 IR Inten    --      4.0867                 7.9155                17.4297

                     37                     38                     39
                      A                      A                      A
 Frequencies --    992.9565              1002.9911              1004.5893
 Red. masses --      2.6787                 2.3453                 1.9751
 Frc consts  --      1.5561                 1.3901                 1.1744
 IR Inten    --      6.4177                 6.8271                21.9705

                     40                     41                     42
                      A                      A                      A
 Frequencies --   1033.9641              1039.3445              1064.4339
 Red. masses --      2.2038                 4.8005                 3.3628
 Frc consts  --      1.3881                 3.0553                 2.2449
 IR Inten    --     10.0949                 4.2094                11.1076

                     43                     44                     45
                      A                      A                      A
 Frequencies --   1075.6051              1082.1486              1084.9532
 Red. masses --      4.0555                 1.6285                 4.7675
 Frc consts  --      2.7644                 1.1236                 3.3064
 IR Inten    --      1.9872                10.0737                18.4741

                     46                     47                     48
                      A                      A                      A
 Frequencies --   1108.0758              1137.9950              1153.5003
 Red. masses --      2.8311                 2.4186                 2.1868
 Frc consts  --      2.0481                 1.8454                 1.7144
 IR Inten    --     88.4339               135.6142                40.5824

                     49                     50                     51
                      A                      A                      A
 Frequencies --   1171.6453              1193.4707              1223.9193
 Red. masses --      1.9696                 2.0091                 1.4390
 Frc consts  --      1.5930                 1.6861                 1.2700
 IR Inten    --     55.5632                 9.3816                21.9490

                     52                     53                     54
                      A                      A                      A
 Frequencies --   1239.8055              1242.8989              1258.2758
 Red. masses --      1.6898                 1.2447                 1.2139
 Frc consts  --      1.5304                 1.1329                 1.1324
 IR Inten    --     21.3645                 4.5550                11.0640

                     55                     56                     57
                      A                      A                      A
 Frequencies --   1284.9033              1311.3486              1327.1720
 Red. masses --      1.8837                 4.3462                 1.3267
 Frc consts  --      1.8324                 4.4035                 1.3769
 IR Inten    --      8.3935                33.7540                23.4958

                     58                     59                     60
                      A                      A                      A
 Frequencies --   1359.2147              1370.9149              1381.4680
 Red. masses --      2.3789                 1.4390                 1.4618
 Frc consts  --      2.5894                 1.5934                 1.6437
 IR Inten    --     20.6527                21.7336                 1.8366

                     61                     62                     63
                      A                      A                      A
 Frequencies --   1385.0917              1393.2903              1399.2389
 Red. masses --      1.5598                 1.4113                 1.3538
 Frc consts  --      1.7631                 1.6142                 1.5617
 IR Inten    --      2.0722                17.1846                35.1586

                     64                     65                     66
                      A                      A                      A
 Frequencies --   1410.1827              1415.7780              1422.7891
 Red. masses --      1.4742                 1.4718                 1.6399
 Frc consts  --      1.7273                 1.7382                 1.9559
 IR Inten    --     10.4734                 1.7984                12.6781

                     67                     68                     69
                      A                      A                      A
 Frequencies --   1434.4750              1435.9628              1486.8224
 Red. masses --      1.5387                 1.3867                 1.0934
 Frc consts  --      1.8655                 1.6847                 1.4241
 IR Inten    --     20.6228                14.1865                 7.7234

                     70                     71                     72
                      A                      A                      A
 Frequencies --   1492.8427              1504.5397              1506.7627
 Red. masses --      1.0902                 1.0552                 1.1018
 Frc consts  --      1.4315                 1.4073                 1.4738
 IR Inten    --     10.4428                10.2461                 5.8298

                     73                     74                     75
                      A                      A                      A
 Frequencies --   1506.9376              1513.6907              1527.0398
 Red. masses --      1.0894                 1.0948                 1.0991
 Frc consts  --      1.4576                 1.4780                 1.5101
 IR Inten    --     18.6839                 4.5106                 9.6820

                     76                     77                     78
                      A                      A                      A
 Frequencies --   1545.8915              1554.6331              1561.5926
 Red. masses --      1.0913                 1.1045                 7.1701
 Frc consts  --      1.5365                 1.5728                10.3018
 IR Inten    --      1.2135                 1.2554                15.5696

                     79                     80                     81
                      A                      A                      A
 Frequencies --   1642.5327              2990.7139              3018.8591
 Red. masses --      7.7618                 1.0721                 1.0692
 Frc consts  --     12.3379                 5.6499                 5.7412
 IR Inten    --     78.2686                68.2001                47.3137

                     82                     83                     84
                      A                      A                      A
 Frequencies --   3029.4090              3049.2146              3051.5176
 Red. masses --      1.0692                 1.0651                 1.0649
 Frc consts  --      5.7815                 5.8344                 5.8426
 IR Inten    --     65.1478                31.8728                25.4269

                     85                     86                     87
                      A                      A                      A
 Frequencies --   3058.0154              3061.7513              3067.8337
 Red. masses --      1.0658                 1.0597                 1.0382
 Frc consts  --      5.8722                 5.8530                 5.7571
 IR Inten    --     57.2944                26.7095                 6.1072

                     88                     89                     90
                      A                      A                      A
 Frequencies --   3100.1214              3103.8592              3105.1607
 Red. masses --      1.0933                 1.0994                 1.0984
 Frc consts  --      6.1909                 6.2403                 6.2398
 IR Inten    --     20.5237                20.8053                42.0331

                     91                     92                     93
                      A                      A                      A
 Frequencies --   3109.9496              3113.4807              3124.8799
 Red. masses --      1.0994                 1.0993                 1.1019
 Frc consts  --      6.2651                 6.2788                 6.3398
 IR Inten    --     10.4286                33.4390                32.8758

                     94                     95                     96
                      A                      A                      A
 Frequencies --   3126.3335              3126.8262              3175.2558
 Red. masses --      1.0978                 1.1005                 1.1016
 Frc consts  --      6.3220                 6.3396                 6.5441
 IR Inten    --     19.8317                 9.1001                 3.1095

 - Thermochemistry -
 -------------------
 Temperature   298.150 Kelvin.  Pressure   1.00000 Atm.
 Atom     1 has atomic number  6 and mass  12.00000

 Molecular mass:   239.12699 amu.
 Principal axes and moments of inertia in atomic units:
                           1         2         3
     Eigenvalues --  2655.110313923.979635322.19407
           X            0.99777  -0.06613   0.00867
           Y            0.06615   0.99781  -0.00204
           Z           -0.00851   0.00260   0.99996
 This molecule is an asymmetric top.
 Rotational symmetry number  1.
 Warning -- assumption of classical behavior for rotation
           may cause significant error
 Rotational temperatures (Kelvin)      0.03262     0.02207     0.01627
 Rotational constants (GHZ):           0.67972     0.45993     0.33910
 Zero-point vibrational energy     756788.4 (Joules/Mol)
                                  180.87677 (Kcal/Mol)
 Warning -- explicit consideration of  21 degrees of freedom as
           vibrations may cause significant error
 Vibrational temperatures:     53.86    85.49    95.33   114.54   123.95
          (Kelvin)            153.02   182.07   271.90   314.14   343.64
                              382.65   426.74   446.83   507.75   568.81
                              593.75   603.89   651.21   687.89   724.07
                              778.25   900.76   945.79   968.62  1001.56
                             1045.36  1122.18  1154.64  1187.45  1256.92
                             1276.47  1296.36  1303.42  1316.46  1379.22
                             1383.04  1428.64  1443.08  1445.38  1487.64
                             1495.38  1531.48  1547.56  1556.97  1561.01
                             1594.27  1637.32  1659.63  1685.74  1717.14
                             1760.95  1783.80  1788.25  1810.38  1848.69
                             1886.74  1909.50  1955.61  1972.44  1987.62
                             1992.84  2004.63  2013.19  2028.94  2036.99
                             2047.08  2063.89  2066.03  2139.21  2147.87
                             2164.70  2167.90  2168.15  2177.86  2197.07
                             2224.19  2236.77  2246.78  2363.24  4302.97
                             4343.46  4358.64  4387.14  4390.45  4399.80
                             4405.18  4413.93  4460.38  4465.76  4467.63
                             4474.52  4479.60  4496.01  4498.10  4498.81
                             4568.48

 Zero-point correction=                           0.288245 (Hartree/Particle)
 Thermal correction to Energy=                    0.303404
 Thermal correction to Enthalpy=                  0.304349
 Thermal correction to Gibbs Free Energy=         0.245124
 Sum of electronic and zero-point Energies=           -819.051931
 Sum of electronic and thermal Energies=              -819.036772
 Sum of electronic and thermal Enthalpies=            -819.035828
 Sum of electronic and thermal Free Energies=         -819.095052

                     E (Thermal)             CV                S
                      KCal/Mol        Cal/Mol-Kelvin    Cal/Mol-Kelvin
 Total                  190.389             58.142            124.648
 Electronic               0.000              0.000              0.000
 Translational            0.889              2.981             42.317
 Rotational               0.889              2.981             32.383
 Vibrational            188.612             52.181             49.948
 Vibration     1          0.594              1.982              5.390
 Vibration     2          0.597              1.974              4.476
 Vibration     3          0.598              1.970              4.262
 Vibration     4          0.600              1.963              3.901
 Vibration     5          0.601              1.959              3.746
 Vibration     6          0.605              1.944              3.334
 Vibration     7          0.611              1.927              2.998
 Vibration     8          0.633              1.855              2.238
 Vibration     9          0.646              1.813              1.973
 Vibration    10          0.657              1.781              1.811
 Vibration    11          0.672              1.736              1.622
 Vibration    12          0.690              1.680              1.436
 Vibration    13          0.699              1.654              1.359
 Vibration    14          0.729              1.569              1.153
 Vibration    15          0.762              1.480              0.980
 Vibration    16          0.776              1.443              0.917
 Vibration    17          0.782              1.427              0.893
 Vibration    18          0.811              1.355              0.788
 Vibration    19          0.835              1.299              0.715
 Vibration    20          0.859              1.243              0.650
 Vibration    21          0.896              1.160              0.563

                           ! Non-Optimized Parameters !
 Normal termination of Gaussian 16 at Sun Dec 13 13:30:02 2020.

 ----------------------------------------------------------------------
 # B3LYP/6-311++G(d,p) empiricaldispersion=gd3bj scf=xqc pop=npa geom=c
 heck
 ----------------------------------------------------------------------

 --------------------------------------
 CID_81723456_JID_7508_Energie_neutraal
 --------------------------------------
 Structure from the checkpoint file:  "JID_7508.chk"
 Charge =  0 Multiplicity = 1

 SCF Done:  E(RB3LYP) =  -819.562704482     A.U. after   14 cycles
 Normal termination of Gaussian 16 at Sun Dec 13 13:36:39 2020.

 ----------------------------------------------------------------------
 # B3LYP/6-311++G(d,p) empiricaldispersion=gd3bj scf=xqc pop=npa geom=c
 heck
 ----------------------------------------------------------------------

 ------------------------------------
 CID_81723456_JID_7508_Energie_kation
 ------------------------------------
 Structure from the checkpoint file:  "JID_7508.chk"
 Charge =  1 Multiplicity = 2

 SCF Done:  E(UB3LYP) =  -819.288686894     A.U. after   21 cycles
 Normal termination of Gaussian 16 at Sun Dec 13 13:50:22 2020.
 Gaussian 16:  ES64L-G16RevA.03 25-Dec-2016

 ----------------------------------------------------------------------
 # B3LYP/6-311++G(d,p) empiricaldispersion=gd3bj scf=xqc pop=npa geom=c
 heck
 ----------------------------------------------------------------------

 -----------------------------------
 CID_81723456_JID_7508_Energie_anion
 -----------------------------------
 Structure from the checkpoint file:  "JID_7508.chk"
 Charge = -1 Multiplicity = 2

                         Standard orientation:
 ---------------------------------------------------------------------
 Center     Atomic      Atomic             Coordinates (Angstroms)
 Number     Number       Type             X           Y           Z
 ---------------------------------------------------------------------
      1          6           0       -3.696543    1.500528    0.205748
      2          6           0       -2.790875    0.332436    0.046911
      3          7           0       -2.021313    0.031998   -0.958899
      4          6           0       -1.403308   -1.127688   -0.528620
      5          7           0       -1.785639   -1.538623    0.653108
      6          8           0       -2.713770   -0.552493    1.055455
      7          6           0       -0.354692   -1.848242   -1.345328
      8          7           0        1.038869   -1.648319   -0.993592
      9          6           0        1.561834   -2.350009    0.176385
     10          6           0        1.548041   -1.521000    1.470260
     11          6           0        2.276924   -0.190101    1.244542
     12          6           0        1.663787    0.561454    0.070320
     13          6           0        1.612142   -0.326066   -1.190856
     14          8           0        2.431511    1.727779   -0.261601
     15          6           0        1.592424    2.872042   -0.136395
     16          6           0        0.185748    2.279081   -0.180647
     17          8           0        0.376106    1.025533    0.463132
     18          1           0       -4.713197    1.175915    0.449106
     19          1           0       -3.349041    2.145250    1.020636
     20          1           0       -3.710246    2.072496   -0.723097
     21          1           0       -0.558270   -2.922943   -1.295115
     22          1           0       -0.498104   -1.532719   -2.384462
     23          1           0        0.992386   -3.275677    0.304754
     24          1           0        2.602932   -2.637512   -0.044269
     25          1           0        0.515238   -1.333352    1.777768
     26          1           0        2.036337   -2.087161    2.273318
     27          1           0        3.333444   -0.371118    1.008715
     28          1           0        2.237192    0.453390    2.129349
     29          1           0        2.652222   -0.431916   -1.533577
     30          1           0        1.061194    0.195693   -1.979008
     31          1           0        1.805395    3.562263   -0.958636
     32          1           0        1.779558    3.382266    0.818795
     33          1           0       -0.178469    2.143098   -1.207255
     34          1           0       -0.555669    2.845465    0.388879
 ---------------------------------------------------------------------

 SCF Done:  E(UB3LYP) =  -819.550367639     A.U. after   33 cycles
 SCF Done:  E(UB3LYP) =  -819.550367639     a.u. after    1 cycles

 The electronic state is 2-A.
 Alpha  occ. eigenvalues --  -19.10330 -19.03037 -19.03018 -14.25059 -14.21191
 Alpha  occ. eigenvalues --  -14.20693 -10.17280 -10.16532 -10.12576 -10.11817
 Alpha  occ. eigenvalues --  -10.11436 -10.11354 -10.10211 -10.09775 -10.08110
 Alpha  occ. eigenvalues --  -10.07159 -10.06828  -1.05050  -0.99308  -0.89791
 Alpha  occ. eigenvalues --   -0.84149  -0.82268  -0.76668  -0.71045  -0.67120
 Alpha  occ. eigenvalues --   -0.64372  -0.63010  -0.60931  -0.54827  -0.53400
 Alpha  occ. eigenvalues --   -0.51973  -0.50522  -0.48664  -0.45399  -0.41840
 Alpha  occ. eigenvalues --   -0.40877  -0.40156  -0.39217  -0.38180  -0.37736
 Alpha  occ. eigenvalues --   -0.36824  -0.35356  -0.33202  -0.32879  -0.32020
 Alpha  occ. eigenvalues --   -0.31572  -0.31341  -0.30867  -0.30398  -0.29789
 Alpha  occ. eigenvalues --   -0.28849  -0.27810  -0.25465  -0.25335  -0.24784
 Alpha  occ. eigenvalues --   -0.24028  -0.23924  -0.23181  -0.21680  -0.19047
 Alpha  occ. eigenvalues --   -0.17881  -0.17383  -0.16797  -0.11061   0.04587
 Alpha virt. eigenvalues --    0.06546   0.07030   0.07498   0.07947   0.08815
 Alpha virt. eigenvalues --    0.09298   0.09614   0.09909   0.10831   0.11406
 Alpha virt. eigenvalues --    0.11635   0.12285   0.12513   0.12634   0.13082

  Beta  occ. eigenvalues --  -19.10250 -19.03036 -19.03018 -14.24958 -14.21185
  Beta  occ. eigenvalues --  -14.20703 -10.17279 -10.16439 -10.12542 -10.11789
  Beta  occ. eigenvalues --  -10.11407 -10.11351 -10.10204 -10.09763 -10.08064
  Beta  occ. eigenvalues --  -10.07153 -10.06826  -1.04915  -0.99301  -0.89785
  Beta  occ. eigenvalues --   -0.84115  -0.82218  -0.76509  -0.71026  -0.67099
  Beta  occ. eigenvalues --   -0.64285  -0.62936  -0.60895  -0.54786  -0.53347
  Beta  occ. eigenvalues --   -0.51937  -0.50452  -0.48567  -0.45361  -0.41796
  Beta  occ. eigenvalues --   -0.40849  -0.40056  -0.39059  -0.38127  -0.37609
  Beta  occ. eigenvalues --   -0.36750  -0.35324  -0.33148  -0.32829  -0.31966
  Beta  occ. eigenvalues --   -0.31441  -0.31294  -0.30815  -0.30353  -0.29756
  Beta  occ. eigenvalues --   -0.28797  -0.27776  -0.25441  -0.25317  -0.24751
  Beta  occ. eigenvalues --   -0.24013  -0.23888  -0.23072  -0.21483  -0.18996
  Beta  occ. eigenvalues --   -0.17587  -0.17323  -0.16647  -0.11026
  Beta virt. eigenvalues --    0.06500   0.07507   0.07741   0.08073   0.08340
  Beta virt. eigenvalues --    0.09061   0.09679   0.09767   0.10579   0.11090
  Beta virt. eigenvalues --    0.11647   0.11991   0.12542   0.12657   0.12867

 Mulliken charges and spin densities:
               1          2
     1  C    3.171267  -3.670206
     2  C   -1.993861   2.104172
     3  N    0.012578   0.042641
     4  C   -0.108571   0.225982
     5  N   -0.253763   0.083251
     6  O    0.229054   0.013168
     7  C   -0.957857  -0.056541
     8  N    0.151411   0.099758
     9  C   -0.044301  -0.221962
    10  C   -0.347381   0.144360
    11  C   -0.025283  -0.239365
    12  C   -1.715782   0.767903
    13  C    0.706513  -0.864060
    14  O   -0.053153   0.036638
    15  C    1.189022  -1.593855
    16  C    0.058655   0.036660
    17  O    0.092537   0.017806
    18  H   -0.202815   0.358788
    19  H   -0.538723   0.754576
    20  H   -0.286093   0.464172
    21  H   -0.026977   0.206398
    22  H    0.128895   0.046460
    23  H    0.059886   0.072187
    24  H    0.024832   0.113539
    25  H    0.213882   0.002410
    26  H    0.053310   0.120676
    27  H    0.143067   0.019557
    28  H    0.016289   0.160948
    29  H    0.118634   0.086059
    30  H    0.019134   0.175397
    31  H   -0.531416   0.691940
    32  H   -0.123709   0.282721
    33  H    0.222856  -0.057888
    34  H   -0.402137   0.575710
 Sum of Mulliken charges =  -1.00000   1.00000

 Dipole moment (field-independent basis, Debye):
    X=              3.8483    Y=             -6.7576    Z=             -0.9252  Tot=              7.8314
 Quadrupole moment (field-independent basis, Debye-Ang):
   XX=           -155.3098   YY=           -162.8427   ZZ=           -132.4542
   XY=              6.5599   XZ=              6.1093   YZ=             -1.4483

 Summary of Natural Population Analysis:

                                       Natural Population
                Natural  -----------------------------------------------
    Atom  No    Charge         Core      Valence    Rydberg      Total
 -----------------------------------------------------------------------
      C    1   -0.31650      0.99962     2.31078    0.00611     3.31650
      C    2    0.30208      0.99964     1.67858    0.01970     2.69792
      N    3   -0.27750      0.99967     2.76801    0.00982     3.77750
      C    4    0.17267      0.99963     1.80935    0.01835     2.82733
      N    5   -0.08686      0.99965     2.57453    0.01269     3.58686
      O    6   -0.16600      0.99985     3.15838    0.00777     4.16600
      C    7   -0.09773      0.99955     2.08624    0.01193     3.09773
      N    8   -0.27849      0.99973     2.76424    0.01453     3.77849
      C    9   -0.07873      0.99961     2.06966    0.00946     3.07873
      C   10   -0.20455      0.99962     2.19751    0.00741     3.20455
      C   11   -0.20420      0.99954     2.19528    0.00937     3.20420
      C   12    0.29498      0.99953     1.68307    0.02242     2.70502
      C   13   -0.10447      0.99952     2.09154    0.01341     3.10447
      O   14   -0.31140      0.99987     3.30262    0.00890     4.31140
      C   15   -0.01966      0.99958     2.00812    0.01196     3.01966
      C   16   -0.02893      0.99959     2.01584    0.01350     3.02893
      O   17   -0.30825      0.99987     3.29647    0.01190     4.30825
      H   18    0.11003      0.00000     0.38898    0.00099     0.38997
      H   19    0.12186      0.00000     0.37377    0.00437     0.37814
      H   20    0.11593      0.00000     0.38265    0.00142     0.38407
      H   21    0.10366      0.00000     0.39520    0.00114     0.39634
      H   22    0.10362      0.00000     0.39515    0.00123     0.39638
      H   23    0.09850      0.00000     0.40040    0.00110     0.40150
      H   24    0.08569      0.00000     0.41303    0.00128     0.41431
      H   25    0.11238      0.00000     0.38569    0.00193     0.38762
      H   26    0.09459      0.00000     0.40433    0.00108     0.40541
      H   27    0.09832      0.00000     0.40034    0.00134     0.40168
      H   28    0.10767      0.00000     0.39104    0.00129     0.39233
      H   29    0.09620      0.00000     0.40248    0.00132     0.40380
      H   30    0.10515      0.00000     0.39364    0.00121     0.39485
      H   31    0.09093      0.00000     0.40739    0.00168     0.40907
      H   32    0.08206      0.00000     0.41630    0.00164     0.41794
      H   33    0.08706      0.00000     0.41122    0.00172     0.41294
      H   34    0.09988      0.00000     0.39719    0.00293     0.40012
 =======================================================================
   * Total *   -0.00000     16.99407    46.76902    0.23691    64.00000

 Normal termination of Gaussian 16 at Sun Dec 13 14:10:45 2020.
