 Gaussian 16, Revision A.03,

 -----------------------------------------------------------
 # opt freq B3LYP/6-31G(d) empiricaldispersion=gd3bj scf=xqc
 -----------------------------------------------------------

 -----------------------------
 CID_23008731_JID_585_neutraal
 -----------------------------
 Symbolic Z-matrix:
 Charge =  0 Multiplicity = 1

 SCF Done:  E(RB3LYP) =  -445.084982646     A.U. after   13 cycles
 SCF Done:  E(RB3LYP) =  -445.087240603     A.U. after   10 cycles
 SCF Done:  E(RB3LYP) =  -445.087414059     A.U. after   10 cycles
 SCF Done:  E(RB3LYP) =  -445.087439323     A.U. after    9 cycles
 SCF Done:  E(RB3LYP) =  -445.087444367     A.U. after    8 cycles
 SCF Done:  E(RB3LYP) =  -445.087449854     A.U. after    9 cycles
 SCF Done:  E(RB3LYP) =  -445.087452779     A.U. after    8 cycles
 SCF Done:  E(RB3LYP) =  -445.087454897     A.U. after    8 cycles
 SCF Done:  E(RB3LYP) =  -445.087456757     A.U. after    8 cycles
 SCF Done:  E(RB3LYP) =  -445.087458626     A.U. after    8 cycles
 SCF Done:  E(RB3LYP) =  -445.087460539     A.U. after    8 cycles
 SCF Done:  E(RB3LYP) =  -445.087461426     A.U. after    8 cycles
 SCF Done:  E(RB3LYP) =  -445.087461899     A.U. after    7 cycles
 SCF Done:  E(RB3LYP) =  -445.087462014     A.U. after    6 cycles
 Optimization completed.
    -- Stationary point found.
 Normal termination of Gaussian 16 at Tue Dec  8 12:14:42 2020.

 --------------------------------------------------------------------
 #N Geom=AllCheck Guess=TCheck SCRF=Check GenChk RB3LYP/6-31G(d) Freq
 --------------------------------------------------------------------

 Structure from the checkpoint file:  "JID_585.chk"
 -----------------------------
 CID_23008731_JID_585_neutraal
 -----------------------------
 Charge =  0 Multiplicity = 1

 SCF Done:  E(RB3LYP) =  -445.087462014     A.U. after    1 cycles

  Exact polarizability: 101.796   3.598  87.706  -0.358   0.242  83.259
 Approx polarizability: 127.343  -0.299 127.302   1.784  -0.868 121.823

                      1                      2                      3
                      A                      A                      A
 Frequencies --     41.0415                47.7879                70.7875
 Red. masses --      2.1306                 3.2450                 3.4791
 Frc consts  --      0.0021                 0.0044                 0.0103
 IR Inten    --      0.3650                 0.9242                 2.1184

                      4                      5                      6
                      A                      A                      A
 Frequencies --    123.9572               160.6289               199.1002
 Red. masses --      2.6420                 3.3019                 2.0473
 Frc consts  --      0.0239                 0.0502                 0.0478
 IR Inten    --      1.9663                 0.3174                 8.6151

                      7                      8                      9
                      A                      A                      A
 Frequencies --    256.0975               284.1350               306.8813
 Red. masses --      1.1806                 1.8259                 2.3784
 Frc consts  --      0.0456                 0.0869                 0.1320
 IR Inten    --     34.4445                21.0894                 8.8707

                     10                     11                     12
                      A                      A                      A
 Frequencies --    328.7693               397.8803               406.6650
 Red. masses --      1.3393                 2.5398                 2.2682
 Frc consts  --      0.0853                 0.2369                 0.2210
 IR Inten    --     82.6191                 5.6203                 8.5291

                     13                     14                     15
                      A                      A                      A
 Frequencies --    491.5368               563.7184               606.6691
 Red. masses --      2.2162                 2.5882                 2.3645
 Frc consts  --      0.3155                 0.4846                 0.5127
 IR Inten    --      3.2784                 6.9097                 3.8334

                     16                     17                     18
                      A                      A                      A
 Frequencies --    691.6525               744.8795               791.0312
 Red. masses --      2.8264                 1.4179                 1.5251
 Frc consts  --      0.7966                 0.4635                 0.5623
 IR Inten    --      1.5083                 5.6151                 2.0382

                     19                     20                     21
                      A                      A                      A
 Frequencies --    816.5832               859.0575               870.9818
 Red. masses --      2.3142                 2.3516                 2.0296
 Frc consts  --      0.9092                 1.0225                 0.9071
 IR Inten    --     29.1594                 6.6889                11.9391

                     22                     23                     24
                      A                      A                      A
 Frequencies --    896.5144               920.7369               951.3739
 Red. masses --      2.3308                 1.6544                 2.0709
 Frc consts  --      1.1038                 0.8264                 1.1043
 IR Inten    --     22.0610               141.2381                 4.0763

                     25                     26                     27
                      A                      A                      A
 Frequencies --    961.5316               995.2311              1020.0291
 Red. masses --      1.7704                 1.8793                 1.8442
 Frc consts  --      0.9644                 1.0967                 1.1305
 IR Inten    --      0.2431                18.8233                17.2003

                     28                     29                     30
                      A                      A                      A
 Frequencies --   1037.7016              1062.7772              1080.9901
 Red. masses --      1.9460                 1.6423                 2.0318
 Frc consts  --      1.2346                 1.0929                 1.3988
 IR Inten    --      8.4959                 7.5229                27.2031

                     31                     32                     33
                      A                      A                      A
 Frequencies --   1095.4702              1123.9031              1137.3653
 Red. masses --      2.4407                 2.6279                 1.6785
 Frc consts  --      1.7257                 1.9557                 1.2793
 IR Inten    --     49.2554                 1.7332                 1.1821

                     34                     35                     36
                      A                      A                      A
 Frequencies --   1151.7503              1193.3224              1214.9491
 Red. masses --      1.2726                 1.3621                 1.2627
 Frc consts  --      0.9946                 1.1428                 1.0982
 IR Inten    --      2.4039                16.8908                10.4847

                     37                     38                     39
                      A                      A                      A
 Frequencies --   1235.1864              1257.9810              1270.6742
 Red. masses --      1.3390                 1.5702                 1.2605
 Frc consts  --      1.2037                 1.4640                 1.1991
 IR Inten    --      0.6496                 3.9463                 0.4704

                     40                     41                     42
                      A                      A                      A
 Frequencies --   1299.2770              1314.6097              1324.9858
 Red. masses --      1.2873                 1.3181                 1.3274
 Frc consts  --      1.2804                 1.3421                 1.3730
 IR Inten    --      4.1912                 0.3385                 9.6394

                     43                     44                     45
                      A                      A                      A
 Frequencies --   1342.2816              1350.0292              1367.8797
 Red. masses --      1.2933                 1.3084                 1.4138
 Frc consts  --      1.3729                 1.4050                 1.5586
 IR Inten    --      0.8347                 1.2160                 1.1851

                     46                     47                     48
                      A                      A                      A
 Frequencies --   1384.3368              1404.6664              1409.3689
 Red. masses --      1.4172                 1.5682                 1.1929
 Frc consts  --      1.6002                 1.8231                 1.3961
 IR Inten    --      0.5485                 2.4827                15.8269

                     49                     50                     51
                      A                      A                      A
 Frequencies --   1417.7563              1437.3008              1443.5661
 Red. masses --      1.3902                 1.3135                 1.3621
 Frc consts  --      1.6464                 1.5987                 1.6724
 IR Inten    --     16.1779                 3.7110                29.7897

                     52                     53                     54
                      A                      A                      A
 Frequencies --   1507.2252              1515.1060              1524.5916
 Red. masses --      1.0875                 1.0817                 1.0854
 Frc consts  --      1.4555                 1.4631                 1.4865
 IR Inten    --      4.9430                 3.1187                 0.6959

                     55                     56                     57
                      A                      A                      A
 Frequencies --   1530.8767              1538.9120              1547.5491
 Red. masses --      1.0855                 1.0867                 1.0980
 Frc consts  --      1.4988                 1.5163                 1.5493
 IR Inten    --      6.5786                 2.6860                 2.6320

                     58                     59                     60
                      A                      A                      A
 Frequencies --   1695.2222              2993.5091              3007.4521
 Red. masses --      1.0919                 1.0802                 1.0738
 Frc consts  --      1.8487                 5.7032                 5.7221
 IR Inten    --     20.0785                26.2071                48.5818

                     61                     62                     63
                      A                      A                      A
 Frequencies --   3032.0298              3033.9317              3042.0105
 Red. masses --      1.0606                 1.0666                 1.0680
 Frc consts  --      5.7449                 5.7846                 5.8232
 IR Inten    --     14.6416                10.6703                44.7706

                     64                     65                     66
                      A                      A                      A
 Frequencies --   3059.3628              3063.7593              3068.5057
 Red. masses --      1.0716                 1.0966                 1.0663
 Frc consts  --      5.9092                 6.0649                 5.9154
 IR Inten    --      8.7554                39.1620                81.1741

                     67                     68                     69
                      A                      A                      A
 Frequencies --   3076.0756              3082.4487              3089.4946
 Red. masses --      1.0798                 1.0990                 1.0979
 Frc consts  --      6.0198                 6.1523                 6.1740
 IR Inten    --     20.0950                59.1701                19.8364

                     70                     71                     72
                      A                      A                      A
 Frequencies --   3103.6586              3107.8448              3125.4176
 Red. masses --      1.0943                 1.1001                 1.1026
 Frc consts  --      6.2105                 6.2606                 6.3457
 IR Inten    --     54.6480                36.3929                44.6579

                     73                     74                     75
                      A                      A                      A
 Frequencies --   3460.8365              3548.1415              3751.4115
 Red. masses --      1.0490                 1.0920                 1.0660
 Frc consts  --      7.4029                 8.1002                 8.8387
 IR Inten    --      1.6195                 0.9542                 6.5984

 - Thermochemistry -
 -------------------
 Temperature   298.150 Kelvin.  Pressure   1.00000 Atm.
 Atom     1 has atomic number  6 and mass  12.00000

 Molecular mass:   143.13101 amu.
 Principal axes and moments of inertia in atomic units:
                           1         2         3
     Eigenvalues --   811.423032431.688362666.86940
           X            0.99977   0.02141  -0.00084
           Y           -0.02141   0.99977  -0.00172
           Z            0.00080   0.00173   1.00000
 This molecule is an asymmetric top.
 Rotational symmetry number  1.
 Warning -- assumption of classical behavior for rotation
           may cause significant error
 Rotational temperatures (Kelvin)      0.10674     0.03562     0.03248
 Rotational constants (GHZ):           2.22417     0.74218     0.67673
 Zero-point vibrational energy     655964.9 (Joules/Mol)
                                  156.77936 (Kcal/Mol)
 Warning -- explicit consideration of  15 degrees of freedom as
           vibrations may cause significant error
 Vibrational temperatures:     59.05    68.76   101.85   178.35   231.11
          (Kelvin)            286.46   368.47   408.81   441.53   473.03
                              572.46   585.10   707.21   811.07   872.86
                              995.13  1071.72  1138.12  1174.88  1235.99
                             1253.15  1289.88  1324.73  1368.81  1383.43
                             1431.92  1467.59  1493.02  1529.10  1555.30
                             1576.14  1617.05  1636.41  1657.11  1716.92
                             1748.04  1777.16  1809.95  1828.22  1869.37
                             1891.43  1906.36  1931.24  1942.39  1968.07
                             1991.75  2021.00  2027.77  2039.84  2067.96
                             2076.97  2168.56  2179.90  2193.55  2202.59
                             2214.15  2226.58  2439.05  4306.99  4327.05
                             4362.41  4365.15  4376.77  4401.74  4408.07
                             4414.90  4425.79  4434.96  4445.09  4465.47
                             4471.50  4496.78  4979.37  5104.98  5397.44

 Zero-point correction=                           0.249844 (Hartree/Particle)
 Thermal correction to Energy=                    0.261070
 Thermal correction to Enthalpy=                  0.262014
 Thermal correction to Gibbs Free Energy=         0.212078
 Sum of electronic and zero-point Energies=           -444.837618
 Sum of electronic and thermal Energies=              -444.826392
 Sum of electronic and thermal Enthalpies=            -444.825448
 Sum of electronic and thermal Free Energies=         -444.875384

                     E (Thermal)             CV                S
                      KCal/Mol        Cal/Mol-Kelvin    Cal/Mol-Kelvin
 Total                  163.824             41.909            105.099
 Electronic               0.000              0.000              0.000
 Translational            0.889              2.981             40.787
 Rotational               0.889              2.981             30.043
 Vibrational            162.046             35.947             34.269
 Vibration     1          0.594              1.981              5.208
 Vibration     2          0.595              1.978              4.907
 Vibration     3          0.598              1.968              4.131
 Vibration     4          0.610              1.929              3.038
 Vibration     5          0.622              1.891              2.542
 Vibration     6          0.637              1.841              2.141
 Vibration     7          0.666              1.752              1.688
 Vibration     8          0.683              1.703              1.509
 Vibration     9          0.697              1.661              1.379
 Vibration    10          0.712              1.618              1.266
 Vibration    11          0.764              1.475              0.970
 Vibration    12          0.771              1.456              0.938
 Vibration    13          0.847              1.269              0.680
 Vibration    14          0.919              1.110              0.516
 Vibration    15          0.965              1.018              0.438

 Optimization completed.
    -- Stationary point found.
 Normal termination of Gaussian 16 at Tue Dec  8 12:22:15 2020.

 ----------------------------------------------------------------------
 # B3LYP/6-311++G(d,p) empiricaldispersion=gd3bj scf=xqc pop=npa geom=c
 heck
 ----------------------------------------------------------------------

 -------------------------------------
 CID_23008731_JID_585_Energie_neutraal
 -------------------------------------
 Structure from the checkpoint file:  "JID_585.chk"
 Charge =  0 Multiplicity = 1

 SCF Done:  E(RB3LYP) =  -445.231668894     A.U. after   13 cycles
 Normal termination of Gaussian 16 at Tue Dec  8 12:25:46 2020.

 ----------------------------------------------------------------------
 # B3LYP/6-311++G(d,p) empiricaldispersion=gd3bj scf=xqc pop=npa geom=c
 heck
 ----------------------------------------------------------------------

 -----------------------------------
 CID_23008731_JID_585_Energie_kation
 -----------------------------------
 Structure from the checkpoint file:  "JID_585.chk"
 Charge =  1 Multiplicity = 2

 SCF Done:  E(UB3LYP) =  -444.904083572     A.U. after   26 cycles
 Normal termination of Gaussian 16 at Tue Dec  8 12:40:25 2020.
 Gaussian 16:  ES64L-G16RevA.03 25-Dec-2016

 ----------------------------------------------------------------------
 # B3LYP/6-311++G(d,p) empiricaldispersion=gd3bj scf=xqc pop=npa geom=c
 heck
 ----------------------------------------------------------------------

 ----------------------------------
 CID_23008731_JID_585_Energie_anion
 ----------------------------------
 Structure from the checkpoint file:  "JID_585.chk"
 Charge = -1 Multiplicity = 2

                         Standard orientation:
 ---------------------------------------------------------------------
 Center     Atomic      Atomic             Coordinates (Angstroms)
 Number     Number       Type             X           Y           Z
 ---------------------------------------------------------------------
      1          6           0       -2.608109   -1.104332    0.058892
      2          6           0       -1.362909   -1.187521   -0.866792
      3          6           0       -0.260455   -0.377319   -0.153412
      4          6           0       -1.057772    0.736990    0.579454
      5          6           0       -2.259524   -0.042731    1.138508
      6          7           0       -1.527006    1.845140   -0.262721
      7          6           0        0.859757    0.098835   -1.080503
      8          6           0        1.972646    0.911716   -0.399736
      9          6           0        2.677398    0.174457    0.742081
     10          8           0        3.251210   -1.063849    0.335563
     11          1           0       -3.499181   -0.817623   -0.509447
     12          1           0       -2.833166   -2.072028    0.517994
     13          1           0       -1.577102   -0.733047   -1.842989
     14          1           0       -1.051146   -2.217387   -1.068808
     15          1           0        0.169519   -1.018987    0.631792
     16          1           0       -0.465341    1.184318    1.385682
     17          1           0       -1.963683   -0.538712    2.069859
     18          1           0       -3.091132    0.627947    1.371424
     19          1           0       -0.733847    2.328317   -0.681515
     20          1           0       -2.080076    1.485100   -1.039976
     21          1           0        1.309803   -0.769551   -1.580989
     22          1           0        0.419943    0.701426   -1.886163
     23          1           0        2.721326    1.185489   -1.153109
     24          1           0        1.565935    1.851071    0.000636
     25          1           0        3.512849    0.777207    1.111548
     26          1           0        1.986801    0.028522    1.587521
     27          1           0        2.521669   -1.667815    0.130128
 ---------------------------------------------------------------------

 SCF Done:  E(UB3LYP) =  -445.218385662     A.U. after   27 cycles

 The electronic state is 2-A.
 Alpha  occ. eigenvalues --  -19.01392 -14.18122 -10.10773 -10.08346 -10.06030
 Alpha  occ. eigenvalues --  -10.05688 -10.05644 -10.05409 -10.05175 -10.05049
 Alpha  occ. eigenvalues --   -0.91461  -0.78465  -0.70473  -0.67424  -0.61245
 Alpha  occ. eigenvalues --   -0.58502  -0.55351  -0.48587  -0.45709  -0.44047
 Alpha  occ. eigenvalues --   -0.40545  -0.39343  -0.37067  -0.35213  -0.33877
 Alpha  occ. eigenvalues --   -0.33326  -0.31736  -0.30797  -0.28688  -0.26260
 Alpha  occ. eigenvalues --   -0.26200  -0.23432  -0.22946  -0.22535  -0.22305
 Alpha  occ. eigenvalues --   -0.21610  -0.20704  -0.20408  -0.16878  -0.13138
 Alpha  occ. eigenvalues --    0.04756
 Alpha virt. eigenvalues --    0.07317   0.07753   0.08279   0.09535   0.09904
 Alpha virt. eigenvalues --    0.10382   0.10805   0.11053   0.12180   0.12970
 Alpha virt. eigenvalues --    0.13662   0.13918   0.14148   0.14613   0.15539

  Beta  occ. eigenvalues --  -19.01356 -14.18076 -10.10755 -10.08338 -10.06013
  Beta  occ. eigenvalues --  -10.05669 -10.05619 -10.05386 -10.05161 -10.05018
  Beta  occ. eigenvalues --   -0.91383  -0.78394  -0.70408  -0.67375  -0.61190
  Beta  occ. eigenvalues --   -0.58432  -0.55280  -0.48521  -0.45638  -0.43972
  Beta  occ. eigenvalues --   -0.40477  -0.39274  -0.37013  -0.35165  -0.33820
  Beta  occ. eigenvalues --   -0.33276  -0.31678  -0.30745  -0.28649  -0.26221
  Beta  occ. eigenvalues --   -0.26154  -0.23383  -0.22902  -0.22492  -0.22265
  Beta  occ. eigenvalues --   -0.21570  -0.20657  -0.20370  -0.16828  -0.13089
  Beta virt. eigenvalues --    0.07172   0.08289   0.08365   0.08910   0.09925
  Beta virt. eigenvalues --    0.10332   0.10776   0.11237   0.11600   0.12456
  Beta virt. eigenvalues --    0.13256   0.14037   0.14255   0.14636   0.14863

 Mulliken charges and spin densities:
               1          2
     1  C   -0.688617   0.494576
     2  C    2.182473  -3.013636
     3  C   -2.580839   3.353115
     4  C    1.526872  -1.496800
     5  C    0.496350  -1.298116
     6  N   -0.391570   0.046610
     7  C    0.440603  -1.215434
     8  C   -0.574015   0.526673
     9  C    0.797649  -1.367326
    10  O   -0.257041   0.021382
    11  H    0.000327   0.132016
    12  H   -0.297298   0.450906
    13  H   -0.064913   0.224748
    14  H   -0.463132   0.618951
    15  H   -0.113103   0.300241
    16  H    0.210360   0.011998
    17  H   -0.185449   0.322508
    18  H    0.088861   0.080921
    19  H   -0.249349   0.490299
    20  H    0.010587   0.228885
    21  H   -0.048774   0.236286
    22  H   -0.159671   0.319642
    23  H   -0.308638   0.484765
    24  H    0.022983   0.076812
    25  H   -0.088397   0.252142
    26  H   -0.242863   0.403533
    27  H   -0.063396   0.314302
 Sum of Mulliken charges =  -1.00000   1.00000

 Dipole moment (field-independent basis, Debye):
    X=             -0.4718    Y=              2.0208    Z=              0.6165  Tot=              2.1648
 Quadrupole moment (field-independent basis, Debye-Ang):
   XX=           -116.5850   YY=           -109.5911   ZZ=            -95.4249
   XY=              4.6496   XZ=             -0.0066   YZ=              2.7403

 Summary of Natural Population Analysis:

                                       Natural Population
                Natural  -----------------------------------------------
    Atom  No    Charge         Core      Valence    Rydberg      Total
 -----------------------------------------------------------------------
      C    1   -0.19545      0.99965     2.18785    0.00796     3.19545
      C    2   -0.19185      0.99963     2.18255    0.00967     3.19185
      C    3   -0.12110      0.99957     2.10843    0.01309     3.12110
      C    4   -0.01260      0.99957     2.00000    0.01302     3.01260
      C    5   -0.19248      0.99962     2.18528    0.00759     3.19248
      N    6   -0.42430      0.99977     2.91382    0.01071     3.92430
      C    7   -0.19673      0.99960     2.18585    0.01128     3.19673
      C    8   -0.20029      0.99963     2.19308    0.00758     3.20029
      C    9   -0.00877      0.99960     1.99729    0.01188     3.00877
      O   10   -0.37132      0.99990     3.36468    0.00674     4.37132
      H   11    0.09444      0.00000     0.40448    0.00108     0.40556
      H   12    0.09991      0.00000     0.39866    0.00143     0.40009
      H   13    0.09337      0.00000     0.40497    0.00166     0.40663
      H   14    0.10481      0.00000     0.39302    0.00217     0.39519
      H   15    0.09724      0.00000     0.40003    0.00273     0.40276
      H   16    0.09203      0.00000     0.40629    0.00168     0.40797
      H   17    0.09933      0.00000     0.39918    0.00149     0.40067
      H   18    0.10146      0.00000     0.39722    0.00132     0.39854
      H   19    0.17567      0.00000     0.32220    0.00214     0.32433
      H   20    0.17280      0.00000     0.32489    0.00231     0.32720
      H   21    0.09993      0.00000     0.39848    0.00159     0.40007
      H   22    0.10045      0.00000     0.39770    0.00185     0.39955
      H   23    0.09772      0.00000     0.40098    0.00130     0.40228
      H   24    0.09556      0.00000     0.40281    0.00163     0.40444
      H   25    0.08332      0.00000     0.41532    0.00136     0.41668
      H   26    0.07592      0.00000     0.42253    0.00155     0.42408
      H   27    0.23092      0.00000     0.26505    0.00404     0.26908
 =======================================================================
   * Total *   -0.00000      9.99654    29.87262    0.13084    40.00000

 Normal termination of Gaussian 16 at Tue Dec  8 12:50:18 2020.
