 Gaussian 16, Revision A.03,

 -----------------------------------------------------------
 # opt freq B3LYP/6-31G(d) empiricaldispersion=gd3bj scf=xqc
 -----------------------------------------------------------

 ------------------------------
 CID_150755414_JID_910_neutraal
 ------------------------------
 Symbolic Z-matrix:
 Charge =  0 Multiplicity = 1

 SCF Done:  E(RB3LYP) =  -516.537093095     A.U. after   15 cycles
 SCF Done:  E(RB3LYP) =  -516.541774900     A.U. after   15 cycles
 SCF Done:  E(RB3LYP) =  -516.544033566     A.U. after   13 cycles
 SCF Done:  E(RB3LYP) =  -516.545095495     A.U. after   13 cycles
 SCF Done:  E(RB3LYP) =  -516.545402551     A.U. after   12 cycles
 SCF Done:  E(RB3LYP) =  -516.545442738     A.U. after   12 cycles
 SCF Done:  E(RB3LYP) =  -516.545459670     A.U. after   12 cycles
 SCF Done:  E(RB3LYP) =  -516.545470153     A.U. after   10 cycles
 SCF Done:  E(RB3LYP) =  -516.545472407     A.U. after    9 cycles
 SCF Done:  E(RB3LYP) =  -516.545473123     A.U. after    8 cycles
 Optimization completed.
    -- Stationary point found.
 Normal termination of Gaussian 16 at Tue Dec  8 13:27:30 2020.

 --------------------------------------------------------------------
 #N Geom=AllCheck Guess=TCheck SCRF=Check GenChk RB3LYP/6-31G(d) Freq
 --------------------------------------------------------------------

 Structure from the checkpoint file:  "JID_910.chk"
 ------------------------------
 CID_150755414_JID_910_neutraal
 ------------------------------
 Charge =  0 Multiplicity = 1

 SCF Done:  E(RB3LYP) =  -516.545473123     A.U. after    1 cycles

  Exact polarizability: 116.062 -10.012  71.247  -0.048   0.334  32.651
 Approx polarizability: 180.566 -34.359 135.589   0.850   0.306  49.199

                      1                      2                      3
                      A                      A                      A
 Frequencies --     67.5380               120.5891               130.3547
 Red. masses --      8.6154                 9.2071                 4.5778
 Frc consts  --      0.0232                 0.0789                 0.0458
 IR Inten    --      1.1433                 1.3020                 4.9771

                      4                      5                      6
                      A                      A                      A
 Frequencies --    246.5324               281.2868               310.4027
 Red. masses --      6.1187                 2.5046                 1.5953
 Frc consts  --      0.2191                 0.1168                 0.0906
 IR Inten    --      1.3508                17.9701                24.2547

                      7                      8                      9
                      A                      A                      A
 Frequencies --    333.7876               365.3228               399.4299
 Red. masses --      5.7260                 2.5350                 1.2702
 Frc consts  --      0.3759                 0.1993                 0.1194
 IR Inten    --      0.8853                 6.7929                20.1212

                     10                     11                     12
                      A                      A                      A
 Frequencies --    514.0365               546.2742               559.8570
 Red. masses --     11.2176                13.1857                 1.9179
 Frc consts  --      1.7464                 2.3183                 0.3542
 IR Inten    --      6.8095                16.8416               172.6652

                     13                     14                     15
                      A                      A                      A
 Frequencies --    569.0108               676.0356               693.5088
 Red. masses --      2.3261                10.0967                 5.8397
 Frc consts  --      0.4437                 2.7187                 1.6548
 IR Inten    --    162.5278                12.9737                22.2271

                     16                     17                     18
                      A                      A                      A
 Frequencies --    753.0641               766.2423               870.7877
 Red. masses --     11.0479                 8.3628                 6.3741
 Frc consts  --      3.6914                 2.8929                 2.8477
 IR Inten    --     40.6735                10.4211                 6.9832

                     19                     20                     21
                      A                      A                      A
 Frequencies --    984.0419              1050.4660              1110.8138
 Red. masses --      1.5229                11.4231                 2.2982
 Frc consts  --      0.8689                 7.4267                 1.6708
 IR Inten    --    101.8493                 2.6816                14.7791

                     22                     23                     24
                      A                      A                      A
 Frequencies --   1198.6412              1299.2437              1335.0493
 Red. masses --      4.2606                11.8371                 4.0740
 Frc consts  --      3.6067                11.7727                 4.2783
 IR Inten    --     18.7233                 7.1741                14.4855

                     25                     26                     27
                      A                      A                      A
 Frequencies --   1356.4420              1436.9190              1502.2646
 Red. masses --      1.2058                 8.3017                 8.5166
 Frc consts  --      1.3072                10.0991                11.3242
 IR Inten    --      2.2476               386.8396               260.5147

                     28                     29                     30
                      A                      A                      A
 Frequencies --   1578.7145              1602.5806              1683.5270
 Red. masses --      6.4367                 1.6983                 1.9430
 Frc consts  --      9.4519                 2.5699                 3.2447
 IR Inten    --    132.7590                 8.5380               195.1917

                     31                     32                     33
                      A                      A                      A
 Frequencies --   1743.3237              2290.0161              3451.3623
 Red. masses --      1.2828                13.9937                 1.0467
 Frc consts  --      2.2971                43.2375                 7.3459
 IR Inten    --    107.5249               617.9331                 3.2081

                     34                     35                     36
                      A                      A                      A
 Frequencies --   3531.4718              3573.0281              3686.7933
 Red. masses --      1.0966                 1.0465                 1.1008
 Frc consts  --      8.0574                 7.8719                 8.8157
 IR Inten    --      4.7109                49.4027                46.4123

 - Thermochemistry -
 -------------------
 Temperature   298.150 Kelvin.  Pressure   1.00000 Atm.
 Atom     1 has atomic number  6 and mass  12.00000

 Molecular mass:   140.05589 amu.
 Principal axes and moments of inertia in atomic units:
                           1         2         3
     Eigenvalues --   509.104852139.387772637.36600
           X            0.99999   0.00399  -0.00249
           Y           -0.00398   0.99998   0.00415
           Z            0.00251  -0.00414   0.99999
 This molecule is an asymmetric top.
 Rotational symmetry number  1.
 Warning -- assumption of classical behavior for rotation
           may cause significant error
 Rotational temperatures (Kelvin)      0.17013     0.04049     0.03284
 Rotational constants (GHZ):           3.54493     0.84358     0.68430
 Zero-point vibrational energy     254916.8 (Joules/Mol)
                                   60.92658 (Kcal/Mol)
 Warning -- explicit consideration of  13 degrees of freedom as
           vibrations may cause significant error
 Vibrational temperatures:     97.17   173.50   187.55   354.71   404.71
          (Kelvin)            446.60   480.25   525.62   574.69   739.58
                              785.97   805.51   818.68   972.66   997.80
                             1083.49  1102.45  1252.87  1415.82  1511.39
                             1598.21  1724.58  1869.32  1920.84  1951.62
                             2067.41  2161.42  2271.42  2305.76  2422.22
                             2508.25  3294.82  4965.74  5081.00  5140.79
                             5304.47

 Zero-point correction=                           0.097093 (Hartree/Particle)
 Thermal correction to Energy=                    0.105884
 Thermal correction to Enthalpy=                  0.106829
 Thermal correction to Gibbs Free Energy=         0.062989
 Sum of electronic and zero-point Energies=           -516.448380
 Sum of electronic and thermal Energies=              -516.439589
 Sum of electronic and thermal Enthalpies=            -516.438645
 Sum of electronic and thermal Free Energies=         -516.482484

                     E (Thermal)             CV                S
                      KCal/Mol        Cal/Mol-Kelvin    Cal/Mol-Kelvin
 Total                   66.443             31.771             92.268
 Electronic               0.000              0.000              0.000
 Translational            0.889              2.981             40.722
 Rotational               0.889              2.981             29.442
 Vibrational             64.666             25.809             22.104
 Vibration     1          0.598              1.970              4.224
 Vibration     2          0.609              1.932              3.091
 Vibration     3          0.612              1.923              2.941
 Vibration     4          0.661              1.769              1.755
 Vibration     5          0.681              1.708              1.526
 Vibration     6          0.699              1.654              1.360
 Vibration     7          0.715              1.608              1.242
 Vibration     8          0.739              1.544              1.099
 Vibration     9          0.765              1.471              0.965
 Vibration    10          0.869              1.219              0.624
 Vibration    11          0.901              1.148              0.552
 Vibration    12          0.915              1.118              0.524
 Vibration    13          0.925              1.098              0.506

                           ! Non-Optimized Parameters !
 Normal termination of Gaussian 16 at Tue Dec  8 13:30:59 2020.

 ----------------------------------------------------------------------
 # B3LYP/6-311++G(d,p) empiricaldispersion=gd3bj scf=xqc pop=npa geom=c
 heck
 ----------------------------------------------------------------------

 --------------------------------------
 CID_150755414_JID_910_Energie_neutraal
 --------------------------------------
 Structure from the checkpoint file:  "JID_910.chk"
 Charge =  0 Multiplicity = 1

 SCF Done:  E(RB3LYP) =  -516.701786297     A.U. after   15 cycles
 Normal termination of Gaussian 16 at Tue Dec  8 13:32:34 2020.

 ----------------------------------------------------------------------
 # B3LYP/6-311++G(d,p) empiricaldispersion=gd3bj scf=xqc pop=npa geom=c
 heck
 ----------------------------------------------------------------------

 ------------------------------------
 CID_150755414_JID_910_Energie_kation
 ------------------------------------
 Structure from the checkpoint file:  "JID_910.chk"
 Charge =  1 Multiplicity = 2

 SCF Done:  E(UB3LYP) =  -516.395127024     A.U. after   20 cycles
 Normal termination of Gaussian 16 at Tue Dec  8 13:37:07 2020.
 Gaussian 16:  ES64L-G16RevA.03 25-Dec-2016

 ----------------------------------------------------------------------
 # B3LYP/6-311++G(d,p) empiricaldispersion=gd3bj scf=xqc pop=npa geom=c
 heck
 ----------------------------------------------------------------------

 -----------------------------------
 CID_150755414_JID_910_Energie_anion
 -----------------------------------
 Structure from the checkpoint file:  "JID_910.chk"
 Charge = -1 Multiplicity = 2

                         Standard orientation:
 ---------------------------------------------------------------------
 Center     Atomic      Atomic             Coordinates (Angstroms)
 Number     Number       Type             X           Y           Z
 ---------------------------------------------------------------------
      1          6           0        1.506807   -0.603995    0.008158
      2          7           0        0.430709   -1.380824   -0.000576
      3          6           0       -0.581105   -0.468912    0.002000
      4          7           0       -0.239441    0.811120    0.013764
      5          7           0        1.138592    0.701148    0.017161
      6          7           0        2.007891    1.780735   -0.023557
      7          7           0       -1.905280   -0.924899   -0.009011
      8          7           0       -2.784786   -0.048603   -0.004635
      9          7           0       -3.693338    0.635751   -0.001692
     10          7           0        2.811810   -1.004575    0.069368
     11          1           0        1.742418    2.369778   -0.812712
     12          1           0        1.881730    2.330582    0.826643
     13          1           0        2.975197   -1.942547   -0.269909
     14          1           0        3.483338   -0.309345   -0.230725
 ---------------------------------------------------------------------

 SCF Done:  E(UB3LYP) =  -516.696862761     A.U. after   28 cycles

 The electronic state is 2-A.
 Alpha  occ. eigenvalues --  -14.35230 -14.29626 -14.26050 -14.24676 -14.24004
 Alpha  occ. eigenvalues --  -14.22168 -14.21312 -14.18427 -10.16367 -10.14526
 Alpha  occ. eigenvalues --   -1.02419  -0.97936  -0.87732  -0.84346  -0.82044
 Alpha  occ. eigenvalues --   -0.74159  -0.67130  -0.57251  -0.50283  -0.46397
 Alpha  occ. eigenvalues --   -0.42442  -0.42220  -0.40651  -0.39470  -0.38669
 Alpha  occ. eigenvalues --   -0.35766  -0.33496  -0.32990  -0.24156  -0.23166
 Alpha  occ. eigenvalues --   -0.21160  -0.20004  -0.18818  -0.16848  -0.14563
 Alpha  occ. eigenvalues --   -0.10344   0.04620
 Alpha virt. eigenvalues --    0.06510   0.07811   0.09249   0.10671   0.11152
 Alpha virt. eigenvalues --    0.12914   0.14937   0.15208   0.16526   0.16635
 Alpha virt. eigenvalues --    0.18246   0.18636   0.19004   0.19911   0.20323

  Beta  occ. eigenvalues --  -14.34966 -14.29623 -14.25777 -14.24689 -14.23894
  Beta  occ. eigenvalues --  -14.22098 -14.21311 -14.18424 -10.16361 -10.14461
  Beta  occ. eigenvalues --   -1.01972  -0.97894  -0.87558  -0.84240  -0.81948
  Beta  occ. eigenvalues --   -0.74101  -0.66987  -0.57061  -0.50183  -0.46283
  Beta  occ. eigenvalues --   -0.42344  -0.42067  -0.40405  -0.39265  -0.37915
  Beta  occ. eigenvalues --   -0.35358  -0.33348  -0.32484  -0.24089  -0.23117
  Beta  occ. eigenvalues --   -0.20645  -0.19890  -0.18685  -0.16775  -0.14521
  Beta  occ. eigenvalues --   -0.10295
  Beta virt. eigenvalues --    0.07854   0.08938   0.09235   0.09558   0.11702
  Beta virt. eigenvalues --    0.12422   0.13124   0.14970   0.15391   0.16464
  Beta virt. eigenvalues --    0.16623   0.18352   0.18614   0.19185   0.19858

 Mulliken charges and spin densities:
               1          2
     1  C    0.743979  -0.548444
     2  N   -0.182352  -0.068793
     3  C    0.334109  -0.439879
     4  N   -0.345146   0.139679
     5  N   -0.197428   0.288632
     6  N    0.363383  -0.901155
     7  N   -0.339503   0.030394
     8  N    0.484681   0.049975
     9  N   -0.318765   0.170970
    10  N   -0.536055   0.205480
    11  H   -0.239037   0.492242
    12  H   -0.217455   0.475752
    13  H   -0.081661   0.348052
    14  H   -0.468751   0.757096
 Sum of Mulliken charges =  -1.00000   1.00000

 Dipole moment (field-independent basis, Debye):
    X=             -3.2379    Y=             -1.8023    Z=              0.3207  Tot=              3.7196
 Quadrupole moment (field-independent basis, Debye-Ang):
   XX=           -115.8642   YY=            -88.3136   ZZ=            -70.4216
   XY=             -2.6586   XZ=              1.6007   YZ=              0.7309

 Summary of Natural Population Analysis:

                                       Natural Population
                Natural  -----------------------------------------------
    Atom  No    Charge         Core      Valence    Rydberg      Total
 -----------------------------------------------------------------------
      C    1    0.28954      0.99959     1.69272    0.01815     2.71046
      N    2   -0.29218      0.99966     2.78338    0.00914     3.79218
      C    3    0.24817      0.99961     1.73043    0.02179     2.75183
      N    4   -0.20007      0.99968     2.68909    0.01130     3.70007
      N    5   -0.06049      0.99960     2.54522    0.01567     3.56049
      N    6   -0.30779      0.99976     2.79472    0.01331     3.80779
      N    7   -0.19008      0.99963     2.67772    0.01273     3.69008
      N    8    0.14739      0.99971     2.33701    0.01590     3.35261
      N    9   -0.00528      0.99982     2.49296    0.01250     3.50528
      N   10   -0.39625      0.99970     2.88729    0.00926     3.89625
      H   11    0.18440      0.00000     0.30799    0.00761     0.31560
      H   12    0.18282      0.00000     0.31115    0.00602     0.31718
      H   13    0.19504      0.00000     0.30243    0.00253     0.30496
      H   14    0.20478      0.00000     0.28607    0.00915     0.29522
 =======================================================================
   * Total *    0.00000      9.99677    25.83818    0.16505    36.00000

 Normal termination of Gaussian 16 at Tue Dec  8 13:41:56 2020.
