 Gaussian 16, Revision A.03,

 -----------------------------------------------------------
 # opt freq B3LYP/6-31G(d) empiricaldispersion=gd3bj scf=xqc
 -----------------------------------------------------------

 -------------------------------
 CID_130641351_JID_4604_neutraal
 -------------------------------
 Symbolic Z-matrix:
 Charge =  0 Multiplicity = 1

 SCF Done:  E(RB3LYP) =  -988.460385636     A.U. after   15 cycles
 SCF Done:  E(RB3LYP) =  -988.463189520     A.U. after   13 cycles
 SCF Done:  E(RB3LYP) =  -988.459169770     A.U. after   14 cycles
 SCF Done:  E(RB3LYP) =  -988.465556491     A.U. after   13 cycles
 SCF Done:  E(RB3LYP) =  -988.466172590     A.U. after   14 cycles
 SCF Done:  E(RB3LYP) =  -988.466598495     A.U. after   13 cycles
 SCF Done:  E(RB3LYP) =  -988.466676575     A.U. after   12 cycles
 SCF Done:  E(RB3LYP) =  -988.466717234     A.U. after   12 cycles
 SCF Done:  E(RB3LYP) =  -988.466727931     A.U. after   10 cycles
 SCF Done:  E(RB3LYP) =  -988.466731174     A.U. after    9 cycles
 SCF Done:  E(RB3LYP) =  -988.467488172     A.U. after   10 cycles
 SCF Done:  E(RB3LYP) =  -988.467493156     A.U. after   10 cycles
 SCF Done:  E(RB3LYP) =  -988.467493065     A.U. after    8 cycles
 SCF Done:  E(RB3LYP) =  -988.467492987     A.U. after    7 cycles
 SCF Done:  E(RB3LYP) =  -988.467493188     A.U. after    7 cycles
 Optimization completed.
    -- Stationary point found.
 Normal termination of Gaussian 16 at Thu Dec 10 10:25:40 2020.

 --------------------------------------------------------------------
 #N Geom=AllCheck Guess=TCheck SCRF=Check GenChk RB3LYP/6-31G(d) Freq
 --------------------------------------------------------------------

 Structure from the checkpoint file:  "JID_4604.chk"
 -------------------------------
 CID_130641351_JID_4604_neutraal
 -------------------------------
 Charge =  0 Multiplicity = 1

 SCF Done:  E(RB3LYP) =  -988.467493188     A.U. after    1 cycles

  Exact polarizability: 143.414 -10.341 117.731   7.271   1.806 113.890
 Approx polarizability: 194.233 -25.965 188.160   8.832   4.361 202.669

                      1                      2                      3
                      A                      A                      A
 Frequencies --     22.8597                41.3288                68.1579
 Red. masses --      4.8095                 3.5710                 3.6349
 Frc consts  --      0.0015                 0.0036                 0.0099
 IR Inten    --      8.7148                 0.5535                 5.0336

                      4                      5                      6
                      A                      A                      A
 Frequencies --     81.3029                92.6628               104.9428
 Red. masses --      1.2329                 5.1189                 4.0118
 Frc consts  --      0.0048                 0.0259                 0.0260
 IR Inten    --      1.0756                 1.5498                 8.4516

                      7                      8                      9
                      A                      A                      A
 Frequencies --    173.4041               200.0516               221.7901
 Red. masses --      5.0552                 4.0253                 3.7189
 Frc consts  --      0.0896                 0.0949                 0.1078
 IR Inten    --      3.0101                 1.6366                 2.0326

                     10                     11                     12
                      A                      A                      A
 Frequencies --    260.7437               295.5232               330.8502
 Red. masses --      2.3449                 2.8715                 2.7571
 Frc consts  --      0.0939                 0.1478                 0.1778
 IR Inten    --      2.0900                 1.1959                 4.4318

                     13                     14                     15
                      A                      A                      A
 Frequencies --    336.1771               378.1968               412.6536
 Red. masses --      3.3826                 2.9816                 2.6976
 Frc consts  --      0.2252                 0.2513                 0.2706
 IR Inten    --      0.1403                 0.5397                 5.5221

                     16                     17                     18
                      A                      A                      A
 Frequencies --    476.6696               537.0911               545.7820
 Red. masses --      3.9998                 2.9950                 5.1885
 Frc consts  --      0.5355                 0.5090                 0.9106
 IR Inten    --      2.5214                 4.8987                 5.8783

                     19                     20                     21
                      A                      A                      A
 Frequencies --    610.1203               665.6504               683.6738
 Red. masses --      4.8076                 4.8109                 4.0166
 Frc consts  --      1.0544                 1.2559                 1.1061
 IR Inten    --      1.2881                 3.1915                 2.3892

                     22                     23                     24
                      A                      A                      A
 Frequencies --    700.2689               731.1602               777.3364
 Red. masses --      4.6372                 4.2674                 1.5511
 Frc consts  --      1.3398                 1.3441                 0.5522
 IR Inten    --      8.7208                 9.4830                13.8444

                     25                     26                     27
                      A                      A                      A
 Frequencies --    808.5337               833.6424               874.1573
 Red. masses --      2.4304                 3.9842                 1.4825
 Frc consts  --      0.9361                 1.6314                 0.6674
 IR Inten    --      8.0428                 2.3334                 2.3219

                     28                     29                     30
                      A                      A                      A
 Frequencies --    900.4398               939.3118               964.2588
 Red. masses --      2.2231                 1.9893                 1.9544
 Frc consts  --      1.0620                 1.0341                 1.0706
 IR Inten    --      1.5907                 2.3277                 4.7992

                     31                     32                     33
                      A                      A                      A
 Frequencies --    992.7211              1029.4933              1036.8362
 Red. masses --      2.1176                 2.6432                 2.1809
 Frc consts  --      1.2296                 1.6506                 1.3813
 IR Inten    --     17.9400                24.8674                10.2511

                     34                     35                     36
                      A                      A                      A
 Frequencies --   1047.5386              1065.6107              1075.6231
 Red. masses --      1.8895                 4.2715                 1.6744
 Frc consts  --      1.2216                 2.8578                 1.1414
 IR Inten    --      2.2493                23.6963                 4.4848

                     37                     38                     39
                      A                      A                      A
 Frequencies --   1083.8718              1132.5944              1159.9912
 Red. masses --      2.0579                 2.1658                 1.3076
 Frc consts  --      1.4244                 1.6368                 1.0366
 IR Inten    --      0.7111                 4.9032                 0.2201

                     40                     41                     42
                      A                      A                      A
 Frequencies --   1171.9807              1190.9997              1218.8474
 Red. masses --      1.9192                 1.6211                 1.9216
 Frc consts  --      1.5531                 1.3548                 1.6819
 IR Inten    --     10.6103                 2.4045                 6.9290

                     43                     44                     45
                      A                      A                      A
 Frequencies --   1242.0265              1286.2872              1294.7419
 Red. masses --      1.7481                 1.3709                 5.4930
 Frc consts  --      1.5889                 1.3364                 5.4253
 IR Inten    --      4.6044                 0.0299                22.0663

                     46                     47                     48
                      A                      A                      A
 Frequencies --   1311.4613              1327.9261              1360.2237
 Red. masses --      1.3150                 2.1621                 1.5677
 Frc consts  --      1.3326                 2.2463                 1.7089
 IR Inten    --     10.1038                 8.1213                 7.5443

                     49                     50                     51
                      A                      A                      A
 Frequencies --   1368.1515              1399.1490              1406.0563
 Red. masses --      1.4036                 1.3566                 3.5914
 Frc consts  --      1.5480                 1.5648                 4.1833
 IR Inten    --      2.1561                 1.5720                 8.9770

                     52                     53                     54
                      A                      A                      A
 Frequencies --   1432.5215              1461.3659              1497.8157
 Red. masses --      1.2033                 1.4518                 1.4386
 Frc consts  --      1.4548                 1.8267                 1.9016
 IR Inten    --      7.9703                 9.2256                 7.3377

                     55                     56                     57
                      A                      A                      A
 Frequencies --   1505.7413              1511.2577              1513.4620
 Red. masses --      1.5722                 1.0879                 1.0434
 Frc consts  --      2.1002                 1.4639                 1.4081
 IR Inten    --     11.7668                 3.5031                 8.7554

                     58                     59                     60
                      A                      A                      A
 Frequencies --   1517.9485              1534.3061              1537.5882
 Red. masses --      1.0884                 1.0990                 1.2071
 Frc consts  --      1.4776                 1.5244                 1.6814
 IR Inten    --      2.7429                 2.2761                15.3121

                     61                     62                     63
                      A                      A                      A
 Frequencies --   1603.8097              1816.2577              2924.4901
 Red. masses --      6.1083                10.5950                 1.0848
 Frc consts  --      9.2571                20.5924                 5.4662
 IR Inten    --      7.5288               226.9098                95.1218

                     64                     65                     66
                      A                      A                      A
 Frequencies --   3055.8871              3062.9515              3070.5368
 Red. masses --      1.0635                 1.0621                 1.0657
 Frc consts  --      5.8513                 5.8706                 5.9199
 IR Inten    --     10.6228                43.5390                17.0581

                     67                     68                     69
                      A                      A                      A
 Frequencies --   3072.4836              3078.1284              3100.0404
 Red. masses --      1.0341                 1.0637                 1.1013
 Frc consts  --      5.7515                 5.9383                 6.2356
 IR Inten    --     36.0184                15.0587                23.6855

                     70                     71                     72
                      A                      A                      A
 Frequencies --   3123.3478              3129.5043              3138.1855
 Red. masses --      1.0992                 1.0978                 1.1066
 Frc consts  --      6.3178                 6.3345                 6.4208
 IR Inten    --      5.1666                 3.9155                14.6868

                     73                     74                     75
                      A                      A                      A
 Frequencies --   3140.8959              3185.0745              3302.9136
 Red. masses --      1.1073                 1.1025                 1.0995
 Frc consts  --      6.4361                 6.5898                 7.0670
 IR Inten    --     12.3600                 1.3797                 1.0375

 - Thermochemistry -
 -------------------
 Temperature   298.150 Kelvin.  Pressure   1.00000 Atm.
 Atom     1 has atomic number  6 and mass  12.00000

 Molecular mass:   211.07793 amu.
 Principal axes and moments of inertia in atomic units:
                           1         2         3
     Eigenvalues --  1724.693654418.396024863.93929
           X            0.99955   0.00958   0.02837
           Y           -0.01047   0.99945   0.03148
           Z           -0.02805  -0.03177   0.99910
 This molecule is an asymmetric top.
 Rotational symmetry number  1.
 Warning -- assumption of classical behavior for rotation
           may cause significant error
 Rotational temperatures (Kelvin)      0.05022     0.01960     0.01781
 Rotational constants (GHZ):           1.04641     0.40846     0.37105
 Zero-point vibrational energy     577720.9 (Joules/Mol)
                                  138.07860 (Kcal/Mol)
 Warning -- explicit consideration of  19 degrees of freedom as
           vibrations may cause significant error
 Vibrational temperatures:     32.89    59.46    98.06   116.98   133.32
          (Kelvin)            150.99   249.49   287.83   319.11   375.15
                              425.19   476.02   483.68   544.14   593.72
                              685.82   772.75   785.26   877.83   957.72
                              983.65  1007.53  1051.98  1118.41  1163.30
                             1199.43  1257.72  1295.53  1351.46  1387.35
                             1428.30  1481.21  1491.78  1507.17  1533.18
                             1547.58  1559.45  1629.55  1668.97  1686.22
                             1713.58  1753.65  1787.00  1850.68  1862.84
                             1886.90  1910.59  1957.06  1968.46  2013.06
                             2023.00  2061.08  2102.58  2155.02  2166.43
                             2174.36  2177.53  2183.99  2207.52  2212.25
                             2307.52  2613.19  4207.69  4396.74  4406.90
                             4417.82  4420.62  4428.74  4460.27  4493.80
                             4502.66  4515.15  4519.05  4582.61  4752.16

 Zero-point correction=                           0.220042 (Hartree/Particle)
 Thermal correction to Energy=                    0.233768
 Thermal correction to Enthalpy=                  0.234712
 Thermal correction to Gibbs Free Energy=         0.177547
 Sum of electronic and zero-point Energies=           -988.247451
 Sum of electronic and thermal Energies=              -988.233725
 Sum of electronic and thermal Enthalpies=            -988.232781
 Sum of electronic and thermal Free Energies=         -988.289946

                     E (Thermal)             CV                S
                      KCal/Mol        Cal/Mol-Kelvin    Cal/Mol-Kelvin
 Total                  146.692             50.076            120.314
 Electronic               0.000              0.000              0.000
 Translational            0.889              2.981             41.945
 Rotational               0.889              2.981             31.983
 Vibrational            144.914             44.114             46.386
 Vibration     1          0.593              1.985              6.369
 Vibration     2          0.594              1.981              5.194
 Vibration     3          0.598              1.969              4.206
 Vibration     4          0.600              1.962              3.859
 Vibration     5          0.602              1.954              3.603
 Vibration     6          0.605              1.945              3.360
 Vibration     7          0.627              1.875              2.398
 Vibration     8          0.638              1.840              2.133
 Vibration     9          0.648              1.808              1.944
 Vibration    10          0.669              1.745              1.657
 Vibration    11          0.690              1.682              1.442
 Vibration    12          0.713              1.614              1.256
 Vibration    13          0.717              1.603              1.230
 Vibration    14          0.748              1.517              1.046
 Vibration    15          0.776              1.443              0.917
 Vibration    16          0.833              1.302              0.719
 Vibration    17          0.892              1.168              0.572
 Vibration    18          0.901              1.149              0.553
 Vibration    19          0.969              1.010              0.433

                           ! Non-Optimized Parameters !
 Normal termination of Gaussian 16 at Thu Dec 10 10:33:23 2020.

 ----------------------------------------------------------------------
 # B3LYP/6-311++G(d,p) empiricaldispersion=gd3bj scf=xqc pop=npa geom=c
 heck
 ----------------------------------------------------------------------

 ---------------------------------------
 CID_130641351_JID_4604_Energie_neutraal
 ---------------------------------------
 Structure from the checkpoint file:  "JID_4604.chk"
 Charge =  0 Multiplicity = 1

 SCF Done:  E(RB3LYP) =  -988.655404647     A.U. after   15 cycles
 Normal termination of Gaussian 16 at Thu Dec 10 10:37:18 2020.

 ----------------------------------------------------------------------
 # B3LYP/6-311++G(d,p) empiricaldispersion=gd3bj scf=xqc pop=npa geom=c
 heck
 ----------------------------------------------------------------------

 -------------------------------------
 CID_130641351_JID_4604_Energie_kation
 -------------------------------------
 Structure from the checkpoint file:  "JID_4604.chk"
 Charge =  1 Multiplicity = 2

 SCF Done:  E(UB3LYP) =  -988.345611020     A.U. after   26 cycles
 Normal termination of Gaussian 16 at Thu Dec 10 10:44:21 2020.
 Gaussian 16:  ES64L-G16RevA.03 25-Dec-2016

 ----------------------------------------------------------------------
 # B3LYP/6-311++G(d,p) empiricaldispersion=gd3bj scf=xqc pop=npa geom=c
 heck
 ----------------------------------------------------------------------

 ------------------------------------
 CID_130641351_JID_4604_Energie_anion
 ------------------------------------
 Structure from the checkpoint file:  "JID_4604.chk"
 Charge = -1 Multiplicity = 2

                         Standard orientation:
 ---------------------------------------------------------------------
 Center     Atomic      Atomic             Coordinates (Angstroms)
 Number     Number       Type             X           Y           Z
 ---------------------------------------------------------------------
      1          6           0       -4.284737    0.370884   -0.740842
      2          7           0       -3.034909   -0.084481   -0.162473
      3          6           0       -1.958155   -0.639209   -0.772313
      4          6           0       -1.068969   -0.895610    0.251079
      5          7           0       -1.648952   -0.481979    1.420227
      6          7           0       -2.834651    0.006939    1.172564
      7          6           0        0.308713   -1.467781    0.200935
      8          6           0        1.430790   -0.410121    0.145219
      9          6           0        1.468977    0.521219    1.381733
     10          6           0        1.939383    1.916015    0.959043
     11          6           0        1.189345    2.250495   -0.330244
     12         16           0        1.269530    0.716104   -1.343690
     13          6           0        2.782672   -1.076310   -0.062674
     14          8           0        2.938262   -2.227845   -0.403993
     15          1           0       -4.880422    0.786683    0.072132
     16          1           0       -4.098128    1.142596   -1.493166
     17          1           0       -4.822843   -0.463455   -1.200275
     18          1           0       -1.902064   -0.792036   -1.838525
     19          1           0        0.475220   -2.079880    1.095150
     20          1           0        0.417648   -2.135898   -0.656785
     21          1           0        0.461100    0.575789    1.802901
     22          1           0        2.117575    0.090174    2.154768
     23          1           0        1.737610    2.658743    1.739742
     24          1           0        3.017803    1.921791    0.764002
     25          1           0        0.142135    2.496679   -0.129329
     26          1           0        1.646184    3.067636   -0.893855
     27          1           0        3.651070   -0.404570    0.110368
 ---------------------------------------------------------------------

 SCF Done:  E(UB3LYP) =  -988.648933075     A.U. after   33 cycles
 SCF Done:  E(UB3LYP) =  -988.648933075     a.u. after    1 cycles

 The electronic state is 2-A.
 Alpha  occ. eigenvalues --  -88.73376 -18.99169 -14.30144 -14.26428 -14.22838
 Alpha  occ. eigenvalues --  -10.12407 -10.11159 -10.11079 -10.10899 -10.10372
 Alpha  occ. eigenvalues --  -10.09774 -10.08790 -10.07941 -10.07934  -7.82024
 Alpha  occ. eigenvalues --   -5.78408  -5.78059  -5.77389  -0.99410  -0.92639
 Alpha  occ. eigenvalues --   -0.81520  -0.75931  -0.71610  -0.66928  -0.63522
 Alpha  occ. eigenvalues --   -0.62839  -0.59155  -0.52151  -0.50565  -0.49884
 Alpha  occ. eigenvalues --   -0.48535  -0.43530  -0.41401  -0.39131  -0.38482
 Alpha  occ. eigenvalues --   -0.38199  -0.36160  -0.35512  -0.33093  -0.32264
 Alpha  occ. eigenvalues --   -0.31897  -0.31387  -0.30588  -0.29803  -0.27408
 Alpha  occ. eigenvalues --   -0.26538  -0.26035  -0.24970  -0.23916  -0.22750
 Alpha  occ. eigenvalues --   -0.20800  -0.18841  -0.17355  -0.15924  -0.13970
 Alpha  occ. eigenvalues --   -0.12272   0.04383
 Alpha virt. eigenvalues --    0.05934   0.06907   0.08018   0.08735   0.09152
 Alpha virt. eigenvalues --    0.09469   0.10077   0.10409   0.10832   0.11624
 Alpha virt. eigenvalues --    0.11710   0.12400   0.13136   0.13457   0.13811

  Beta  occ. eigenvalues --  -88.73340 -18.98898 -14.30139 -14.26414 -14.22837
  Beta  occ. eigenvalues --  -10.12137 -10.11085 -10.11070 -10.10887 -10.10368
  Beta  occ. eigenvalues --  -10.09774 -10.08780 -10.07933 -10.07928  -7.81985
  Beta  occ. eigenvalues --   -5.78330  -5.78027  -5.77365  -0.99397  -0.92115
  Beta  occ. eigenvalues --   -0.81503  -0.75854  -0.71594  -0.66850  -0.63425
  Beta  occ. eigenvalues --   -0.62751  -0.59055  -0.51908  -0.50361  -0.49820
  Beta  occ. eigenvalues --   -0.48422  -0.43349  -0.41319  -0.39057  -0.38399
  Beta  occ. eigenvalues --   -0.38118  -0.36109  -0.35467  -0.32844  -0.32155
  Beta  occ. eigenvalues --   -0.31642  -0.31329  -0.30503  -0.29707  -0.26659
  Beta  occ. eigenvalues --   -0.26362  -0.25920  -0.24896  -0.23453  -0.22685
  Beta  occ. eigenvalues --   -0.20616  -0.18814  -0.17342  -0.15859  -0.13834
  Beta  occ. eigenvalues --   -0.12107
  Beta virt. eigenvalues --    0.06747   0.07539   0.07935   0.08759   0.08986
  Beta virt. eigenvalues --    0.09485   0.09783   0.10255   0.10888   0.11361
  Beta virt. eigenvalues --    0.11700   0.12266   0.12629   0.13184   0.13671

 Mulliken charges and spin densities:
               1          2
     1  C    1.975881  -2.245710
     2  N   -0.034867   0.270411
     3  C   -0.059627  -0.422024
     4  C   -0.309420   0.372163
     5  N   -0.142508  -0.041214
     6  N   -0.122256   0.144935
     7  C   -0.444680  -0.204217
     8  C    0.731853   0.109930
     9  C   -0.688989  -0.022914
    10  C   -0.695506   0.147663
    11  C   -0.204758  -0.277177
    12  S    0.098648  -0.097513
    13  C   -0.105918   0.216437
    14  O   -0.305524   0.083936
    15  H   -0.240889   0.405895
    16  H   -0.828480   1.023566
    17  H   -0.676714   0.856163
    18  H   -0.293837   0.456765
    19  H    0.204102   0.000753
    20  H    0.220664  -0.002120
    21  H    0.241339  -0.002285
    22  H    0.145491   0.028757
    23  H    0.135593   0.003417
    24  H    0.133968   0.000230
    25  H    0.165315   0.026836
    26  H    0.037200   0.175721
    27  H    0.063919  -0.008406
 Sum of Mulliken charges =  -1.00000   1.00000

 Dipole moment (field-independent basis, Debye):
    X=              7.0520    Y=              1.3428    Z=              4.2340  Tot=              8.3343
 Quadrupole moment (field-independent basis, Debye-Ang):
   XX=           -175.8514   YY=           -119.8597   ZZ=           -126.1301
   XY=             17.5706   XZ=             -7.5497   YZ=              5.5086

 Summary of Natural Population Analysis:

                                       Natural Population
                Natural  -----------------------------------------------
    Atom  No    Charge         Core      Valence    Rydberg      Total
 -----------------------------------------------------------------------
      C    1   -0.17568      0.99963     2.16773    0.00831     3.17568
      N    2   -0.10053      0.99967     2.58746    0.01340     3.60053
      C    3   -0.01421      0.99947     2.00347    0.01128     3.01421
      C    4    0.04414      0.99956     1.94105    0.01525     2.95586
      N    5   -0.15295      0.99971     2.63922    0.01402     3.65295
      N    6   -0.04807      0.99978     2.53215    0.01614     3.54807
      C    7   -0.21132      0.99951     2.19900    0.01281     3.21132
      C    8   -0.11754      0.99954     2.10319    0.01481     3.11754
      C    9   -0.20172      0.99958     2.19186    0.01029     3.20172
      C   10   -0.19378      0.99963     2.18605    0.00810     3.19378
      C   11   -0.24911      0.99961     2.23887    0.01064     3.24911
      S   12    0.10914      4.99960     2.87375    0.01751     7.89086
      C   13    0.24929      0.99963     1.72853    0.02254     2.75071
      O   14   -0.26501      0.99988     3.25784    0.00729     4.26501
      H   15    0.10930      0.00000     0.38858    0.00212     0.39070
      H   16    0.10774      0.00000     0.38501    0.00725     0.39226
      H   17    0.10282      0.00000     0.39430    0.00287     0.39718
      H   18    0.11400      0.00000     0.38480    0.00120     0.38600
      H   19    0.11201      0.00000     0.38679    0.00120     0.38799
      H   20    0.11655      0.00000     0.38239    0.00106     0.38345
      H   21    0.11763      0.00000     0.38120    0.00117     0.38237
      H   22    0.10385      0.00000     0.39531    0.00084     0.39615
      H   23    0.09946      0.00000     0.39958    0.00095     0.40054
      H   24    0.09670      0.00000     0.40227    0.00103     0.40330
      H   25    0.10088      0.00000     0.39752    0.00160     0.39912
      H   26    0.10323      0.00000     0.39550    0.00127     0.39677
      H   27    0.04318      0.00000     0.45491    0.00190     0.45682
 =======================================================================
   * Total *    0.00002     17.99480    37.79833    0.20685    55.99998

 Normal termination of Gaussian 16 at Thu Dec 10 10:53:03 2020.
