 Gaussian 16, Revision A.03,

 -----------------------------------------------------------
 # opt freq B3LYP/6-31G(d) empiricaldispersion=gd3bj scf=xqc
 -----------------------------------------------------------

 ------------------------------
 CID_79743995_JID_5196_neutraal
 ------------------------------
 Symbolic Z-matrix:
 Charge =  0 Multiplicity = 1

 SCF Done:  E(RB3LYP) =  -671.333656734     A.U. after   14 cycles
 SCF Done:  E(RB3LYP) =  -671.337470308     A.U. after   12 cycles
 SCF Done:  E(RB3LYP) =  -671.338671229     A.U. after   11 cycles
 SCF Done:  E(RB3LYP) =  -671.339064116     A.U. after   12 cycles
 SCF Done:  E(RB3LYP) =  -671.339395389     A.U. after   10 cycles
 SCF Done:  E(RB3LYP) =  -671.339542144     A.U. after   10 cycles
 SCF Done:  E(RB3LYP) =  -671.339631427     A.U. after   11 cycles
 SCF Done:  E(RB3LYP) =  -671.339720845     A.U. after   10 cycles
 SCF Done:  E(RB3LYP) =  -671.339876160     A.U. after   12 cycles
 SCF Done:  E(RB3LYP) =  -671.340016136     A.U. after   12 cycles
 SCF Done:  E(RB3LYP) =  -671.342083928     A.U. after   10 cycles
 SCF Done:  E(RB3LYP) =  -671.342074572     A.U. after    9 cycles
 SCF Done:  E(RB3LYP) =  -671.342084935     A.U. after   10 cycles
 SCF Done:  E(RB3LYP) =  -671.342084980     A.U. after    7 cycles
 SCF Done:  E(RB3LYP) =  -671.342085105     A.U. after    7 cycles
 SCF Done:  E(RB3LYP) =  -671.342085133     A.U. after    6 cycles
 Optimization completed.
    -- Stationary point found.
 Normal termination of Gaussian 16 at Thu Dec 10 15:13:35 2020.

 --------------------------------------------------------------------
 #N Geom=AllCheck Guess=TCheck SCRF=Check GenChk RB3LYP/6-31G(d) Freq
 --------------------------------------------------------------------

 Structure from the checkpoint file:  "JID_5196.chk"
 ------------------------------
 CID_79743995_JID_5196_neutraal
 ------------------------------
 Charge =  0 Multiplicity = 1

 SCF Done:  E(RB3LYP) =  -671.342085133     A.U. after    1 cycles

  Exact polarizability: 157.287   0.244 146.946  -3.322   4.906 100.547
 Approx polarizability: 209.495   1.144 212.424  -6.860  12.359 154.940

                      1                      2                      3
                      A                      A                      A
 Frequencies --     27.8239                49.5492                83.6790
 Red. masses --      3.9715                 3.5659                 3.2531
 Frc consts  --      0.0018                 0.0052                 0.0134
 IR Inten    --      0.6996                 0.2895                 2.0717

                      4                      5                      6
                      A                      A                      A
 Frequencies --     94.7000                97.1658               106.1829
 Red. masses --      2.7082                 2.6909                 2.7979
 Frc consts  --      0.0143                 0.0150                 0.0186
 IR Inten    --      4.6176                 1.3527                 2.5185

                      7                      8                      9
                      A                      A                      A
 Frequencies --    137.2076               149.2894               197.9793
 Red. masses --      3.0566                 3.0814                 1.8840
 Frc consts  --      0.0339                 0.0405                 0.0435
 IR Inten    --      0.6589                 0.2458                 0.6870

                     10                     11                     12
                      A                      A                      A
 Frequencies --    216.2071               246.2812               253.5191
 Red. masses --      1.4581                 1.5115                 1.2863
 Frc consts  --      0.0402                 0.0540                 0.0487
 IR Inten    --      0.0925                 0.5206                 1.3855

                     13                     14                     15
                      A                      A                      A
 Frequencies --    258.9353               274.3877               295.3439
 Red. masses --      1.6982                 2.7840                 3.5307
 Frc consts  --      0.0671                 0.1235                 0.1815
 IR Inten    --      4.7944                 2.6885                 3.1419

                     16                     17                     18
                      A                      A                      A
 Frequencies --    334.1004               343.8757               373.4062
 Red. masses --      2.4265                 2.5141                 2.2650
 Frc consts  --      0.1596                 0.1752                 0.1861
 IR Inten    --      1.7997                 4.4227                 7.1510

                     19                     20                     21
                      A                      A                      A
 Frequencies --    399.9627               420.4261               454.5483
 Red. masses --      1.4944                 1.9407                 2.7334
 Frc consts  --      0.1409                 0.2021                 0.3327
 IR Inten    --     27.3882                 0.4814                 2.6487

                     22                     23                     24
                      A                      A                      A
 Frequencies --    460.7217               509.3178               587.4245
 Red. masses --      1.9855                 2.7473                 2.4759
 Frc consts  --      0.2483                 0.4199                 0.5034
 IR Inten    --     27.6622                 3.9532                 0.7617

                     25                     26                     27
                      A                      A                      A
 Frequencies --    631.4949               661.8412               695.3547
 Red. masses --      4.1395                 3.8820                 3.0213
 Frc consts  --      0.9726                 1.0019                 0.8607
 IR Inten    --      3.1847                 2.1366                13.4870

                     28                     29                     30
                      A                      A                      A
 Frequencies --    716.2291               766.7137               798.6258
 Red. masses --      1.4218                 3.1043                 2.3720
 Frc consts  --      0.4297                 1.0752                 0.8913
 IR Inten    --     19.2891                 0.0656                 8.3588

                     31                     32                     33
                      A                      A                      A
 Frequencies --    813.6370               835.2666               842.9724
 Red. masses --      1.5390                 2.2327                 1.2907
 Frc consts  --      0.6003                 0.9178                 0.5404
 IR Inten    --      3.4126                29.6011                 3.7333

                     34                     35                     36
                      A                      A                      A
 Frequencies --    871.5380               904.7567               928.0600
 Red. masses --      1.6664                 1.8565                 2.0812
 Frc consts  --      0.7458                 0.8954                 1.0561
 IR Inten    --     95.1465                 0.3216                38.3752

                     37                     38                     39
                      A                      A                      A
 Frequencies --    940.5926               973.8631               987.1044
 Red. masses --      5.1769                 1.8982                 2.2313
 Frc consts  --      2.6985                 1.0607                 1.2810
 IR Inten    --      1.4152                22.3724                 1.7630

                     40                     41                     42
                      A                      A                      A
 Frequencies --    996.7857              1048.9380              1059.4415
 Red. masses --      1.9176                 1.5117                 2.1947
 Frc consts  --      1.1226                 0.9800                 1.4514
 IR Inten    --     12.3860                 8.4147                15.3650

                     43                     44                     45
                      A                      A                      A
 Frequencies --   1087.4797              1095.4613              1111.3870
 Red. masses --      1.8741                 1.8984                 1.7575
 Frc consts  --      1.3058                 1.3423                 1.2790
 IR Inten    --     11.1005                16.1468                 2.3317

                     46                     47                     48
                      A                      A                      A
 Frequencies --   1129.8998              1149.9772              1162.5940
 Red. masses --      1.4996                 1.7215                 4.4421
 Frc consts  --      1.1280                 1.3413                 3.5375
 IR Inten    --      5.2505                 1.6182               138.9785

                     49                     50                     51
                      A                      A                      A
 Frequencies --   1187.1396              1198.9022              1210.3406
 Red. masses --      1.4014                 1.8270                 1.9875
 Frc consts  --      1.1636                 1.5473                 1.7154
 IR Inten    --      3.6866                 4.8926                44.2811

                     52                     53                     54
                      A                      A                      A
 Frequencies --   1212.2414              1229.3475              1281.0346
 Red. masses --      2.7035                 1.5866                 1.6991
 Frc consts  --      2.3407                 1.4127                 1.6428
 IR Inten    --      1.1814                20.4514                31.4040

                     55                     56                     57
                      A                      A                      A
 Frequencies --   1287.7415              1300.0137              1307.9396
 Red. masses --      1.2177                 1.4158                 2.9339
 Frc consts  --      1.1898                 1.4098                 2.9571
 IR Inten    --      1.9702                 2.7802                32.2244

                     58                     59                     60
                      A                      A                      A
 Frequencies --   1325.0247              1355.2996              1373.7564
 Red. masses --      1.4477                 1.4888                 1.3733
 Frc consts  --      1.4976                 1.6112                 1.5270
 IR Inten    --     22.7727                 6.4707                12.7315

                     61                     62                     63
                      A                      A                      A
 Frequencies --   1396.1069              1420.7615              1430.6819
 Red. masses --      1.8328                 1.7005                 1.4338
 Frc consts  --      2.1047                 2.0224                 1.7291
 IR Inten    --     16.2760                 7.4056                 4.3175

                     64                     65                     66
                      A                      A                      A
 Frequencies --   1439.4425              1441.3453              1448.1252
 Red. masses --      1.2818                 1.3049                 1.3972
 Frc consts  --      1.5648                 1.5973                 1.7263
 IR Inten    --      2.3944                50.6969                 6.1282

                     67                     68                     69
                      A                      A                      A
 Frequencies --   1469.5782              1497.7954              1503.0512
 Red. masses --      2.8035                 1.0926                 1.1632
 Frc consts  --      3.5673                 1.4441                 1.5483
 IR Inten    --     22.3310                 5.6764                 0.9779

                     70                     71                     72
                      A                      A                      A
 Frequencies --   1512.0376              1514.0119              1518.6725
 Red. masses --      1.1722                 1.0522                 1.3907
 Frc consts  --      1.5790                 1.4211                 1.8898
 IR Inten    --      7.3569                 4.2680                 7.0929

                     73                     74                     75
                      A                      A                      A
 Frequencies --   1523.2759              1524.0680              1527.9932
 Red. masses --      1.1240                 1.0808                 1.0900
 Frc consts  --      1.5366                 1.4792                 1.4994
 IR Inten    --      5.4129                 1.4489                 3.5874

                     76                     77                     78
                      A                      A                      A
 Frequencies --   1532.6592              1535.5270              1547.1056
 Red. masses --      1.3603                 1.1032                 1.2870
 Frc consts  --      1.8827                 1.5326                 1.8150
 IR Inten    --      3.0064                18.5377                10.3948

                     79                     80                     81
                      A                      A                      A
 Frequencies --   1562.1621              1574.3452              1691.0060
 Red. masses --      1.0858                 5.2646                 1.0920
 Frc consts  --      1.5612                 7.6881                 1.8398
 IR Inten    --      1.8218                13.2054                36.2459

                     82                     83                     84
                      A                      A                      A
 Frequencies --   2985.6471              2999.2488              3012.9950
 Red. masses --      1.0513                 1.0416                 1.1059
 Frc consts  --      5.5215                 5.5205                 5.9150
 IR Inten    --     23.4854                86.5113                70.6817

                     85                     86                     87
                      A                      A                      A
 Frequencies --   3044.5741              3052.0725              3054.2184
 Red. masses --      1.1043                 1.0526                 1.0715
 Frc consts  --      6.0310                 5.7770                 5.8892
 IR Inten    --     57.5052                 8.6246                36.9230

                     88                     89                     90
                      A                      A                      A
 Frequencies --   3057.6848              3063.6693              3076.6898
 Red. masses --      1.0467                 1.0357                 1.0626
 Frc consts  --      5.7660                 5.7276                 5.9262
 IR Inten    --     43.1264                17.1201                20.4377

                     91                     92                     93
                      A                      A                      A
 Frequencies --   3104.3124              3124.1877              3126.9280
 Red. masses --      1.1010                 1.0998                 1.1010
 Frc consts  --      6.2516                 6.3248                 6.3430
 IR Inten    --     16.5436                25.6996                29.6996

                     94                     95                     96
                      A                      A                      A
 Frequencies --   3129.0117              3137.7026              3139.6107
 Red. masses --      1.1013                 1.0977                 1.1033
 Frc consts  --      6.3529                 6.3674                 6.4076
 IR Inten    --     10.0278                24.9831                19.0035

                     97                     98                     99
                      A                      A                      A
 Frequencies --   3140.9882              3158.3873              3255.9239
 Red. masses --      1.0994                 1.0963                 1.0919
 Frc consts  --      6.3907                 6.4435                 6.8198
 IR Inten    --     28.4067                12.0076                11.0985

                    100                    101                    102
                      A                      A                      A
 Frequencies --   3287.8837              3480.0812              3580.4573
 Red. masses --      1.1030                 1.0487                 1.0928
 Frc consts  --      7.0253                 7.4828                 8.2544
 IR Inten    --      5.5909                 9.3198                 6.3708

 - Thermochemistry -
 -------------------
 Temperature   298.150 Kelvin.  Pressure   1.00000 Atm.
 Atom     1 has atomic number  6 and mass  12.00000

 Molecular mass:   211.16846 amu.
 Principal axes and moments of inertia in atomic units:
                           1         2         3
     Eigenvalues --  2206.181603955.854255303.74884
           X            0.99981  -0.01070  -0.01642
           Y            0.01071   0.99994   0.00046
           Z            0.01641  -0.00064   0.99987
 This molecule is an asymmetric top.
 Rotational symmetry number  1.
 Warning -- assumption of classical behavior for rotation
           may cause significant error
 Rotational temperatures (Kelvin)      0.03926     0.02190     0.01633
 Rotational constants (GHZ):           0.81804     0.45622     0.34028
 Zero-point vibrational energy     846195.6 (Joules/Mol)
                                  202.24560 (Kcal/Mol)
 Warning -- explicit consideration of  24 degrees of freedom as
           vibrations may cause significant error
 Vibrational temperatures:     40.03    71.29   120.40   136.25   139.80
          (Kelvin)            152.77   197.41   214.79   284.85   311.07
                              354.34   364.76   372.55   394.78   424.93
                              480.70   494.76   537.25   575.46   604.90
                              653.99   662.88   732.79   845.17   908.58
                              952.24  1000.46  1030.49  1103.13  1149.04
                             1170.64  1201.76  1212.85  1253.95  1301.74
                             1335.27  1353.30  1401.17  1420.22  1434.15
                             1509.19  1524.30  1564.64  1576.12  1599.04
                             1625.67  1654.56  1672.71  1708.03  1724.95
                             1741.41  1744.14  1768.76  1843.12  1852.77
                             1870.43  1881.83  1906.42  1949.97  1976.53
                             2008.69  2044.16  2058.43  2071.04  2073.77
                             2083.53  2114.40  2154.99  2162.56  2175.48
                             2178.33  2185.03  2191.65  2192.79  2198.44
                             2205.15  2209.28  2225.94  2247.60  2265.13
                             2432.98  4295.68  4315.25  4335.03  4380.46
                             4391.25  4394.34  4399.33  4407.94  4426.67
                             4466.41  4495.01  4498.95  4501.95  4514.45
                             4517.20  4519.18  4544.21  4684.55  4730.53
                             5007.06  5151.48

 Zero-point correction=                           0.322299 (Hartree/Particle)
 Thermal correction to Energy=                    0.338794
 Thermal correction to Enthalpy=                  0.339738
 Thermal correction to Gibbs Free Energy=         0.278305
 Sum of electronic and zero-point Energies=           -671.019786
 Sum of electronic and thermal Energies=              -671.003291
 Sum of electronic and thermal Enthalpies=            -671.002347
 Sum of electronic and thermal Free Energies=         -671.063780

                     E (Thermal)             CV                S
                      KCal/Mol        Cal/Mol-Kelvin    Cal/Mol-Kelvin
 Total                  212.596             62.052            129.297
 Electronic               0.000              0.000              0.000
 Translational            0.889              2.981             41.946
 Rotational               0.889              2.981             32.204
 Vibrational            210.819             56.090             55.147
 Vibration     1          0.593              1.984              5.979
 Vibration     2          0.595              1.978              4.835
 Vibration     3          0.601              1.960              3.803
 Vibration     4          0.603              1.953              3.561
 Vibration     5          0.603              1.951              3.510
 Vibration     6          0.605              1.944              3.338
 Vibration     7          0.614              1.916              2.842
 Vibration     8          0.618              1.903              2.681
 Vibration     9          0.637              1.843              2.152
 Vibration    10          0.645              1.816              1.991
 Vibration    11          0.661              1.769              1.757
 Vibration    12          0.665              1.757              1.706
 Vibration    13          0.668              1.748              1.669
 Vibration    14          0.677              1.721              1.568
 Vibration    15          0.690              1.682              1.443
 Vibration    16          0.716              1.607              1.240
 Vibration    17          0.723              1.588              1.194
 Vibration    18          0.745              1.527              1.066
 Vibration    19          0.766              1.470              0.963
 Vibration    20          0.783              1.426              0.891
 Vibration    21          0.813              1.351              0.782
 Vibration    22          0.819              1.337              0.764
 Vibration    23          0.864              1.229              0.635
 Vibration    24          0.945              1.059              0.472

 Optimization completed.
    -- Stationary point found.
 Normal termination of Gaussian 16 at Thu Dec 10 15:26:38 2020.

 ----------------------------------------------------------------------
 # B3LYP/6-311++G(d,p) empiricaldispersion=gd3bj scf=xqc pop=npa geom=c
 heck
 ----------------------------------------------------------------------

 --------------------------------------
 CID_79743995_JID_5196_Energie_neutraal
 --------------------------------------
 Structure from the checkpoint file:  "JID_5196.chk"
 Charge =  0 Multiplicity = 1

 SCF Done:  E(RB3LYP) =  -671.536961166     A.U. after   15 cycles
 Normal termination of Gaussian 16 at Thu Dec 10 15:33:14 2020.

 ----------------------------------------------------------------------
 # B3LYP/6-311++G(d,p) empiricaldispersion=gd3bj scf=xqc pop=npa geom=c
 heck
 ----------------------------------------------------------------------

 ------------------------------------
 CID_79743995_JID_5196_Energie_kation
 ------------------------------------
 Structure from the checkpoint file:  "JID_5196.chk"
 Charge =  1 Multiplicity = 2

 SCF Done:  E(UB3LYP) =  -671.249706141     A.U. after   24 cycles
 Normal termination of Gaussian 16 at Thu Dec 10 15:49:06 2020.
 Gaussian 16:  ES64L-G16RevA.03 25-Dec-2016

 ----------------------------------------------------------------------
 # B3LYP/6-311++G(d,p) empiricaldispersion=gd3bj scf=xqc pop=npa geom=c
 heck
 ----------------------------------------------------------------------

 -----------------------------------
 CID_79743995_JID_5196_Energie_anion
 -----------------------------------
 Structure from the checkpoint file:  "JID_5196.chk"
 Charge = -1 Multiplicity = 2

                         Standard orientation:
 ---------------------------------------------------------------------
 Center     Atomic      Atomic             Coordinates (Angstroms)
 Number     Number       Type             X           Y           Z
 ---------------------------------------------------------------------
      1          6           0       -1.159553    2.653065    1.155732
      2          6           0       -1.028290    1.978570   -0.209460
      3          7           0       -1.831476    0.763312   -0.317341
      4          6           0       -3.204495    0.705626   -0.146446
      5          6           0       -3.551082   -0.603160   -0.360236
      6          7           0       -2.437728   -1.352446   -0.664424
      7          6           0       -1.414648   -0.512595   -0.640269
      8          6           0        0.009520   -0.886780   -0.891678
      9          6           0        0.766914   -1.399667    0.380693
     10          6           0        0.234204   -2.788768    0.756546
     11          6           0        2.284571   -1.499976    0.097366
     12          6           0        2.938266   -0.315130   -0.609025
     13          8           0        2.584725    0.908994    0.027312
     14          6           0        3.229515    2.025643   -0.548478
     15          7           0        0.598623   -0.540038    1.562083
     16          1           0       -2.190649    2.959513    1.356895
     17          1           0       -0.528368    3.547535    1.191203
     18          1           0       -0.843963    1.976017    1.954774
     19          1           0       -1.328072    2.671378   -1.005510
     20          1           0        0.013130    1.705824   -0.383701
     21          1           0       -3.783551    1.583483    0.096908
     22          1           0       -4.535678   -1.048965   -0.317075
     23          1           0        0.016682   -1.670620   -1.656503
     24          1           0        0.539249   -0.027870   -1.309578
     25          1           0        0.379177   -3.501333   -0.063065
     26          1           0        0.753200   -3.156297    1.647105
     27          1           0       -0.839148   -2.743957    0.965101
     28          1           0        2.775962   -1.665846    1.062040
     29          1           0        2.482035   -2.382223   -0.524972
     30          1           0        4.033368   -0.436997   -0.592840
     31          1           0        2.638150   -0.272255   -1.668567
     32          1           0        4.324073    1.944735   -0.464402
     33          1           0        2.970741    2.138271   -1.613331
     34          1           0        2.894384    2.911456   -0.003002
     35          1           0       -0.393174   -0.413874    1.755226
     36          1           0        1.009179    0.373314    1.384099
 ---------------------------------------------------------------------

 SCF Done:  E(UB3LYP) =  -671.526969485     A.U. after   32 cycles

 The electronic state is 2-A.
 Alpha  occ. eigenvalues --  -19.03750 -14.27342 -14.19520 -14.18909 -10.13154
 Alpha  occ. eigenvalues --  -10.12559 -10.11921 -10.11886 -10.11232 -10.10026
 Alpha  occ. eigenvalues --  -10.08912 -10.08147 -10.07741 -10.07418 -10.06177
 Alpha  occ. eigenvalues --   -0.94839  -0.92156  -0.79992  -0.79189  -0.69290
 Alpha  occ. eigenvalues --   -0.67769  -0.66648  -0.63689  -0.59572  -0.58214
 Alpha  occ. eigenvalues --   -0.55534  -0.52884  -0.50379  -0.47067  -0.44899
 Alpha  occ. eigenvalues --   -0.42921  -0.40954  -0.39644  -0.38526  -0.37408
 Alpha  occ. eigenvalues --   -0.37088  -0.36684  -0.35426  -0.34385  -0.33600
 Alpha  occ. eigenvalues --   -0.32611  -0.31748  -0.30354  -0.29627  -0.29474
 Alpha  occ. eigenvalues --   -0.28556  -0.28088  -0.27546  -0.26915  -0.26187
 Alpha  occ. eigenvalues --   -0.24826  -0.24481  -0.22134  -0.17849  -0.17736
 Alpha  occ. eigenvalues --   -0.17442  -0.14880  -0.13156   0.04124
 Alpha virt. eigenvalues --    0.06102   0.07082   0.07936   0.08113   0.08596
 Alpha virt. eigenvalues --    0.08884   0.09916   0.10150   0.10678   0.10887
 Alpha virt. eigenvalues --    0.11336   0.11742   0.12193   0.12844   0.13071

  Beta  occ. eigenvalues --  -19.03739 -14.27344 -14.19519 -14.18905 -10.13150
  Beta  occ. eigenvalues --  -10.12534 -10.11894 -10.11884 -10.11172 -10.10011
  Beta  occ. eigenvalues --  -10.08909 -10.08138 -10.07734 -10.07380 -10.06175
  Beta  occ. eigenvalues --   -0.94822  -0.92150  -0.79983  -0.79177  -0.69273
  Beta  occ. eigenvalues --   -0.67742  -0.66610  -0.63666  -0.59550  -0.58136
  Beta  occ. eigenvalues --   -0.55468  -0.52814  -0.50363  -0.47041  -0.44869
  Beta  occ. eigenvalues --   -0.42896  -0.40902  -0.39615  -0.38486  -0.37371
  Beta  occ. eigenvalues --   -0.37052  -0.36666  -0.35394  -0.34359  -0.33575
  Beta  occ. eigenvalues --   -0.32584  -0.31715  -0.30335  -0.29589  -0.29448
  Beta  occ. eigenvalues --   -0.28517  -0.28064  -0.27521  -0.26888  -0.26160
  Beta  occ. eigenvalues --   -0.24790  -0.24462  -0.22090  -0.17842  -0.17727
  Beta  occ. eigenvalues --   -0.17414  -0.14870  -0.13132
  Beta virt. eigenvalues --    0.06495   0.06941   0.07625   0.08370   0.08670
  Beta virt. eigenvalues --    0.08997   0.09165   0.10345   0.10403   0.10871
  Beta virt. eigenvalues --    0.11242   0.11785   0.11915   0.12556   0.12953

 Mulliken charges and spin densities:
               1          2
     1  C    1.175626  -1.591870
     2  C   -1.017501   0.774836
     3  N    0.158294   0.003350
     4  C    0.444334  -0.482979
     5  C   -0.161659   0.190996
     6  N   -0.040033   0.023397
     7  C   -0.408725   0.197943
     8  C    0.116578  -1.160232
     9  C    0.040255   0.394451
    10  C   -0.460893  -0.122607
    11  C   -0.406780  -0.106215
    12  C   -0.128904  -0.288800
    13  O   -0.209853   0.068577
    14  C    1.168317  -1.384163
    15  N   -0.170297  -0.065876
    16  H   -0.040553   0.182865
    17  H   -0.414678   0.577414
    18  H   -0.089339   0.229870
    19  H   -0.789566   1.007675
    20  H    0.793091  -0.773157
    21  H   -0.301752   0.455327
    22  H    0.067204   0.082337
    23  H    0.034726   0.185134
    24  H    0.186787  -0.018707
    25  H    0.123356   0.003994
    26  H    0.095189   0.052072
    27  H    0.146998   0.006871
    28  H    0.181915   0.011641
    29  H   -0.009066   0.140384
    30  H   -0.348178   0.516491
    31  H    0.116342   0.053045
    32  H   -0.466383   0.595999
    33  H   -0.539479   0.683099
    34  H   -0.370482   0.520138
    35  H    0.287769  -0.016892
    36  H    0.237339   0.053593
 Sum of Mulliken charges =  -1.00000   1.00000

 Dipole moment (field-independent basis, Debye):
    X=             -2.9671    Y=             -6.8409    Z=              1.5493  Tot=              7.6159
 Quadrupole moment (field-independent basis, Debye-Ang):
   XX=           -162.4961   YY=           -157.5995   ZZ=           -130.1435
   XY=             -8.6158   XZ=              1.2674   YZ=              3.7901

 Summary of Natural Population Analysis:

                                       Natural Population
                Natural  -----------------------------------------------
    Atom  No    Charge         Core      Valence    Rydberg      Total
 -----------------------------------------------------------------------
      C    1   -0.28694      0.99966     2.28183    0.00545     3.28694
      C    2   -0.08810      0.99960     2.07656    0.01194     3.08810
      N    3   -0.20967      0.99961     2.69867    0.01139     3.70967
      C    4   -0.03874      0.99954     2.02743    0.01177     3.03874
      C    5   -0.03613      0.99958     2.02378    0.01277     3.03613
      N    6   -0.26638      0.99969     2.75773    0.00895     3.76638
      C    7    0.19748      0.99959     1.78366    0.01927     2.80252
      C    8   -0.22393      0.99955     2.21373    0.01066     3.22393
      C    9    0.06167      0.99958     1.92648    0.01227     2.93833
      C   10   -0.28786      0.99962     2.28209    0.00615     3.28786
      C   11   -0.20029      0.99957     2.18981    0.01091     3.20029
      C   12   -0.00887      0.99958     1.99697    0.01232     3.00887
      O   13   -0.30901      0.99988     3.29943    0.00970     4.30901
      C   14   -0.09638      0.99962     2.08731    0.00945     3.09638
      N   15   -0.43254      0.99975     2.92347    0.00933     3.93254
      H   16    0.09870      0.00000     0.39997    0.00133     0.40130
      H   17    0.10840      0.00000     0.39000    0.00160     0.39160
      H   18    0.09791      0.00000     0.40108    0.00101     0.40209
      H   19    0.09954      0.00000     0.39791    0.00255     0.40046
      H   20    0.10701      0.00000     0.39007    0.00292     0.39299
      H   21    0.10478      0.00000     0.39419    0.00103     0.39522
      H   22    0.09414      0.00000     0.40503    0.00084     0.40586
      H   23    0.11229      0.00000     0.38651    0.00120     0.38771
      H   24    0.10914      0.00000     0.38874    0.00211     0.39086
      H   25    0.09600      0.00000     0.40328    0.00072     0.40400
      H   26    0.10054      0.00000     0.39864    0.00082     0.39946
      H   27    0.10854      0.00000     0.39053    0.00093     0.39146
      H   28    0.10623      0.00000     0.39252    0.00124     0.39377
      H   29    0.10113      0.00000     0.39804    0.00083     0.39887
      H   30    0.08557      0.00000     0.41304    0.00139     0.41443
      H   31    0.07911      0.00000     0.41933    0.00157     0.42089
      H   32    0.08092      0.00000     0.41667    0.00241     0.41908
      H   33    0.08123      0.00000     0.41621    0.00257     0.41877
      H   34    0.09425      0.00000     0.40376    0.00199     0.40575
      H   35    0.17302      0.00000     0.32518    0.00180     0.32698
      H   36    0.18723      0.00000     0.30977    0.00300     0.31277
 =======================================================================
   * Total *    0.00000     14.99443    42.80941    0.19616    58.00000

 Normal termination of Gaussian 16 at Thu Dec 10 16:08:51 2020.
