 Gaussian 16, Revision A.03,

 -----------------------------------------------------------
 # opt freq B3LYP/6-31G(d) empiricaldispersion=gd3bj scf=xqc
 -----------------------------------------------------------

 ------------------------------
 CID_20722161_JID_6153_neutraal
 ------------------------------
 Symbolic Z-matrix:
 Charge =  0 Multiplicity = 1

 SCF Done:  E(RB3LYP) =  -806.180749285     A.U. after   15 cycles
 SCF Done:  E(RB3LYP) =  -806.184667432     A.U. after   12 cycles
 SCF Done:  E(RB3LYP) =  -806.184316327     A.U. after   13 cycles
 SCF Done:  E(RB3LYP) =  -806.186422830     A.U. after   12 cycles
 SCF Done:  E(RB3LYP) =  -806.186536722     A.U. after   12 cycles
 SCF Done:  E(RB3LYP) =  -806.184905332     A.U. after   13 cycles
 SCF Done:  E(RB3LYP) =  -806.186718764     A.U. after   12 cycles
 SCF Done:  E(RB3LYP) =  -806.186855569     A.U. after   12 cycles
 SCF Done:  E(RB3LYP) =  -806.186906077     A.U. after   11 cycles
 SCF Done:  E(RB3LYP) =  -806.186918727     A.U. after   11 cycles
 SCF Done:  E(RB3LYP) =  -806.186953211     A.U. after   10 cycles
 SCF Done:  E(RB3LYP) =  -806.186958139     A.U. after   10 cycles
 SCF Done:  E(RB3LYP) =  -806.186960909     A.U. after    9 cycles
 SCF Done:  E(RB3LYP) =  -806.186961244     A.U. after    8 cycles
 SCF Done:  E(RB3LYP) =  -806.186961325     A.U. after    7 cycles
 SCF Done:  E(RB3LYP) =  -806.186961348     A.U. after    7 cycles
 Optimization completed.
    -- Stationary point found.
 Normal termination of Gaussian 16 at Thu Dec 10 21:13:34 2020.

 --------------------------------------------------------------------
 #N Geom=AllCheck Guess=TCheck SCRF=Check GenChk RB3LYP/6-31G(d) Freq
 --------------------------------------------------------------------

 Structure from the checkpoint file:  "JID_6153.chk"
 ------------------------------
 CID_20722161_JID_6153_neutraal
 ------------------------------
 Charge =  0 Multiplicity = 1

 SCF Done:  E(RB3LYP) =  -806.186961348     A.U. after    1 cycles

  Exact polarizability: 145.521  -6.603 134.780 -18.935  -0.085 102.086
 Approx polarizability: 195.159 -14.194 192.065 -39.965   4.215 157.541

                      1                      2                      3
                      A                      A                      A
 Frequencies --     24.7750                33.8916                38.3133
 Red. masses --      4.0732                 3.3720                 2.9995
 Frc consts  --      0.0015                 0.0023                 0.0026
 IR Inten    --      0.4126                 0.1822                 0.0395

                      4                      5                      6
                      A                      A                      A
 Frequencies --     47.2501                60.2225                80.6125
 Red. masses --      5.1950                 4.2932                 4.8087
 Frc consts  --      0.0068                 0.0092                 0.0184
 IR Inten    --      0.5847                 1.0798                 0.5838

                      7                      8                      9
                      A                      A                      A
 Frequencies --    100.4535               104.3249               132.8922
 Red. masses --      6.4256                 5.2971                 2.6098
 Frc consts  --      0.0382                 0.0340                 0.0272
 IR Inten    --      4.2636                 0.5880                 1.7036

                     10                     11                     12
                      A                      A                      A
 Frequencies --    172.1484               179.0453               195.0617
 Red. masses --      1.1639                 1.9461                 3.5942
 Frc consts  --      0.0203                 0.0368                 0.0806
 IR Inten    --      0.9754                 0.6947                 1.4466

                     13                     14                     15
                      A                      A                      A
 Frequencies --    219.5400               258.4028               278.0616
 Red. masses --      3.2760                 1.6346                 4.4831
 Frc consts  --      0.0930                 0.0643                 0.2042
 IR Inten    --      3.7295                 4.9434                 9.5691

                     16                     17                     18
                      A                      A                      A
 Frequencies --    306.7203               311.9726               343.4749
 Red. masses --      2.0821                 4.1892                 3.8746
 Frc consts  --      0.1154                 0.2402                 0.2693
 IR Inten    --      6.4851                 3.9728                14.9627

                     19                     20                     21
                      A                      A                      A
 Frequencies --    365.8722               388.5940               403.5714
 Red. masses --      2.9365                 3.4546                 2.5835
 Frc consts  --      0.2316                 0.3074                 0.2479
 IR Inten    --      5.0734                 1.0700                 6.2770

                     22                     23                     24
                      A                      A                      A
 Frequencies --    421.0173               442.6263               491.2396
 Red. masses --      1.2388                 2.4018                 3.1606
 Frc consts  --      0.1294                 0.2772                 0.4494
 IR Inten    --     93.4350                25.6593                10.3634

                     25                     26                     27
                      A                      A                      A
 Frequencies --    545.5900               590.7346               607.6080
 Red. masses --      3.4437                 3.1874                 4.1251
 Frc consts  --      0.6040                 0.6553                 0.8973
 IR Inten    --      0.1045                 8.2911                 3.0805

                     28                     29                     30
                      A                      A                      A
 Frequencies --    636.6193               650.4567               690.2483
 Red. masses --      2.3149                 1.5915                 2.8855
 Frc consts  --      0.5528                 0.3967                 0.8100
 IR Inten    --      3.4673                16.0651                 3.9326

                     31                     32                     33
                      A                      A                      A
 Frequencies --    798.1937               824.8785               828.5901
 Red. masses --      1.5892                 2.6012                 3.4576
 Frc consts  --      0.5965                 1.0428                 1.3986
 IR Inten    --      8.4707                10.1343                 1.5737

                     34                     35                     36
                      A                      A                      A
 Frequencies --    854.8642               882.9887               899.7840
 Red. masses --      3.4073                 3.0148                 2.4888
 Frc consts  --      1.4671                 1.3849                 1.1872
 IR Inten    --      8.2272                 5.5156                 4.6039

                     37                     38                     39
                      A                      A                      A
 Frequencies --    920.9453               938.0067               969.1562
 Red. masses --      1.6232                 2.5989                 1.3400
 Frc consts  --      0.8111                 1.3473                 0.7416
 IR Inten    --      6.6657                 4.3169                32.8546

                     40                     41                     42
                      A                      A                      A
 Frequencies --    974.5453               988.4229              1034.3386
 Red. masses --      2.5812                 1.9901                 2.0677
 Frc consts  --      1.4444                 1.1455                 1.3033
 IR Inten    --     24.5526                 4.5700                 6.3963

                     43                     44                     45
                      A                      A                      A
 Frequencies --   1038.7516              1059.9217              1077.4035
 Red. masses --      2.1595                 2.3288                 1.7378
 Frc consts  --      1.3728                 1.5415                 1.1885
 IR Inten    --      9.9580                87.1214                 0.1882

                     46                     47                     48
                      A                      A                      A
 Frequencies --   1087.3920              1113.2845              1121.3033
 Red. masses --      1.4652                 1.9996                 2.5601
 Frc consts  --      1.0208                 1.4602                 1.8965
 IR Inten    --      0.7288                24.5305                99.5218

                     49                     50                     51
                      A                      A                      A
 Frequencies --   1138.3295              1151.8463              1188.2434
 Red. masses --      2.0145                 2.4023                 3.6091
 Frc consts  --      1.5380                 1.8779                 3.0023
 IR Inten    --     29.9789                 3.9290               367.0817

                     52                     53                     54
                      A                      A                      A
 Frequencies --   1222.3206              1266.7230              1274.1999
 Red. masses --      3.1176                 1.2862                 1.3654
 Frc consts  --      2.7443                 1.2160                 1.3062
 IR Inten    --    264.9439                 0.7341                85.9703

                     55                     56                     57
                      A                      A                      A
 Frequencies --   1305.9530              1311.2056              1318.5201
 Red. masses --      1.3020                 1.1740                 1.2231
 Frc consts  --      1.3084                 1.1892                 1.2528
 IR Inten    --      4.2387                 3.4487                33.3576

                     58                     59                     60
                      A                      A                      A
 Frequencies --   1353.4062              1374.4231              1395.6677
 Red. masses --      2.7901                 1.4229                 1.3860
 Frc consts  --      3.0111                 1.5837                 1.5907
 IR Inten    --    107.8839                10.1315                 2.8241

                     61                     62                     63
                      A                      A                      A
 Frequencies --   1406.3628              1419.1340              1435.0450
 Red. masses --      1.4564                 1.5022                 1.3827
 Frc consts  --      1.6972                 1.7824                 1.6777
 IR Inten    --     19.0807                36.1213                13.1875

                     64                     65                     66
                      A                      A                      A
 Frequencies --   1441.8187              1443.3562              1451.0558
 Red. masses --      1.2876                 1.3549                 1.3123
 Frc consts  --      1.5771                 1.6630                 1.6280
 IR Inten    --      8.7585                 4.5660                35.4110

                     67                     68                     69
                      A                      A                      A
 Frequencies --   1462.8136              1492.0969              1503.2546
 Red. masses --      1.2444                 1.0825                 1.0443
 Frc consts  --      1.5688                 1.4199                 1.3904
 IR Inten    --     11.2089                12.0876                 6.6289

                     70                     71                     72
                      A                      A                      A
 Frequencies --   1510.4050              1514.6634              1518.9502
 Red. masses --      1.0989                 1.0733                 1.0554
 Frc consts  --      1.4770                 1.4508                 1.4346
 IR Inten    --      8.8794                 4.7933                13.5737

                     73                     74                     75
                      A                      A                      A
 Frequencies --   1528.0681              1530.2340              1542.9370
 Red. masses --      1.0947                 1.0508                 1.0523
 Frc consts  --      1.5060                 1.4498                 1.4759
 IR Inten    --     19.9912                 7.5877                 5.3726

                     76                     77                     78
                      A                      A                      A
 Frequencies --   1720.9074              1795.4000              1815.2504
 Red. masses --      5.1593                11.2876                10.9302
 Frc consts  --      9.0024                21.4375                21.2204
 IR Inten    --     18.2612               244.4507               150.8052

                     79                     80                     81
                      A                      A                      A
 Frequencies --   3046.9706              3053.6521              3058.5217
 Red. masses --      1.0391                 1.0629                 1.0619
 Frc consts  --      5.6840                 5.8397                 5.8524
 IR Inten    --     28.5273                26.3639                 9.2329

                     82                     83                     84
                      A                      A                      A
 Frequencies --   3060.1916              3088.5092              3096.5830
 Red. masses --      1.0357                 1.1001                 1.0577
 Frc consts  --      5.7146                 6.1826                 5.9757
 IR Inten    --     13.4371                 2.4509                26.3565

                     85                     86                     87
                      A                      A                      A
 Frequencies --   3097.1851              3101.8264              3113.8384
 Red. masses --      1.0993                 1.0646                 1.1007
 Frc consts  --      6.2128                 6.0350                 6.2879
 IR Inten    --      8.9772                21.8169                50.3905

                     88                     89                     90
                      A                      A                      A
 Frequencies --   3117.0264              3132.2664              3134.9457
 Red. masses --      1.1003                 1.0892                 1.1018
 Frc consts  --      6.2986                 6.2963                 6.3798
 IR Inten    --     11.9054                 4.1298                32.2473

                     91                     92                     93
                      A                      A                      A
 Frequencies --   3144.5239              3156.1365              3178.7962
 Red. masses --      1.1038                 1.1076                 1.1016
 Frc consts  --      6.4306                 6.5008                 6.5583
 IR Inten    --     16.3013                22.2478                 7.7036

                     94                     95                     96
                      A                      A                      A
 Frequencies --   3180.8746              3271.4665              3716.5803
 Red. masses --      1.0618                 1.1145                 1.0657
 Frc consts  --      6.3296                 7.0279                 8.6732
 IR Inten    --      7.5363                 6.6533                12.1896

 - Thermochemistry -
 -------------------
 Temperature   298.150 Kelvin.  Pressure   1.00000 Atm.
 Atom     1 has atomic number  6 and mass  12.00000

 Molecular mass:   230.11542 amu.
 Principal axes and moments of inertia in atomic units:
                           1         2         3
     Eigenvalues --  2718.001895106.235266956.88576
           X            0.99993  -0.01066  -0.00580
           Y            0.01062   0.99991  -0.00791
           Z            0.00589   0.00785   0.99995
 This molecule is an asymmetric top.
 Rotational symmetry number  1.
 Warning -- assumption of classical behavior for rotation
           may cause significant error
 Rotational temperatures (Kelvin)      0.03187     0.01696     0.01245
 Rotational constants (GHZ):           0.66400     0.35344     0.25942
 Zero-point vibrational energy     754344.8 (Joules/Mol)
                                  180.29273 (Kcal/Mol)
 Warning -- explicit consideration of  27 degrees of freedom as
           vibrations may cause significant error
 Vibrational temperatures:     35.65    48.76    55.12    67.98    86.65
          (Kelvin)            115.98   144.53   150.10   191.20   247.68
                              257.61   280.65   315.87   371.78   400.07
                              441.30   448.86   494.18   526.41   559.10
                              580.65   605.75   636.84   706.78   784.98
                              849.94   874.21   915.95   935.86   993.11
                             1148.42  1186.82  1192.16  1229.96  1270.42
                             1294.59  1325.03  1349.58  1394.40  1402.15
                             1422.12  1488.18  1494.53  1524.99  1550.14
                             1564.51  1601.77  1613.31  1637.80  1657.25
                             1709.62  1758.65  1822.53  1833.29  1878.98
                             1886.53  1897.06  1947.25  1977.49  2008.05
                             2023.44  2041.82  2064.71  2074.46  2076.67
                             2087.75  2104.66  2146.79  2162.85  2173.14
                             2179.26  2185.43  2198.55  2201.67  2219.94
                             2476.00  2583.18  2611.74  4383.91  4393.52
                             4400.53  4402.93  4443.68  4455.29  4456.16
                             4462.84  4480.12  4484.71  4506.63  4510.49
                             4524.27  4540.98  4573.58  4576.57  4706.91
                             5347.33

 Zero-point correction=                           0.287315 (Hartree/Particle)
 Thermal correction to Energy=                    0.305449
 Thermal correction to Enthalpy=                  0.306393
 Thermal correction to Gibbs Free Energy=         0.238954
 Sum of electronic and zero-point Energies=           -805.899647
 Sum of electronic and thermal Energies=              -805.881512
 Sum of electronic and thermal Enthalpies=            -805.880568
 Sum of electronic and thermal Free Energies=         -805.948007

                     E (Thermal)             CV                S
                      KCal/Mol        Cal/Mol-Kelvin    Cal/Mol-Kelvin
 Total                  191.672             64.921            141.937
 Electronic               0.000              0.000              0.000
 Translational            0.889              2.981             42.202
 Rotational               0.889              2.981             32.934
 Vibrational            189.895             58.960             66.801
 Vibration     1          0.593              1.985              6.209
 Vibration     2          0.594              1.983              5.588
 Vibration     3          0.594              1.982              5.344
 Vibration     4          0.595              1.979              4.929
 Vibration     5          0.597              1.973              4.450
 Vibration     6          0.600              1.962              3.876
 Vibration     7          0.604              1.949              3.445
 Vibration     8          0.605              1.946              3.372
 Vibration     9          0.613              1.920              2.904
 Vibration    10          0.626              1.877              2.412
 Vibration    11          0.629              1.868              2.338
 Vibration    12          0.636              1.847              2.179
 Vibration    13          0.647              1.811              1.963
 Vibration    14          0.667              1.749              1.673
 Vibration    15          0.679              1.714              1.546
 Vibration    16          0.697              1.661              1.380
 Vibration    17          0.700              1.651              1.352
 Vibration    18          0.722              1.589              1.196
 Vibration    19          0.739              1.542              1.097
 Vibration    20          0.757              1.495              1.006
 Vibration    21          0.769              1.462              0.950
 Vibration    22          0.784              1.425              0.889
 Vibration    23          0.802              1.377              0.818
 Vibration    24          0.847              1.269              0.680
 Vibration    25          0.901              1.149              0.553
 Vibration    26          0.948              1.052              0.466
 Vibration    27          0.966              1.016              0.437

                           ! Non-Optimized Parameters !
 Normal termination of Gaussian 16 at Thu Dec 10 21:24:09 2020.

 ----------------------------------------------------------------------
 # B3LYP/6-311++G(d,p) empiricaldispersion=gd3bj scf=xqc pop=npa geom=c
 heck
 ----------------------------------------------------------------------

 --------------------------------------
 CID_20722161_JID_6153_Energie_neutraal
 --------------------------------------
 Structure from the checkpoint file:  "JID_6153.chk"
 Charge =  0 Multiplicity = 1

 SCF Done:  E(RB3LYP) =  -806.433513217     A.U. after   15 cycles
 Normal termination of Gaussian 16 at Thu Dec 10 21:28:25 2020.

 ----------------------------------------------------------------------
 # B3LYP/6-311++G(d,p) empiricaldispersion=gd3bj scf=xqc pop=npa geom=c
 heck
 ----------------------------------------------------------------------

 ------------------------------------
 CID_20722161_JID_6153_Energie_kation
 ------------------------------------
 Structure from the checkpoint file:  "JID_6153.chk"
 Charge =  1 Multiplicity = 2

 SCF Done:  E(UB3LYP) =  -806.088824586     A.U. after   29 cycles
 Normal termination of Gaussian 16 at Thu Dec 10 21:39:28 2020.
 Gaussian 16:  ES64L-G16RevA.03 25-Dec-2016

 ----------------------------------------------------------------------
 # B3LYP/6-311++G(d,p) empiricaldispersion=gd3bj scf=xqc pop=npa geom=c
 heck
 ----------------------------------------------------------------------

 -----------------------------------
 CID_20722161_JID_6153_Energie_anion
 -----------------------------------
 Structure from the checkpoint file:  "JID_6153.chk"
 Charge = -1 Multiplicity = 2

                         Standard orientation:
 ---------------------------------------------------------------------
 Center     Atomic      Atomic             Coordinates (Angstroms)
 Number     Number       Type             X           Y           Z
 ---------------------------------------------------------------------
      1          6           0        4.741995   -0.967448    0.458864
      2          6           0        3.633294   -1.418832   -0.495419
      3          6           0        2.229068   -1.232398    0.082109
      4          6           0        1.825770    0.218238    0.215116
      5          8           0        2.400295    1.171151   -0.269958
      6          8           0        0.679422    0.332731    0.926872
      7          6           0        0.144580    1.658745    1.091377
      8          6           0       -0.335306    2.336064   -0.207742
      9          6           0       -0.910154    1.355745   -1.220107
     10          8           0       -1.943005    0.578780   -0.576454
     11          6           0       -1.797175   -0.770521   -0.576717
     12          8           0       -0.926110   -1.355760   -1.190006
     13          6           0       -2.820870   -1.473235    0.248752
     14          6           0       -3.787556   -0.798835    0.882434
     15          6           0       -2.665668   -2.968428    0.300014
     16          8           0       -1.273398    3.350191    0.139899
     17          1           0        4.649401    0.099492    0.683551
     18          1           0        5.731796   -1.134039    0.020113
     19          1           0        4.698312   -1.521955    1.404770
     20          1           0        3.705843   -0.859954   -1.435037
     21          1           0        3.765097   -2.478964   -0.743797
     22          1           0        1.465342   -1.699682   -0.553176
     23          1           0        2.132052   -1.708392    1.065803
     24          1           0       -0.711585    1.511919    1.752574
     25          1           0        0.879516    2.296494    1.588911
     26          1           0        0.499867    2.851992   -0.685226
     27          1           0       -1.382613    1.910640   -2.035162
     28          1           0       -0.153329    0.686007   -1.626551
     29          1           0       -4.530593   -1.317071    1.481983
     30          1           0       -3.866565    0.279867    0.816897
     31          1           0       -2.712546   -3.399249   -0.705926
     32          1           0       -1.687084   -3.242313    0.709486
     33          1           0       -3.446749   -3.420718    0.916777
     34          1           0       -2.081651    2.894615    0.429095
 ---------------------------------------------------------------------

 SCF Done:  E(UB3LYP) =  -806.435206201     A.U. after   31 cycles

 The electronic state is 2-A.
 Alpha  occ. eigenvalues --  -19.06485 -19.03140 -19.02692 -19.01428 -18.95010
 Alpha  occ. eigenvalues --  -10.20207 -10.13096 -10.12764 -10.12690 -10.11159
 Alpha  occ. eigenvalues --  -10.07635 -10.07397 -10.06394 -10.03656 -10.02908
 Alpha  occ. eigenvalues --  -10.01069  -1.00786  -0.96388  -0.93359  -0.92126
 Alpha  occ. eigenvalues --   -0.87103  -0.70488  -0.67791  -0.65978  -0.62801
 Alpha  occ. eigenvalues --   -0.59486  -0.55579  -0.53695  -0.50620  -0.47295
 Alpha  occ. eigenvalues --   -0.44721  -0.42626  -0.42172  -0.40876  -0.38362
 Alpha  occ. eigenvalues --   -0.37737  -0.36617  -0.36216  -0.33868  -0.33277
 Alpha  occ. eigenvalues --   -0.33038  -0.32441  -0.31318  -0.29849  -0.29522
 Alpha  occ. eigenvalues --   -0.28970  -0.28174  -0.27180  -0.26538  -0.25469
 Alpha  occ. eigenvalues --   -0.25238  -0.24713  -0.24448  -0.23650  -0.22645
 Alpha  occ. eigenvalues --   -0.22169  -0.21467  -0.18622  -0.18165  -0.16968
 Alpha  occ. eigenvalues --   -0.13463  -0.12898   0.04780
 Alpha virt. eigenvalues --    0.06311   0.08192   0.08616   0.08663   0.09367
 Alpha virt. eigenvalues --    0.09749   0.09856   0.10265   0.11292   0.11531
 Alpha virt. eigenvalues --    0.12034   0.12266   0.12975   0.13278   0.13632

  Beta  occ. eigenvalues --  -19.06485 -19.03132 -19.02646 -19.01425 -18.94716
  Beta  occ. eigenvalues --  -10.20207 -10.12801 -10.12754 -10.12685 -10.11161
  Beta  occ. eigenvalues --  -10.07625 -10.07390 -10.06372 -10.03668 -10.02787
  Beta  occ. eigenvalues --  -10.00704  -1.00781  -0.96154  -0.93310  -0.92120
  Beta  occ. eigenvalues --   -0.86665  -0.70469  -0.67661  -0.65622  -0.62746
  Beta  occ. eigenvalues --   -0.59443  -0.55339  -0.53463  -0.50513  -0.46800
  Beta  occ. eigenvalues --   -0.44596  -0.42435  -0.42111  -0.40845  -0.38342
  Beta  occ. eigenvalues --   -0.37665  -0.36551  -0.36148  -0.33638  -0.33091
  Beta  occ. eigenvalues --   -0.32872  -0.32082  -0.31153  -0.29710  -0.29484
  Beta  occ. eigenvalues --   -0.28716  -0.27982  -0.27159  -0.26189  -0.25378
  Beta  occ. eigenvalues --   -0.25046  -0.24687  -0.24420  -0.23477  -0.22513
  Beta  occ. eigenvalues --   -0.21964  -0.21410  -0.18381  -0.18153  -0.16217
  Beta  occ. eigenvalues --   -0.13158  -0.11000
  Beta virt. eigenvalues --    0.06712   0.08132   0.08660   0.08719   0.09490
  Beta virt. eigenvalues --    0.09673   0.09801   0.10240   0.10631   0.11237
  Beta virt. eigenvalues --    0.11476   0.12009   0.12462   0.12926   0.13258

 Mulliken charges and spin densities:
               1          2
     1  C    0.232066  -0.836878
     2  C   -0.591308   0.344145
     3  C    0.252817  -0.255567
     4  C   -0.432505  -0.000567
     5  O   -0.237998   0.009213
     6  O    0.065585   0.010370
     7  C    0.253867  -0.321153
     8  C   -0.590958   0.042195
     9  C    0.065939  -0.019069
    10  O   -0.023793   0.000606
    11  C   -0.366797   0.212133
    12  O   -0.352356   0.103105
    13  C    0.776816   0.042317
    14  C   -0.733273   0.315117
    15  C   -0.710397   0.005836
    16  O   -0.188661   0.000172
    17  H    0.048326   0.112257
    18  H   -0.227629   0.356486
    19  H   -0.061965   0.187472
    20  H    0.142380   0.012014
    21  H   -0.069555   0.218395
    22  H    0.244944  -0.000593
    23  H    0.074735   0.091525
    24  H    0.007266   0.210477
    25  H    0.143767   0.019711
    26  H    0.160768   0.066428
    27  H    0.162809   0.035190
    28  H    0.200422  -0.015373
    29  H    0.080465  -0.010764
    30  H    0.104390  -0.024875
    31  H    0.146473  -0.000050
    32  H    0.081358   0.058883
    33  H    0.104598   0.005357
    34  H    0.237405   0.025485
 Sum of Mulliken charges =  -1.00000   1.00000

 Dipole moment (field-independent basis, Debye):
    X=              0.9444    Y=              1.9444    Z=             -0.4346  Tot=              2.2049
 Quadrupole moment (field-independent basis, Debye-Ang):
   XX=           -164.1271   YY=           -130.6793   ZZ=           -114.0605
   XY=             -0.5264   XZ=              1.8101   YZ=             -0.6536

 Summary of Natural Population Analysis:

                                       Natural Population
                Natural  -----------------------------------------------
    Atom  No    Charge         Core      Valence    Rydberg      Total
 -----------------------------------------------------------------------
      C    1   -0.28673      0.99967     2.28276    0.00429     3.28673
      C    2   -0.19257      0.99965     2.18380    0.00912     3.19257
      C    3   -0.24763      0.99957     2.23834    0.00972     3.24763
      C    4    0.41484      0.99969     1.55975    0.02572     2.58516
      O    5   -0.31697      0.99987     3.31168    0.00541     4.31697
      O    6   -0.27627      0.99986     3.26763    0.00877     4.27627
      C    7   -0.02617      0.99954     2.01385    0.01278     3.02617
      C    8    0.03785      0.99956     1.94917    0.01342     2.96215
      C    9   -0.03136      0.99954     2.02081    0.01101     3.03136
      O   10   -0.29751      0.99986     3.28806    0.00959     4.29751
      C   11    0.43189      0.99961     1.54226    0.02624     2.56811
      O   12   -0.30573      0.99987     3.30095    0.00491     4.30573
      C   13   -0.05510      0.99948     2.04526    0.01036     3.05510
      C   14   -0.10107      0.99954     2.09269    0.00885     3.10107
      C   15   -0.29218      0.99964     2.28699    0.00555     3.29218
      O   16   -0.37192      0.99990     3.36531    0.00671     4.37192
      H   17    0.10225      0.00000     0.39651    0.00124     0.39775
      H   18    0.09684      0.00000     0.40203    0.00113     0.40316
      H   19    0.09322      0.00000     0.40541    0.00137     0.40678
      H   20    0.10069      0.00000     0.39819    0.00113     0.39931
      H   21    0.09579      0.00000     0.40324    0.00097     0.40421
      H   22    0.13587      0.00000     0.36308    0.00105     0.36413
      H   23    0.10923      0.00000     0.38953    0.00124     0.39077
      H   24    0.09953      0.00000     0.39891    0.00156     0.40047
      H   25    0.09286      0.00000     0.40581    0.00133     0.40714
      H   26    0.09793      0.00000     0.40084    0.00123     0.40207
      H   27    0.09014      0.00000     0.40869    0.00116     0.40986
      H   28    0.10777      0.00000     0.39077    0.00146     0.39223
      H   29    0.07881      0.00000     0.42030    0.00089     0.42119
      H   30    0.09000      0.00000     0.40888    0.00112     0.41000
      H   31    0.10094      0.00000     0.39814    0.00092     0.39906
      H   32    0.10253      0.00000     0.39634    0.00112     0.39747
      H   33    0.09141      0.00000     0.40783    0.00076     0.40859
      H   34    0.23084      0.00000     0.26639    0.00277     0.26916
 =======================================================================
   * Total *    0.00000     15.99483    45.81022    0.19494    62.00000

 Normal termination of Gaussian 16 at Thu Dec 10 21:51:12 2020.
