 Gaussian 16, Revision A.03,

 -----------------------------------------------------------
 # opt freq B3LYP/6-31G(d) empiricaldispersion=gd3bj scf=xqc
 -----------------------------------------------------------

 ------------------------------
 CID_89210620_JID_8574_neutraal
 ------------------------------
 Symbolic Z-matrix:
 Charge =  0 Multiplicity = 1

 SCF Done:  E(RB3LYP) =  -1552.86883161     A.U. after   15 cycles
 SCF Done:  E(RB3LYP) =  -1552.87940265     A.U. after   13 cycles
 SCF Done:  E(RB3LYP) =  -1552.88139203     A.U. after   13 cycles
 SCF Done:  E(RB3LYP) =  -1552.88182934     A.U. after   12 cycles
 SCF Done:  E(RB3LYP) =  -1552.88212463     A.U. after   12 cycles
 SCF Done:  E(RB3LYP) =  -1552.88223445     A.U. after   12 cycles
 SCF Done:  E(RB3LYP) =  -1552.88229386     A.U. after   12 cycles
 SCF Done:  E(RB3LYP) =  -1552.88232000     A.U. after   12 cycles
 SCF Done:  E(RB3LYP) =  -1552.88235139     A.U. after   12 cycles
 SCF Done:  E(RB3LYP) =  -1552.88240675     A.U. after   12 cycles
 SCF Done:  E(RB3LYP) =  -1552.88253433     A.U. after   10 cycles
 SCF Done:  E(RB3LYP) =  -1552.88253584     A.U. after   10 cycles
 SCF Done:  E(RB3LYP) =  -1552.88253601     A.U. after    7 cycles
 SCF Done:  E(RB3LYP) =  -1552.88253615     A.U. after    8 cycles
 SCF Done:  E(RB3LYP) =  -1552.88253617     A.U. after    7 cycles
 Optimization completed.
    -- Stationary point found.
 Normal termination of Gaussian 16 at Fri Dec 11 21:18:41 2020.

 --------------------------------------------------------------------
 #N Geom=AllCheck Guess=TCheck SCRF=Check GenChk RB3LYP/6-31G(d) Freq
 --------------------------------------------------------------------

 Structure from the checkpoint file:  "JID_8574.chk"
 ------------------------------
 CID_89210620_JID_8574_neutraal
 ------------------------------
 Charge =  0 Multiplicity = 1

 SCF Done:  E(RB3LYP) =  -1552.88253617     A.U. after    1 cycles

  Exact polarizability: 228.551  -2.647 174.597   8.501  26.608 110.484
 Approx polarizability: 322.734  -8.624 316.454  19.703  64.860 197.024

                      1                      2                      3
                      A                      A                      A
 Frequencies --     11.7505                28.6118                51.0464
 Red. masses --      7.5402                 8.5572                 6.4603
 Frc consts  --      0.0006                 0.0041                 0.0099
 IR Inten    --      0.2765                 1.8672                 2.4510

                      4                      5                      6
                      A                      A                      A
 Frequencies --     79.6827               100.9600               113.2703
 Red. masses --      5.6516                 3.1887                 6.5858
 Frc consts  --      0.0211                 0.0191                 0.0498
 IR Inten    --      0.8219                 1.0975                 2.1151

                      7                      8                      9
                      A                      A                      A
 Frequencies --    125.4381               152.6906               194.8331
 Red. masses --      5.5415                 3.3712                 5.0447
 Frc consts  --      0.0514                 0.0463                 0.1128
 IR Inten    --      1.6093                 3.8336                 2.0170

                     10                     11                     12
                      A                      A                      A
 Frequencies --    234.3667               247.9467               284.5830
 Red. masses --      6.9061                 8.2478                10.4713
 Frc consts  --      0.2235                 0.2987                 0.4997
 IR Inten    --      0.5026                 0.9852                 0.7809

                     13                     14                     15
                      A                      A                      A
 Frequencies --    293.7747               323.0461               345.2516
 Red. masses --      5.0002                 5.5922                 2.1752
 Frc consts  --      0.2543                 0.3438                 0.1528
 IR Inten    --      6.4552                 4.1886                54.8713

                     16                     17                     18
                      A                      A                      A
 Frequencies --    364.3373               373.3086               386.6003
 Red. masses --      2.1332                 2.8483                 1.3859
 Frc consts  --      0.1668                 0.2339                 0.1220
 IR Inten    --     90.2035                92.4034               112.4182

                     19                     20                     21
                      A                      A                      A
 Frequencies --    402.7990               437.9733               448.2645
 Red. masses --      1.4525                 5.5344                 3.0556
 Frc consts  --      0.1389                 0.6255                 0.3618
 IR Inten    --     74.7260                 8.3199                 7.2563

                     22                     23                     24
                      A                      A                      A
 Frequencies --    497.0494               516.3400               527.9905
 Red. masses --      5.0534                 4.8123                 3.9331
 Frc consts  --      0.7356                 0.7559                 0.6460
 IR Inten    --     45.9381                20.1558                33.2705

                     25                     26                     27
                      A                      A                      A
 Frequencies --    550.7410               569.4213               590.9348
 Red. masses --      5.6645                 4.8942                 7.6787
 Frc consts  --      1.0123                 0.9350                 1.5799
 IR Inten    --     91.3586                79.4801                 8.2545

                     28                     29                     30
                      A                      A                      A
 Frequencies --    609.7195               615.7325               671.7601
 Red. masses --      4.1825                 4.8568                 7.1584
 Frc consts  --      0.9161                 1.0849                 1.9033
 IR Inten    --     21.2739                30.2790                18.1656

                     31                     32                     33
                      A                      A                      A
 Frequencies --    704.9423               715.1279               740.2452
 Red. masses --      1.3883                 3.8276                 9.1556
 Frc consts  --      0.4065                 1.1533                 2.9559
 IR Inten    --     19.2646                 1.1090                51.5289

                     34                     35                     36
                      A                      A                      A
 Frequencies --    790.5108               820.8959               824.4935
 Red. masses --      6.1535                 2.7481                 1.8610
 Frc consts  --      2.2656                 1.0911                 0.7454
 IR Inten    --    225.8721                 2.6463                28.9442

                     37                     38                     39
                      A                      A                      A
 Frequencies --    837.9996               856.2888               882.7615
 Red. masses --      5.4482                 2.3918                 4.4893
 Frc consts  --      2.2542                 1.0333                 2.0612
 IR Inten    --     50.9713                23.9262                 5.6956

                     40                     41                     42
                      A                      A                      A
 Frequencies --    888.9138               917.1435               932.1682
 Red. masses --      1.3313                 5.5195                 1.4043
 Frc consts  --      0.6198                 2.7354                 0.7190
 IR Inten    --      1.6198                90.5875                 1.9530

                     43                     44                     45
                      A                      A                      A
 Frequencies --    953.4577              1068.6832              1092.6318
 Red. masses --      1.3267                 1.6983                 1.6380
 Frc consts  --      0.7106                 1.1428                 1.1522
 IR Inten    --      1.0918                 2.7595                61.8362

                     46                     47                     48
                      A                      A                      A
 Frequencies --   1102.1449              1134.1462              1140.4946
 Red. masses --      2.6489                 1.8993                 1.2497
 Frc consts  --      1.8958                 1.4394                 0.9577
 IR Inten    --     74.2858               164.9327                 6.5146

                     49                     50                     51
                      A                      A                      A
 Frequencies --   1155.1622              1195.3626              1214.1671
 Red. masses --      2.6801                 1.6801                 2.2293
 Frc consts  --      2.1071                 1.4145                 1.9364
 IR Inten    --    281.3329                 9.5198                32.6804

                     52                     53                     54
                      A                      A                      A
 Frequencies --   1254.4152              1255.4629              1312.2700
 Red. masses --      2.3323                 1.2494                 1.7602
 Frc consts  --      2.1623                 1.1603                 1.7859
 IR Inten    --     19.8540                97.9488                87.7300

                     55                     56                     57
                      A                      A                      A
 Frequencies --   1336.7754              1348.3943              1353.1709
 Red. masses --      4.9796                 2.0548                 2.4196
 Frc consts  --      5.2427                 2.2012                 2.6104
 IR Inten    --     57.0955                 8.9176                61.9651

                     58                     59                     60
                      A                      A                      A
 Frequencies --   1388.2512              1440.6776              1464.0617
 Red. masses --      5.6079                 1.6789                 1.3265
 Frc consts  --      6.3678                 2.0531                 1.6753
 IR Inten    --     23.7241               218.2704                 7.5175

                     61                     62                     63
                      A                      A                      A
 Frequencies --   1476.8620              1535.2979              1537.8985
 Red. masses --      3.8661                 5.8115                 2.6045
 Frc consts  --      4.9683                 8.0709                 3.6294
 IR Inten    --     25.8463               104.3127                63.3470

                     64                     65                     66
                      A                      A                      A
 Frequencies --   1591.9680              1620.0733              1657.1147
 Red. masses --      7.0412                 5.9500                 4.6871
 Frc consts  --     10.5139                 9.2010                 7.5833
 IR Inten    --    115.3887                27.0945               122.7624

                     67                     68                     69
                      A                      A                      A
 Frequencies --   1695.2652              1708.5876              3071.8265
 Red. masses --      1.3162                 6.6437                 1.0851
 Frc consts  --      2.2287                11.4270                 6.0326
 IR Inten    --    194.6691               116.4344                60.4610

                     70                     71                     72
                      A                      A                      A
 Frequencies --   3189.5429              3217.5055              3237.8170
 Red. masses --      1.0901                 1.0899                 1.0915
 Frc consts  --      6.5341                 6.6478                 6.7418
 IR Inten    --     14.9699                 0.9218                 9.4084

                     73                     74                     75
                      A                      A                      A
 Frequencies --   3257.8815              3288.2989              3396.3222
 Red. masses --      1.0926                 1.0982                 1.0735
 Frc consts  --      6.8327                 6.9962                 7.2958
 IR Inten    --      3.5218                 1.6530                 7.4133

                     76                     77                     78
                      A                      A                      A
 Frequencies --   3583.0543              3601.2982              3708.9185
 Red. masses --      1.0771                 1.0470                 1.1011
 Frc consts  --      8.1472                 8.0003                 8.9239
 IR Inten    --     61.4445                58.3077                22.4032

 - Thermochemistry -
 -------------------
 Temperature   298.150 Kelvin.  Pressure   1.00000 Atm.
 Atom     1 has atomic number  6 and mass  12.00000

 Molecular mass:   282.02452 amu.
 Principal axes and moments of inertia in atomic units:
                           1         2         3
     Eigenvalues --  2882.112449022.73669**********
           X            1.00000  -0.00140   0.00212
           Y            0.00131   0.99914   0.04134
           Z           -0.00218  -0.04133   0.99914
 This molecule is an asymmetric top.
 Rotational symmetry number  1.
 Warning -- assumption of classical behavior for rotation
           may cause significant error
 Rotational temperatures (Kelvin)      0.03005     0.00960     0.00863
 Rotational constants (GHZ):           0.62619     0.20002     0.17980
 Zero-point vibrational energy     530226.7 (Joules/Mol)
                                  126.72722 (Kcal/Mol)
 Warning -- explicit consideration of  29 degrees of freedom as
           vibrations may cause significant error
 Vibrational temperatures:     16.91    41.17    73.44   114.65   145.26
          (Kelvin)            162.97   180.48   219.69   280.32   337.20
                              356.74   409.45   422.68   464.79   496.74
                              524.20   537.11   556.23   579.54   630.15
                              644.95   715.14   742.90   759.66   792.39
                              819.27   850.22   877.25   885.90   966.51
                             1014.25  1028.91  1065.05  1137.37  1181.09
                             1186.26  1205.69  1232.01  1270.10  1278.95
                             1319.56  1341.18  1371.81  1537.60  1572.05
                             1585.74  1631.78  1640.92  1662.02  1719.86
                             1746.92  1804.82  1806.33  1888.06  1923.32
                             1940.04  1946.91  1997.38  2072.81  2106.46
                             2124.88  2208.95  2212.69  2290.49  2330.92
                             2384.22  2439.11  2458.28  4419.67  4589.04
                             4629.27  4658.50  4687.36  4731.13  4886.55
                             5155.22  5181.46  5336.31

 Zero-point correction=                           0.201953 (Hartree/Particle)
 Thermal correction to Energy=                    0.218823
 Thermal correction to Enthalpy=                  0.219767
 Thermal correction to Gibbs Free Energy=         0.155127
 Sum of electronic and zero-point Energies=          -1552.680584
 Sum of electronic and thermal Energies=             -1552.663713
 Sum of electronic and thermal Enthalpies=           -1552.662769
 Sum of electronic and thermal Free Energies=        -1552.727409

                     E (Thermal)             CV                S
                      KCal/Mol        Cal/Mol-Kelvin    Cal/Mol-Kelvin
 Total                  137.314             63.640            136.047
 Electronic               0.000              0.000              0.000
 Translational            0.889              2.981             42.809
 Rotational               0.889              2.981             33.923
 Vibrational            135.536             57.679             59.316
 Vibration     1          0.593              1.987              7.691
 Vibration     2          0.593              1.984              5.923
 Vibration     3          0.595              1.977              4.776
 Vibration     4          0.600              1.963              3.899
 Vibration     5          0.604              1.948              3.436
 Vibration     6          0.607              1.938              3.212
 Vibration     7          0.610              1.928              3.015
 Vibration     8          0.619              1.900              2.638
 Vibration     9          0.636              1.847              2.181
 Vibration    10          0.654              1.788              1.845
 Vibration    11          0.662              1.766              1.745
 Vibration    12          0.683              1.702              1.506
 Vibration    13          0.689              1.685              1.452
 Vibration    14          0.708              1.629              1.295
 Vibration    15          0.724              1.585              1.188
 Vibration    16          0.738              1.546              1.104
 Vibration    17          0.745              1.527              1.066
 Vibration    18          0.755              1.499              1.013
 Vibration    19          0.768              1.464              0.952
 Vibration    20          0.798              1.387              0.833
 Vibration    21          0.807              1.365              0.801
 Vibration    22          0.853              1.257              0.666
 Vibration    23          0.871              1.214              0.619
 Vibration    24          0.883              1.188              0.592
 Vibration    25          0.906              1.138              0.543
 Vibration    26          0.925              1.097              0.505
 Vibration    27          0.948              1.051              0.466
 Vibration    28          0.969              1.011              0.433
 Vibration    29          0.975              0.999              0.423

 Optimization completed.
    -- Stationary point found.
 Normal termination of Gaussian 16 at Fri Dec 11 21:29:00 2020.

 ----------------------------------------------------------------------
 # B3LYP/6-311++G(d,p) empiricaldispersion=gd3bj scf=xqc pop=npa geom=c
 heck
 ----------------------------------------------------------------------

 --------------------------------------
 CID_89210620_JID_8574_Energie_neutraal
 --------------------------------------
 Structure from the checkpoint file:  "JID_8574.chk"
 Charge =  0 Multiplicity = 1

 SCF Done:  E(RB3LYP) =  -1553.15376228     A.U. after   17 cycles
 Normal termination of Gaussian 16 at Fri Dec 11 21:33:36 2020.

 ----------------------------------------------------------------------
 # B3LYP/6-311++G(d,p) empiricaldispersion=gd3bj scf=xqc pop=npa geom=c
 heck
 ----------------------------------------------------------------------

 ------------------------------------
 CID_89210620_JID_8574_Energie_kation
 ------------------------------------
 Structure from the checkpoint file:  "JID_8574.chk"
 Charge =  1 Multiplicity = 2

 SCF Done:  E(UB3LYP) =  -1552.86181280     A.U. after   29 cycles
 Normal termination of Gaussian 16 at Fri Dec 11 21:44:32 2020.
 Gaussian 16:  ES64L-G16RevA.03 25-Dec-2016

 ----------------------------------------------------------------------
 # B3LYP/6-311++G(d,p) empiricaldispersion=gd3bj scf=xqc pop=npa geom=c
 heck
 ----------------------------------------------------------------------

 -----------------------------------
 CID_89210620_JID_8574_Energie_anion
 -----------------------------------
 Structure from the checkpoint file:  "JID_8574.chk"
 Charge = -1 Multiplicity = 2

                         Standard orientation:
 ---------------------------------------------------------------------
 Center     Atomic      Atomic             Coordinates (Angstroms)
 Number     Number       Type             X           Y           Z
 ---------------------------------------------------------------------
      1          6           0       -0.860054    1.023926    1.092279
      2          6           0       -1.945303    1.851636    0.877473
      3          6           0       -3.077560    1.405935    0.162010
      4          6           0       -3.104120    0.073622   -0.333836
      5          6           0       -1.997159   -0.750584   -0.110845
      6          6           0       -0.891031   -0.281391    0.585280
      7         16           0        0.467484   -1.377145    0.876114
      8          8           0        1.105928   -1.016692    2.137314
      9          8           0        0.052167   -2.750033    0.577951
     10          7           0        1.546394   -1.049769   -0.435531
     11          6           0        2.440462    0.008177   -0.408607
     12          7           0        2.193219    1.158568    0.143245
     13          6           0        3.266922    2.010632   -0.013112
     14          6           0        4.335794    1.521709   -0.697767
     15         16           0        4.026827   -0.130288   -1.174034
     16          6           0       -4.290313   -0.458098   -1.036245
     17          7           0       -4.358345   -1.406370   -1.888396
     18          7           0       -4.097865    2.293881   -0.089274
     19          1           0        0.013865    1.372320    1.627363
     20          1           0       -1.928621    2.871603    1.252135
     21          1           0       -2.014741   -1.783345   -0.442900
     22          1           0        1.859866   -1.924996   -0.842569
     23          1           0        3.202786    3.010704    0.398960
     24          1           0        5.261497    2.012848   -0.959996
     25          1           0       -5.250942    0.001717   -0.773894
     26          1           0       -3.421180   -1.774201   -2.095654
     27          1           0       -4.981201    1.950962   -0.433564
     28          1           0       -4.164688    3.107563    0.504623
 ---------------------------------------------------------------------

 SCF Done:  E(UB3LYP) =  -1553.16600083     A.U. after   33 cycles
 SCF Done:  E(UB3LYP) =  -1553.16600083     a.u. after    1 cycles

 The electronic state is 2-A.
 Alpha  occ. eigenvalues --  -88.95707 -88.79050 -19.01208 -19.01149 -14.26064
 Alpha  occ. eigenvalues --  -14.21718 -14.21124 -14.13693 -10.17639 -10.11295
 Alpha  occ. eigenvalues --  -10.10655 -10.10091 -10.07209 -10.05935 -10.04663
 Alpha  occ. eigenvalues --  -10.04343 -10.04224 -10.04122  -8.01871  -7.87701
 Alpha  occ. eigenvalues --   -5.98232  -5.98107  -5.97879  -5.83997  -5.83659
 Alpha  occ. eigenvalues --   -5.83255  -1.01499  -0.90638  -0.88971  -0.82112
 Alpha  occ. eigenvalues --   -0.81849  -0.75486  -0.72561  -0.70851  -0.64967
 Alpha  occ. eigenvalues --   -0.63213  -0.62821  -0.56235  -0.52195  -0.51936
 Alpha  occ. eigenvalues --   -0.50003  -0.46813  -0.44862  -0.42712  -0.41768
 Alpha  occ. eigenvalues --   -0.41408  -0.40950  -0.38891  -0.36994  -0.35154
 Alpha  occ. eigenvalues --   -0.33820  -0.33083  -0.32719  -0.31925  -0.31078
 Alpha  occ. eigenvalues --   -0.29454  -0.27940  -0.27703  -0.26217  -0.25140
 Alpha  occ. eigenvalues --   -0.23937  -0.23330  -0.22039  -0.21289  -0.20595
 Alpha  occ. eigenvalues --   -0.20270  -0.19336  -0.19242  -0.18290  -0.13574
 Alpha  occ. eigenvalues --   -0.12961  -0.12166  -0.09741   0.04112
 Alpha virt. eigenvalues --    0.06056   0.06458   0.07022   0.07426   0.08676
 Alpha virt. eigenvalues --    0.09213   0.09639   0.10540   0.11560   0.12002
 Alpha virt. eigenvalues --    0.12157   0.12304   0.13076   0.13285   0.13548

  Beta  occ. eigenvalues --  -88.95698 -88.79039 -19.01208 -19.01138 -14.26067
  Beta  occ. eigenvalues --  -14.21696 -14.21122 -14.13265 -10.17520 -10.11278
  Beta  occ. eigenvalues --  -10.10575 -10.10053 -10.07306 -10.05784 -10.04420
  Beta  occ. eigenvalues --  -10.04176 -10.04025 -10.04005  -8.01860  -7.87691
  Beta  occ. eigenvalues --   -5.98218  -5.98099  -5.97870  -5.83992  -5.83655
  Beta  occ. eigenvalues --   -5.83216  -1.01481  -0.90624  -0.88877  -0.82081
  Beta  occ. eigenvalues --   -0.81743  -0.74816  -0.72222  -0.70764  -0.64846
  Beta  occ. eigenvalues --   -0.63081  -0.62293  -0.56054  -0.51885  -0.51447
  Beta  occ. eigenvalues --   -0.49914  -0.46630  -0.44583  -0.42633  -0.41604
  Beta  occ. eigenvalues --   -0.41305  -0.40826  -0.38799  -0.36951  -0.35088
  Beta  occ. eigenvalues --   -0.33636  -0.32829  -0.32539  -0.31763  -0.30912
  Beta  occ. eigenvalues --   -0.29213  -0.27834  -0.27167  -0.25966  -0.25065
  Beta  occ. eigenvalues --   -0.23806  -0.23156  -0.21946  -0.21089  -0.20217
  Beta  occ. eigenvalues --   -0.19959  -0.19048  -0.18503  -0.17568  -0.13180
  Beta  occ. eigenvalues --   -0.11902  -0.11270  -0.09026
  Beta virt. eigenvalues --    0.06426   0.06917   0.06980   0.07432   0.08682
  Beta virt. eigenvalues --    0.09484   0.09596   0.09810   0.10558   0.11574
  Beta virt. eigenvalues --    0.12050   0.12155   0.12395   0.13053   0.13538

 Mulliken charges and spin densities:
               1          2
     1  C   -0.118138   0.155176
     2  C   -0.609729  -0.085965
     3  C   -1.533597  -0.150128
     4  C    1.702719   0.357295
     5  C   -0.245774   0.280305
     6  C   -0.107711  -0.123210
     7  S    0.494536   0.033530
     8  O   -0.163494   0.002713
     9  O   -0.219392  -0.000769
    10  N   -0.179443   0.000836
    11  C   -0.128639   0.057652
    12  N   -0.020579   0.000999
    13  C   -0.217782   0.017918
    14  C   -0.204179   0.041894
    15  S   -0.159463   0.019792
    16  C   -0.505678   0.112271
    17  N   -0.322154   0.225209
    18  N   -0.235201  -0.002596
    19  H    0.212259  -0.018414
    20  H    0.089499   0.011230
    21  H    0.201741  -0.011916
    22  H    0.312980  -0.000259
    23  H    0.132912   0.001792
    24  H    0.197050   0.007830
    25  H    0.098055  -0.014346
    26  H    0.160664  -0.008490
    27  H    0.197642   0.040331
    28  H    0.170897   0.049320
 Sum of Mulliken charges =  -1.00000   1.00000

 Dipole moment (field-independent basis, Debye):
    X=              7.1633    Y=              4.4788    Z=              0.4586  Tot=              8.4606
 Quadrupole moment (field-independent basis, Debye-Ang):
   XX=           -170.8100   YY=           -134.8558   ZZ=           -144.2473
   XY=            -15.4588   XZ=            -22.1327   YZ=              3.9519

 Summary of Natural Population Analysis:

                                       Natural Population
                Natural  -----------------------------------------------
    Atom  No    Charge         Core      Valence    Rydberg      Total
 -----------------------------------------------------------------------
      C    1   -0.02375      0.99952     2.01466    0.00957     3.02375
      C    2   -0.12595      0.99953     2.11820    0.00821     3.12595
      C    3    0.11555      0.99949     1.87231    0.01266     2.88445
      C    4   -0.06593      0.99946     2.05564    0.01084     3.06593
      C    5   -0.02768      0.99948     2.01852    0.00968     3.02768
      C    6   -0.18521      0.99936     2.17198    0.01387     3.18521
      S    7    1.10628      4.99917     1.79320    0.10136     6.89372
      O    8   -0.45131      0.99990     3.44601    0.00540     4.45131
      O    9   -0.46773      0.99991     3.46245    0.00538     4.46773
      N   10   -0.42482      0.99965     2.90963    0.01555     3.92482
      C   11    0.15026      0.99962     1.82971    0.02040     2.84974
      N   12   -0.25741      0.99963     2.74495    0.01283     3.75741
      C   13   -0.00978      0.99954     1.99659    0.01365     3.00978
      C   14   -0.20884      0.99954     2.19971    0.00959     3.20884
      S   15    0.15832      4.99946     2.82143    0.02078     7.84168
      C   16    0.07444      0.99967     1.90960    0.01630     2.92556
      N   17   -0.26191      0.99974     2.75181    0.01036     3.76191
      N   18   -0.39156      0.99970     2.88320    0.00866     3.89156
      H   19    0.11037      0.00000     0.38831    0.00132     0.38963
      H   20    0.08983      0.00000     0.40873    0.00144     0.41017
      H   21    0.10785      0.00000     0.39069    0.00145     0.39215
      H   22    0.20311      0.00000     0.29529    0.00159     0.29689
      H   23    0.09729      0.00000     0.40161    0.00110     0.40271
      H   24    0.10738      0.00000     0.39155    0.00107     0.39262
      H   25    0.06048      0.00000     0.43728    0.00224     0.43952
      H   26    0.14847      0.00000     0.34928    0.00225     0.35153
      H   27    0.18995      0.00000     0.30825    0.00180     0.31005
      H   28    0.18231      0.00000     0.31578    0.00191     0.31769
 =======================================================================
   * Total *    0.00000     25.99237    46.68638    0.32125    73.00000

 Normal termination of Gaussian 16 at Fri Dec 11 21:56:55 2020.
