 Gaussian 16, Revision A.03,

 -----------------------------------------------------------
 # opt freq B3LYP/6-31G(d) empiricaldispersion=gd3bj scf=xqc
 -----------------------------------------------------------

 -------------------------------
 CID_147867702_JID_3305_neutraal
 -------------------------------
 Symbolic Z-matrix:
 Charge =  0 Multiplicity = 1

 SCF Done:  E(RB3LYP) =  -955.329036561     A.U. after   15 cycles
 SCF Done:  E(RB3LYP) =  -955.336953277     A.U. after   13 cycles
 SCF Done:  E(RB3LYP) =  -955.338417997     A.U. after   12 cycles
 SCF Done:  E(RB3LYP) =  -955.338961881     A.U. after   12 cycles
 SCF Done:  E(RB3LYP) =  -955.339548787     A.U. after   12 cycles
 SCF Done:  E(RB3LYP) =  -955.339809766     A.U. after   12 cycles
 SCF Done:  E(RB3LYP) =  -955.340051213     A.U. after   12 cycles
 SCF Done:  E(RB3LYP) =  -955.341056474     A.U. after   12 cycles
 SCF Done:  E(RB3LYP) =  -955.340818346     A.U. after   12 cycles
 SCF Done:  E(RB3LYP) =  -955.341680626     A.U. after   12 cycles
 SCF Done:  E(RB3LYP) =  -955.341746471     A.U. after   11 cycles
 SCF Done:  E(RB3LYP) =  -955.341783761     A.U. after   10 cycles
 SCF Done:  E(RB3LYP) =  -955.341783837     A.U. after    8 cycles
 SCF Done:  E(RB3LYP) =  -955.341783797     A.U. after    9 cycles
 SCF Done:  E(RB3LYP) =  -955.341784337     A.U. after    8 cycles
 Optimization completed.
    -- Stationary point found.
 Normal termination of Gaussian 16 at Wed Dec  9 22:56:55 2020.

 --------------------------------------------------------------------
 #N Geom=AllCheck Guess=TCheck SCRF=Check GenChk RB3LYP/6-31G(d) Freq
 --------------------------------------------------------------------

 Structure from the checkpoint file:  "JID_3305.chk"
 -------------------------------
 CID_147867702_JID_3305_neutraal
 -------------------------------
 Charge =  0 Multiplicity = 1

 SCF Done:  E(RB3LYP) =  -955.341784337     A.U. after    1 cycles

  Exact polarizability: 146.307   8.211 100.218   3.585  -1.703 114.639
 Approx polarizability: 187.842  16.232 148.795   7.081  -1.372 196.833

                      1                      2                      3
                      A                      A                      A
 Frequencies --     35.1468                42.8990                53.4401
 Red. masses --      3.7267                 3.4177                 2.7857
 Frc consts  --      0.0027                 0.0037                 0.0047
 IR Inten    --      1.0802                 0.0986                 0.1430

                      4                      5                      6
                      A                      A                      A
 Frequencies --    111.9627               158.8872               176.6314
 Red. masses --      3.4716                 4.5459                 4.2677
 Frc consts  --      0.0256                 0.0676                 0.0784
 IR Inten    --      1.3274                 1.6337                 0.0552

                      7                      8                      9
                      A                      A                      A
 Frequencies --    197.7812               236.3202               259.5606
 Red. masses --      2.7376                 1.0369                 1.3835
 Frc consts  --      0.0631                 0.0341                 0.0549
 IR Inten    --      0.9519                 0.0779                 0.2547

                     10                     11                     12
                      A                      A                      A
 Frequencies --    277.6438               298.6972               304.1824
 Red. masses --      2.1187                 4.6677                 2.8382
 Frc consts  --      0.0962                 0.2454                 0.1547
 IR Inten    --      0.4511                 4.4247                 0.6551

                     13                     14                     15
                      A                      A                      A
 Frequencies --    316.2968               365.5558               392.8865
 Red. masses --      3.3374                 4.0116                 3.0764
 Frc consts  --      0.1967                 0.3158                 0.2798
 IR Inten    --      2.0339                 2.5790                 3.9589

                     16                     17                     18
                      A                      A                      A
 Frequencies --    438.1096               477.3652               496.8792
 Red. masses --      2.6019                 2.9811                 3.2489
 Frc consts  --      0.2942                 0.4002                 0.4726
 IR Inten    --      9.1250                 7.7198                19.6580

                     19                     20                     21
                      A                      A                      A
 Frequencies --    522.8855               552.2761               588.1386
 Red. masses --      4.4317                 2.7390                 2.9922
 Frc consts  --      0.7139                 0.4922                 0.6098
 IR Inten    --     22.1506                65.8374                37.8189

                     22                     23                     24
                      A                      A                      A
 Frequencies --    612.7422               637.0498               743.8745
 Red. masses --      3.2554                 4.6278                 1.8325
 Frc consts  --      0.7201                 1.1066                 0.5974
 IR Inten    --     89.8483                54.1448                 8.8110

                     25                     26                     27
                      A                      A                      A
 Frequencies --    783.1142               854.8917               866.0622
 Red. masses --      1.7424                 2.0591                 1.4742
 Frc consts  --      0.6296                 0.8866                 0.6515
 IR Inten    --      6.0378                50.1411                24.3949

                     28                     29                     30
                      A                      A                      A
 Frequencies --    871.9158               882.7920               946.3585
 Red. masses --      3.0719                 2.3702                 1.2113
 Frc consts  --      1.3760                 1.0883                 0.6392
 IR Inten    --     63.6898                46.0835                 0.4598

                     31                     32                     33
                      A                      A                      A
 Frequencies --    961.8757               964.0421               972.5993
 Red. masses --      1.4362                 2.3680                 1.3082
 Frc consts  --      0.7829                 1.2967                 0.7291
 IR Inten    --      2.2340                13.0782                 1.1783

                     34                     35                     36
                      A                      A                      A
 Frequencies --    995.2799              1003.9934              1050.8762
 Red. masses --      2.4250                 2.6832                 2.5997
 Frc consts  --      1.4153                 1.5936                 1.6915
 IR Inten    --     60.9782                 1.3837                18.5004

                     37                     38                     39
                      A                      A                      A
 Frequencies --   1061.9984              1099.6148              1129.7650
 Red. masses --      3.5179                 1.6632                 6.4458
 Frc consts  --      2.3376                 1.1849                 4.8474
 IR Inten    --     37.0156                 8.1153               126.2434

                     40                     41                     42
                      A                      A                      A
 Frequencies --   1164.0584              1179.4453              1199.4421
 Red. masses --      2.0990                 2.0552                 1.1285
 Frc consts  --      1.6757                 1.6844                 0.9565
 IR Inten    --     22.5156                21.8098                 3.1340

                     43                     44                     45
                      A                      A                      A
 Frequencies --   1203.9577              1205.5805              1274.4299
 Red. masses --      1.1272                 1.7947                 1.2847
 Frc consts  --      0.9627                 1.5368                 1.2294
 IR Inten    --      7.2047                27.4193                 6.8187

                     46                     47                     48
                      A                      A                      A
 Frequencies --   1308.8502              1327.5358              1348.8485
 Red. masses --      5.7644                 1.3185                 1.4367
 Frc consts  --      5.8182                 1.3691                 1.5401
 IR Inten    --    118.4876                 4.7848                42.5371

                     49                     50                     51
                      A                      A                      A
 Frequencies --   1365.3315              1377.2030              1398.1282
 Red. masses --      1.4067                 1.5668                 1.5747
 Frc consts  --      1.5450                 1.7509                 1.8136
 IR Inten    --     12.0114                 2.8559                 2.2468

                     52                     53                     54
                      A                      A                      A
 Frequencies --   1428.4444              1439.8619              1447.1149
 Red. masses --      1.2672                 1.6646                 1.2417
 Frc consts  --      1.5235                 2.0333                 1.5321
 IR Inten    --      8.1097                 1.4705                 6.7332

                     55                     56                     57
                      A                      A                      A
 Frequencies --   1456.8776              1495.5682              1508.1829
 Red. masses --      1.2439                 1.0838                 1.0993
 Frc consts  --      1.5555                 1.4283                 1.4732
 IR Inten    --     47.1361                 4.1962                 3.1164

                     58                     59                     60
                      A                      A                      A
 Frequencies --   1516.6331              1518.0985              1531.8717
 Red. masses --      1.0524                 1.0445                 1.0621
 Frc consts  --      1.4262                 1.4183                 1.4684
 IR Inten    --      1.9167                 1.6338                 2.4853

                     61                     62                     63
                      A                      A                      A
 Frequencies --   1541.9776              1672.3287              1715.0462
 Red. masses --      1.0469                 7.5233                 6.2971
 Frc consts  --      1.4667                12.3966                10.9129
 IR Inten    --     10.1404                 8.4076                 3.8537

                     64                     65                     66
                      A                      A                      A
 Frequencies --   2994.7123              3006.7263              3044.0292
 Red. masses --      1.0741                 1.0697                 1.0405
 Frc consts  --      5.6755                 5.6979                 5.6806
 IR Inten    --     12.9765                42.1147                16.0780

                     67                     68                     69
                      A                      A                      A
 Frequencies --   3050.3135              3073.3210              3089.3514
 Red. masses --      1.0398                 1.0821                 1.0902
 Frc consts  --      5.7001                 6.0221                 6.1303
 IR Inten    --     27.2300                 9.3938                28.5552

                     70                     71                     72
                      A                      A                      A
 Frequencies --   3094.2643              3107.4052              3118.9754
 Red. masses --      1.0898                 1.1000                 1.0996
 Frc consts  --      6.1477                 6.2581                 6.3024
 IR Inten    --     24.9845                 6.1398                50.9560

                     73                     74                     75
                      A                      A                      A
 Frequencies --   3139.3364              3158.7219              3189.8186
 Red. masses --      1.1029                 1.1001                 1.0886
 Frc consts  --      6.4044                 6.4670                 6.5259
 IR Inten    --     25.6651                 7.2193                11.5228

                     76                     77                     78
                      A                      A                      A
 Frequencies --   3220.5291              3229.0584              3519.2246
 Red. masses --      1.0909                 1.0945                 1.0748
 Frc consts  --      6.6662                 6.7239                 7.8426
 IR Inten    --      0.3525                 6.5006                24.7927

 - Thermochemistry -
 -------------------
 Temperature   298.150 Kelvin.  Pressure   1.00000 Atm.
 Atom     1 has atomic number  6 and mass  12.00000

 Molecular mass:   201.08235 amu.
 Principal axes and moments of inertia in atomic units:
                           1         2         3
     Eigenvalues --  1612.571213851.723514234.58513
           X            0.99985  -0.01694   0.00272
           Y            0.01701   0.99951  -0.02626
           Z           -0.00228   0.02631   0.99965
 This molecule is an asymmetric top.
 Rotational symmetry number  1.
 Warning -- assumption of classical behavior for rotation
           may cause significant error
 Rotational temperatures (Kelvin)      0.05371     0.02249     0.02045
 Rotational constants (GHZ):           1.11917     0.46855     0.42619
 Zero-point vibrational energy     618487.3 (Joules/Mol)
                                  147.82200 (Kcal/Mol)
 Warning -- explicit consideration of  22 degrees of freedom as
           vibrations may cause significant error
 Vibrational temperatures:     50.57    61.72    76.89   161.09   228.60
          (Kelvin)            254.13   284.56   340.01   373.45   399.47
                              429.76   437.65   455.08   525.95   565.28
                              630.34   686.82   714.90   752.32   794.60
                              846.20   881.60   916.57  1070.27  1126.73
                             1230.00  1246.07  1254.49  1270.14  1361.60
                             1383.92  1387.04  1399.35  1431.99  1444.52
                             1511.98  1527.98  1582.10  1625.48  1674.82
                             1696.96  1725.73  1732.23  1734.56  1833.62
                             1883.14  1910.03  1940.69  1964.41  1981.49
                             2011.59  2055.21  2071.64  2082.08  2096.12
                             2151.79  2169.94  2182.10  2184.21  2204.02
                             2218.56  2406.11  2467.57  4308.72  4326.01
                             4379.68  4388.72  4421.82  4444.89  4451.96
                             4470.86  4487.51  4516.80  4544.70  4589.44
                             4633.62  4645.89  5063.38

 Zero-point correction=                           0.235569 (Hartree/Particle)
 Thermal correction to Energy=                    0.249357
 Thermal correction to Enthalpy=                  0.250301
 Thermal correction to Gibbs Free Energy=         0.194462
 Sum of electronic and zero-point Energies=           -955.106215
 Sum of electronic and thermal Energies=              -955.092428
 Sum of electronic and thermal Enthalpies=            -955.091484
 Sum of electronic and thermal Free Energies=         -955.147322

                     E (Thermal)             CV                S
                      KCal/Mol        Cal/Mol-Kelvin    Cal/Mol-Kelvin
 Total                  156.474             52.047            117.522
 Electronic               0.000              0.000              0.000
 Translational            0.889              2.981             41.800
 Rotational               0.889              2.981             31.642
 Vibrational            154.696             46.085             44.079
 Vibration     1          0.594              1.982              5.515
 Vibration     2          0.595              1.980              5.121
 Vibration     3          0.596              1.976              4.686
 Vibration     4          0.607              1.940              3.235
 Vibration     5          0.621              1.893              2.563
 Vibration     6          0.628              1.871              2.364
 Vibration     7          0.637              1.843              2.154
 Vibration     8          0.655              1.785              1.830
 Vibration     9          0.668              1.747              1.665
 Vibration    10          0.679              1.715              1.548
 Vibration    11          0.692              1.676              1.424
 Vibration    12          0.695              1.666              1.394
 Vibration    13          0.703              1.643              1.329
 Vibration    14          0.739              1.543              1.098
 Vibration    15          0.760              1.485              0.989
 Vibration    16          0.798              1.387              0.833
 Vibration    17          0.834              1.300              0.717
 Vibration    18          0.852              1.257              0.666
 Vibration    19          0.878              1.199              0.603
 Vibration    20          0.908              1.135              0.539
 Vibration    21          0.945              1.057              0.471
 Vibration    22          0.972              1.005              0.428

                           ! Non-Optimized Parameters !
 Normal termination of Gaussian 16 at Wed Dec  9 23:04:01 2020.

 ----------------------------------------------------------------------
 # B3LYP/6-311++G(d,p) empiricaldispersion=gd3bj scf=xqc pop=npa geom=c
 heck
 ----------------------------------------------------------------------

 ---------------------------------------
 CID_147867702_JID_3305_Energie_neutraal
 ---------------------------------------
 Structure from the checkpoint file:  "JID_3305.chk"
 Charge =  0 Multiplicity = 1

 SCF Done:  E(RB3LYP) =  -955.528944711     A.U. after   16 cycles
 Normal termination of Gaussian 16 at Wed Dec  9 23:07:42 2020.

 ----------------------------------------------------------------------
 # B3LYP/6-311++G(d,p) empiricaldispersion=gd3bj scf=xqc pop=npa geom=c
 heck
 ----------------------------------------------------------------------

 -------------------------------------
 CID_147867702_JID_3305_Energie_kation
 -------------------------------------
 Structure from the checkpoint file:  "JID_3305.chk"
 Charge =  1 Multiplicity = 2

 SCF Done:  E(UB3LYP) =  -955.216990918     A.U. after   23 cycles
 Normal termination of Gaussian 16 at Wed Dec  9 23:15:20 2020.
 Gaussian 16:  ES64L-G16RevA.03 25-Dec-2016

 ----------------------------------------------------------------------
 # B3LYP/6-311++G(d,p) empiricaldispersion=gd3bj scf=xqc pop=npa geom=c
 heck
 ----------------------------------------------------------------------

 ------------------------------------
 CID_147867702_JID_3305_Energie_anion
 ------------------------------------
 Structure from the checkpoint file:  "JID_3305.chk"
 Charge = -1 Multiplicity = 2

                         Standard orientation:
 ---------------------------------------------------------------------
 Center     Atomic      Atomic             Coordinates (Angstroms)
 Number     Number       Type             X           Y           Z
 ---------------------------------------------------------------------
      1          6           0       -2.457169    2.327452   -0.434879
      2          6           0       -2.192489    0.982672    0.243608
      3          6           0       -3.461113    0.363649    0.835987
      4          7           0       -1.534474    0.095543   -0.739477
      5         16           0       -0.534687   -1.138664   -0.178689
      6          8           0       -0.943941   -1.617356    1.149269
      7          8           0       -0.424854   -2.069519   -1.306986
      8          6           0        0.995216   -0.244253    0.014628
      9          6           0        1.565377   -0.169353    1.226753
     10          6           0        2.845242    0.610167    1.390120
     11          6           0        3.700614    0.589439    0.111446
     12          6           0        2.864105    0.784716   -1.131349
     13          6           0        1.590503    0.368062   -1.176288
     14          1           0       -3.156545    2.208587   -1.271708
     15          1           0       -1.527985    2.753320   -0.824218
     16          1           0       -2.902308    3.033676    0.274290
     17          1           0       -1.459455    1.132529    1.044375
     18          1           0       -4.204777    0.188120    0.047695
     19          1           0       -3.231954   -0.587884    1.320774
     20          1           0       -3.910923    1.036967    1.574304
     21          1           0       -2.161899   -0.295535   -1.440829
     22          1           0        1.081478   -0.622349    2.086024
     23          1           0        3.420716    0.229495    2.240343
     24          1           0        2.576693    1.649862    1.640914
     25          1           0        4.483971    1.352057    0.177409
     26          1           0        4.221421   -0.378664    0.031175
     27          1           0        3.332799    1.213958   -2.013131
     28          1           0        0.983715    0.455378   -2.070474
 ---------------------------------------------------------------------

 SCF Done:  E(UB3LYP) =  -955.528559946     A.U. after   33 cycles
 SCF Done:  E(UB3LYP) =  -955.528559946     a.u. after    1 cycles

 The electronic state is 2-A.
 Alpha  occ. eigenvalues --  -88.92276 -18.98233 -18.98036 -14.21181 -10.10598
 Alpha  occ. eigenvalues --  -10.05840 -10.05504 -10.04699 -10.04571 -10.04151
 Alpha  occ. eigenvalues --  -10.02830 -10.01986 -10.01931  -7.98455  -5.94774
 Alpha  occ. eigenvalues --   -5.94720  -5.94484  -0.98277  -0.87370  -0.80409
 Alpha  occ. eigenvalues --   -0.71006  -0.66840  -0.62548  -0.60922  -0.58702
 Alpha  occ. eigenvalues --   -0.53588  -0.49720  -0.48081  -0.45052  -0.40582
 Alpha  occ. eigenvalues --   -0.38050  -0.36834  -0.35707  -0.33639  -0.32975
 Alpha  occ. eigenvalues --   -0.32252  -0.31779  -0.29458  -0.29024  -0.28795
 Alpha  occ. eigenvalues --   -0.28404  -0.27420  -0.24970  -0.24671  -0.24115
 Alpha  occ. eigenvalues --   -0.22427  -0.21587  -0.19837  -0.19443  -0.18645
 Alpha  occ. eigenvalues --   -0.17368  -0.16792  -0.14342  -0.09146   0.04952
 Alpha virt. eigenvalues --    0.06808   0.08424   0.08966   0.09211   0.10188
 Alpha virt. eigenvalues --    0.10903   0.11015   0.12175   0.12498   0.12760
 Alpha virt. eigenvalues --    0.13142   0.13253   0.14318   0.15263   0.15423

  Beta  occ. eigenvalues --  -88.92268 -18.98229 -18.98003 -14.21138 -10.10596
  Beta  occ. eigenvalues --  -10.05812 -10.05486 -10.04730 -10.04574 -10.04055
  Beta  occ. eigenvalues --  -10.02814 -10.01684 -10.01419  -7.98446  -5.94760
  Beta  occ. eigenvalues --   -5.94701  -5.94480  -0.98221  -0.87328  -0.80350
  Beta  occ. eigenvalues --   -0.70563  -0.66775  -0.62265  -0.60365  -0.58658
  Beta  occ. eigenvalues --   -0.53354  -0.49647  -0.47886  -0.44448  -0.40433
  Beta  occ. eigenvalues --   -0.37952  -0.36734  -0.35392  -0.33585  -0.32814
  Beta  occ. eigenvalues --   -0.32106  -0.31696  -0.29243  -0.28800  -0.28750
  Beta  occ. eigenvalues --   -0.28353  -0.27262  -0.24944  -0.24244  -0.24022
  Beta  occ. eigenvalues --   -0.22232  -0.21514  -0.19579  -0.19165  -0.18252
  Beta  occ. eigenvalues --   -0.16913  -0.16650  -0.14079  -0.07401
  Beta virt. eigenvalues --    0.07211   0.08391   0.09286   0.09366   0.10132
  Beta virt. eigenvalues --    0.10647   0.10954   0.11206   0.12232   0.12582
  Beta virt. eigenvalues --    0.12741   0.13147   0.13239   0.14349   0.15361

 Mulliken charges and spin densities:
               1          2
     1  C    0.323237  -0.822050
     2  C   -0.722915   0.547442
     3  C    0.033199  -0.502033
     4  N   -0.080142  -0.022507
     5  S    0.382803  -0.018881
     6  O   -0.210732  -0.002448
     7  O   -0.188941   0.011010
     8  C   -0.351347  -0.019036
     9  C   -0.078678   0.536407
    10  C   -0.568631   0.016237
    11  C   -0.309762  -0.150157
    12  C   -0.288515   0.300561
    13  C    0.023092  -0.102557
    14  H   -0.224942   0.354664
    15  H    0.051894   0.107375
    16  H   -0.114688   0.242953
    17  H    0.271182  -0.073977
    18  H   -0.064721   0.192344
    19  H    0.130368   0.043972
    20  H   -0.020631   0.145127
    21  H    0.232936   0.039394
    22  H    0.195292  -0.005768
    23  H    0.120004  -0.006518
    24  H    0.041798   0.082602
    25  H    0.045181   0.063869
    26  H    0.109457   0.005801
    27  H    0.090940   0.027487
    28  H    0.173263   0.008689
 Sum of Mulliken charges =  -1.00000   1.00000

 Dipole moment (field-independent basis, Debye):
    X=              0.2490    Y=              1.4354    Z=              1.0330  Tot=              1.7859
 Quadrupole moment (field-independent basis, Debye-Ang):
   XX=           -127.6814   YY=           -118.4302   ZZ=           -105.4754
   XY=              2.8986   XZ=              1.6286   YZ=             -0.1273

 Summary of Natural Population Analysis:

                                       Natural Population
                Natural  -----------------------------------------------
    Atom  No    Charge         Core      Valence    Rydberg      Total
 -----------------------------------------------------------------------
      C    1   -0.28542      0.99964     2.27930    0.00647     3.28542
      C    2   -0.02230      0.99962     2.01049    0.01219     3.02230
      C    3   -0.29434      0.99964     2.28895    0.00575     3.29434
      N    4   -0.43817      0.99974     2.92481    0.01362     3.93817
      S    5    1.10871      4.99915     1.79152    0.10061     6.89129
      O    6   -0.47705      0.99991     3.47170    0.00544     4.47705
      O    7   -0.47143      0.99991     3.46646    0.00507     4.47143
      C    8   -0.15325      0.99932     2.13873    0.01521     3.15325
      C    9    0.03114      0.99947     1.95975    0.00965     2.96886
      C   10   -0.20404      0.99963     2.19636    0.00805     3.20404
      C   11   -0.20342      0.99963     2.19529    0.00849     3.20342
      C   12   -0.03922      0.99955     2.02895    0.01071     3.03922
      C   13   -0.11976      0.99949     2.10942    0.01085     3.11976
      H   14    0.09584      0.00000     0.40298    0.00119     0.40416
      H   15    0.10641      0.00000     0.39241    0.00118     0.39359
      H   16    0.09736      0.00000     0.40180    0.00085     0.40264
      H   17    0.10184      0.00000     0.39547    0.00269     0.39816
      H   18    0.09335      0.00000     0.40544    0.00121     0.40665
      H   19    0.11341      0.00000     0.38545    0.00113     0.38659
      H   20    0.09629      0.00000     0.40297    0.00073     0.40371
      H   21    0.19121      0.00000     0.30666    0.00213     0.30879
      H   22    0.09926      0.00000     0.39941    0.00133     0.40074
      H   23    0.09642      0.00000     0.40251    0.00107     0.40358
      H   24    0.09979      0.00000     0.39845    0.00175     0.40021
      H   25    0.09353      0.00000     0.40441    0.00207     0.40647
      H   26    0.09589      0.00000     0.40247    0.00164     0.40411
      H   27    0.08557      0.00000     0.41348    0.00095     0.41443
      H   28    0.10239      0.00000     0.39643    0.00118     0.39761
 =======================================================================
   * Total *   -0.00000     16.99472    36.77207    0.23321    54.00000

 Normal termination of Gaussian 16 at Wed Dec  9 23:26:01 2020.
