 Gaussian 16, Revision A.03,

 -----------------------------------------------------------
 # opt freq B3LYP/6-31G(d) empiricaldispersion=gd3bj scf=xqc
 -----------------------------------------------------------

 -------------------------------
 CID_153854354_JID_2326_neutraal
 -------------------------------
 Symbolic Z-matrix:
 Charge =  0 Multiplicity = 1

 SCF Done:  E(RB3LYP) =  -892.593936888     A.U. after   14 cycles
 SCF Done:  E(RB3LYP) =  -892.598026473     A.U. after   12 cycles
 SCF Done:  E(RB3LYP) =  -892.598257495     A.U. after   10 cycles
 SCF Done:  E(RB3LYP) =  -892.598286099     A.U. after   10 cycles
 SCF Done:  E(RB3LYP) =  -892.598291250     A.U. after    8 cycles
 SCF Done:  E(RB3LYP) =  -892.598292698     A.U. after    8 cycles
 SCF Done:  E(RB3LYP) =  -892.598293095     A.U. after    7 cycles
 Optimization completed.
    -- Stationary point found.
 Normal termination of Gaussian 16 at Wed Dec  9 17:00:45 2020.

 --------------------------------------------------------------------
 #N Geom=AllCheck Guess=TCheck SCRF=Check GenChk RB3LYP/6-31G(d) Freq
 --------------------------------------------------------------------

 Structure from the checkpoint file:  "JID_2326.chk"
 -------------------------------
 CID_153854354_JID_2326_neutraal
 -------------------------------
 Charge =  0 Multiplicity = 1

 SCF Done:  E(RB3LYP) =  -892.598293095     A.U. after    1 cycles

  Exact polarizability: 150.316  -8.780 115.894  -1.703   0.748  59.651
 Approx polarizability: 220.100 -15.086 210.724  -3.710   3.710  94.547

                      1                      2                      3
                      A                      A                      A
 Frequencies --     90.2194               134.0073               204.8013
 Red. masses --      4.0202                 2.8912                 6.0652
 Frc consts  --      0.0193                 0.0306                 0.1499
 IR Inten    --      1.4223                 2.0230                 0.5047

                      4                      5                      6
                      A                      A                      A
 Frequencies --    225.5954               230.3465               312.2752
 Red. masses --      5.4661                 6.3412                 1.9437
 Frc consts  --      0.1639                 0.1982                 0.1117
 IR Inten    --      5.9389                 4.3613                 4.7508

                      7                      8                      9
                      A                      A                      A
 Frequencies --    325.7310               391.8712               445.4546
 Red. masses --      6.3475                 5.5289                 6.1342
 Frc consts  --      0.3968                 0.5002                 0.7172
 IR Inten    --      1.2947                 1.0337                 6.9685

                     10                     11                     12
                      A                      A                      A
 Frequencies --    449.6691               496.7410               550.6065
 Red. masses --      1.3807                 6.7863                 3.4387
 Frc consts  --      0.1645                 0.9866                 0.6142
 IR Inten    --    114.8273                 2.9739                 4.1160

                     13                     14                     15
                      A                      A                      A
 Frequencies --    560.5073               583.3131               616.0290
 Red. masses --      4.1049                 7.5724                 6.5192
 Frc consts  --      0.7598                 1.5180                 1.4576
 IR Inten    --      4.7675                 1.3552                 1.8287

                     16                     17                     18
                      A                      A                      A
 Frequencies --    650.5634               706.3230               779.7092
 Red. masses --      2.4235                11.4952                 1.4084
 Frc consts  --      0.6043                 3.3789                 0.5045
 IR Inten    --      1.6725                 1.1148                13.7043

                     19                     20                     21
                      A                      A                      A
 Frequencies --    822.2287               873.7745               898.3868
 Red. masses --      2.4189                 3.0597                 1.4593
 Frc consts  --      0.9635                 1.3764                 0.6940
 IR Inten    --      4.9801                 3.7945                 1.3459

                     22                     23                     24
                      A                      A                      A
 Frequencies --    954.9895               971.4813               991.1887
 Red. masses --      7.7350                 3.1517                 3.8322
 Frc consts  --      4.1563                 1.7525                 2.2182
 IR Inten    --      1.7787                15.6666                14.2096

                     25                     26                     27
                      A                      A                      A
 Frequencies --   1040.0414              1095.3871              1101.1255
 Red. masses --      2.7405                 2.1397                 2.1212
 Frc consts  --      1.7465                 1.5126                 1.5153
 IR Inten    --     11.0463                38.8059                26.1662

                     28                     29                     30
                      A                      A                      A
 Frequencies --   1118.4352              1128.5637              1223.9044
 Red. masses --      2.9311                 2.8196                 1.2590
 Frc consts  --      2.1603                 2.1159                 1.1112
 IR Inten    --      1.5093                69.3321                 2.7030

                     31                     32                     33
                      A                      A                      A
 Frequencies --   1229.6458              1257.5375              1284.2382
 Red. masses --      1.6978                 1.6870                 2.8653
 Frc consts  --      1.5125                 1.5718                 2.7843
 IR Inten    --     21.1803                 0.8275                60.4300

                     34                     35                     36
                      A                      A                      A
 Frequencies --   1312.4713              1338.8377              1378.4363
 Red. masses --      1.1815                 5.1000                 1.7771
 Frc consts  --      1.1991                 5.3861                 1.9894
 IR Inten    --     25.7850                51.1757                13.0876

                     37                     38                     39
                      A                      A                      A
 Frequencies --   1387.5520              1407.1581              1428.8360
 Red. masses --      1.4300                 2.0161                 1.5222
 Frc consts  --      1.6221                 2.3520                 1.8310
 IR Inten    --      0.9612                97.8643                 5.5539

                     40                     41                     42
                      A                      A                      A
 Frequencies --   1471.4742              1502.5328              1506.2284
 Red. masses --      5.5651                 3.4078                 1.1491
 Frc consts  --      7.0995                 4.5328                 1.5359
 IR Inten    --     11.2555                13.9195                 5.4452

                     43                     44                     45
                      A                      A                      A
 Frequencies --   1518.1982              1532.0050              1604.2343
 Red. masses --      1.1747                 1.1121                 7.2243
 Frc consts  --      1.5953                 1.5378                10.9542
 IR Inten    --      1.9517                 1.7430                 7.0701

                     46                     47                     48
                      A                      A                      A
 Frequencies --   1625.0480              3020.4000              3029.5687
 Red. masses --      6.5686                 1.0686                 1.0704
 Frc consts  --     10.2201                 5.7439                 5.7882
 IR Inten    --     79.5634                37.9603                57.5078

                     49                     50                     51
                      A                      A                      A
 Frequencies --   3060.2998              3072.4296              3108.5009
 Red. masses --      1.0683                 1.0851                 1.1048
 Frc consts  --      5.8948                 6.0351                 6.2897
 IR Inten    --     11.2736                38.3656                39.2537

                     52                     53                     54
                      A                      A                      A
 Frequencies --   3131.3720              3273.0083              3663.5665
 Red. masses --      1.0971                 1.0963                 1.0809
 Frc consts  --      6.3382                 6.9198                 8.5473
 IR Inten    --     39.4189                 1.1904                66.3990

 - Thermochemistry -
 -------------------
 Temperature   298.150 Kelvin.  Pressure   1.00000 Atm.
 Atom     1 has atomic number  6 and mass  12.00000

 Molecular mass:   180.03573 amu.
 Principal axes and moments of inertia in atomic units:
                           1         2         3
     Eigenvalues --  1047.762782641.496653624.39920
           X            0.99983  -0.01859  -0.00028
           Y            0.01859   0.99982  -0.00345
           Z            0.00034   0.00345   0.99999
 This molecule is an asymmetric top.
 Rotational symmetry number  1.
 Warning -- assumption of classical behavior for rotation
           may cause significant error
 Rotational temperatures (Kelvin)      0.08267     0.03279     0.02390
 Rotational constants (GHZ):           1.72247     0.68323     0.49794
 Zero-point vibrational energy     407429.2 (Joules/Mol)
                                   97.37793 (Kcal/Mol)
 Warning -- explicit consideration of  15 degrees of freedom as
           vibrations may cause significant error
 Vibrational temperatures:    129.81   192.81   294.66   324.58   331.42
          (Kelvin)            449.29   468.65   563.82   640.91   646.97
                              714.70   792.20   806.45   839.26   886.33
                              936.02  1016.24  1121.83  1183.00  1257.17
                             1292.58  1374.02  1397.74  1426.10  1496.39
                             1576.02  1584.27  1609.18  1623.75  1760.93
                             1769.19  1809.32  1847.73  1888.35  1926.29
                             1983.26  1996.38  2024.59  2055.78  2117.12
                             2161.81  2167.13  2184.35  2204.21  2308.14
                             2338.08  4345.68  4358.87  4403.09  4420.54
                             4472.44  4505.35  4709.13  5271.06

 Zero-point correction=                           0.155182 (Hartree/Particle)
 Thermal correction to Energy=                    0.164492
 Thermal correction to Enthalpy=                  0.165436
 Thermal correction to Gibbs Free Energy=         0.120402
 Sum of electronic and zero-point Energies=           -892.443111
 Sum of electronic and thermal Energies=              -892.433801
 Sum of electronic and thermal Enthalpies=            -892.432857
 Sum of electronic and thermal Free Energies=         -892.477891

                     E (Thermal)             CV                S
                      KCal/Mol        Cal/Mol-Kelvin    Cal/Mol-Kelvin
 Total                  103.220             36.933             94.783
 Electronic               0.000              0.000              0.000
 Translational            0.889              2.981             41.471
 Rotational               0.889              2.981             30.685
 Vibrational            101.443             30.971             22.628
 Vibration     1          0.602              1.956              3.655
 Vibration     2          0.613              1.919              2.888
 Vibration     3          0.640              1.833              2.090
 Vibration     4          0.650              1.802              1.914
 Vibration     5          0.652              1.795              1.876
 Vibration     6          0.701              1.650              1.350
 Vibration     7          0.710              1.624              1.281
 Vibration     8          0.759              1.488              0.993
 Vibration     9          0.805              1.371              0.810
 Vibration    10          0.809              1.362              0.797
 Vibration    11          0.852              1.257              0.666
 Vibration    12          0.906              1.138              0.543
 Vibration    13          0.916              1.117              0.523
 Vibration    14          0.940              1.067              0.479
 Vibration    15          0.976              0.998              0.423

                           ! Non-Optimized Parameters !
 Normal termination of Gaussian 16 at Wed Dec  9 17:04:44 2020.

 ----------------------------------------------------------------------
 # B3LYP/6-311++G(d,p) empiricaldispersion=gd3bj scf=xqc pop=npa geom=c
 heck
 ----------------------------------------------------------------------

 ---------------------------------------
 CID_153854354_JID_2326_Energie_neutraal
 ---------------------------------------
 Structure from the checkpoint file:  "JID_2326.chk"
 Charge =  0 Multiplicity = 1

 SCF Done:  E(RB3LYP) =  -892.757173056     A.U. after   15 cycles
 Normal termination of Gaussian 16 at Wed Dec  9 17:06:52 2020.

 ----------------------------------------------------------------------
 # B3LYP/6-311++G(d,p) empiricaldispersion=gd3bj scf=xqc pop=npa geom=c
 heck
 ----------------------------------------------------------------------

 -------------------------------------
 CID_153854354_JID_2326_Energie_kation
 -------------------------------------
 Structure from the checkpoint file:  "JID_2326.chk"
 Charge =  1 Multiplicity = 2

 SCF Done:  E(UB3LYP) =  -892.483967210     A.U. after   22 cycles
 Normal termination of Gaussian 16 at Wed Dec  9 17:10:56 2020.
 Gaussian 16:  ES64L-G16RevA.03 25-Dec-2016

 ----------------------------------------------------------------------
 # B3LYP/6-311++G(d,p) empiricaldispersion=gd3bj scf=xqc pop=npa geom=c
 heck
 ----------------------------------------------------------------------

 ------------------------------------
 CID_153854354_JID_2326_Energie_anion
 ------------------------------------
 Structure from the checkpoint file:  "JID_2326.chk"
 Charge = -1 Multiplicity = 2

                         Standard orientation:
 ---------------------------------------------------------------------
 Center     Atomic      Atomic             Coordinates (Angstroms)
 Number     Number       Type             X           Y           Z
 ---------------------------------------------------------------------
      1          6           0       -3.114990   -0.078062   -0.391543
      2          6           0       -2.292858    1.156287    0.026026
      3          6           0       -0.846705    0.760210    0.044794
      4          6           0       -0.430721   -0.547244    0.005059
      5          6           0        0.989765   -0.641601   -0.021681
      6          6           0        1.634609    0.585136    0.002110
      7         16           0        0.499069    1.914933    0.060256
      8          7           0        2.995965    0.453505   -0.011565
      9          6           0        3.185977   -0.853926   -0.048623
     10          7           0        2.007749   -1.571099   -0.055502
     11          8           0       -1.250252   -1.639611   -0.018951
     12          6           0       -2.611212   -1.329877    0.325359
     13          1           0       -3.026744   -0.234657   -1.472852
     14          1           0       -4.176666    0.067064   -0.162679
     15          1           0       -2.470500    1.978785   -0.677517
     16          1           0       -2.620767    1.514038    1.012833
     17          1           0        4.150023   -1.342822   -0.073879
     18          1           0        1.911552   -2.575058   -0.079363
     19          1           0       -2.673416   -1.195836    1.414997
     20          1           0       -3.185763   -2.215920    0.046450
 ---------------------------------------------------------------------

 SCF Done:  E(UB3LYP) =  -892.746395265     A.U. after   31 cycles

 The electronic state is 2-A.
 Alpha  occ. eigenvalues --  -88.77208 -19.05505 -14.27116 -14.20871 -10.13692
 Alpha  occ. eigenvalues --  -10.13466 -10.12695 -10.11334 -10.10684 -10.09632
 Alpha  occ. eigenvalues --  -10.08841 -10.07962  -7.85763  -5.82094  -5.81760
 Alpha  occ. eigenvalues --   -5.81253  -0.97087  -0.92198  -0.78584  -0.76522
 Alpha  occ. eigenvalues --   -0.70852  -0.64312  -0.62845  -0.57263  -0.53518
 Alpha  occ. eigenvalues --   -0.51731  -0.47755  -0.46709  -0.43181  -0.39559
 Alpha  occ. eigenvalues --   -0.37425  -0.35295  -0.35060  -0.34043  -0.33939
 Alpha  occ. eigenvalues --   -0.32537  -0.30880  -0.29194  -0.26580  -0.25483
 Alpha  occ. eigenvalues --   -0.24125  -0.22781  -0.22212  -0.19101  -0.18679
 Alpha  occ. eigenvalues --   -0.12485  -0.10425   0.04229
 Alpha virt. eigenvalues --    0.05802   0.07960   0.08042   0.08670   0.09269
 Alpha virt. eigenvalues --    0.09751   0.10555   0.11046   0.11710   0.12792
 Alpha virt. eigenvalues --    0.13096   0.13496   0.13988   0.14906   0.16285

  Beta  occ. eigenvalues --  -88.77206 -19.05497 -14.27055 -14.20874 -10.13688
  Beta  occ. eigenvalues --  -10.13445 -10.12665 -10.11330 -10.10684 -10.09624
  Beta  occ. eigenvalues --  -10.08826 -10.07930  -7.85761  -5.82093  -5.81755
  Beta  occ. eigenvalues --   -5.81250  -0.97069  -0.92160  -0.78524  -0.76502
  Beta  occ. eigenvalues --   -0.70807  -0.64278  -0.62810  -0.57215  -0.53452
  Beta  occ. eigenvalues --   -0.51626  -0.47715  -0.46658  -0.43128  -0.39501
  Beta  occ. eigenvalues --   -0.37377  -0.35256  -0.35030  -0.34009  -0.33886
  Beta  occ. eigenvalues --   -0.32495  -0.30852  -0.29160  -0.26549  -0.25440
  Beta  occ. eigenvalues --   -0.24081  -0.22754  -0.22180  -0.19080  -0.18669
  Beta  occ. eigenvalues --   -0.12459  -0.10391
  Beta virt. eigenvalues --    0.06855   0.07599   0.08076   0.08693   0.09374
  Beta virt. eigenvalues --    0.09779   0.10583   0.10840   0.11332   0.11810
  Beta virt. eigenvalues --    0.13020   0.13198   0.13737   0.13872   0.15074

 Mulliken charges and spin densities:
               1          2
     1  C   -0.323122   0.099484
     2  C    1.958500  -2.601148
     3  C   -1.707633   2.426205
     4  C   -0.169958  -0.669384
     5  C    1.469454  -1.491179
     6  C    1.289647  -0.940507
     7  S   -0.532154   0.053623
     8  N   -0.206016   0.028045
     9  C    0.006658   0.302552
    10  N   -0.227786   0.009013
    11  O   -0.191493   0.082131
    12  C    0.531368  -0.746993
    13  H    0.161132  -0.012542
    14  H   -0.834645   1.022542
    15  H    0.032099   0.111720
    16  H   -0.043370   0.210971
    17  H   -0.973357   1.193583
    18  H   -0.555984   0.892294
    19  H    0.003055   0.150523
    20  H   -0.686396   0.879066
 Sum of Mulliken charges =  -1.00000   1.00000

 Dipole moment (field-independent basis, Debye):
    X=              0.1373    Y=              5.0660    Z=             -0.5427  Tot=              5.0969
 Quadrupole moment (field-independent basis, Debye-Ang):
   XX=           -158.3325   YY=           -123.7673   ZZ=            -98.0067
   XY=              4.8388   XZ=              2.4833   YZ=             -1.2390

 Summary of Natural Population Analysis:

                                       Natural Population
                Natural  -----------------------------------------------
    Atom  No    Charge         Core      Valence    Rydberg      Total
 -----------------------------------------------------------------------
      C    1   -0.20131      0.99963     2.19315    0.00853     3.20131
      C    2   -0.20188      0.99958     2.19159    0.01071     3.20188
      C    3   -0.12886      0.99942     2.11813    0.01132     3.12886
      C    4    0.12779      0.99919     1.85809    0.01493     2.87221
      C    5    0.02183      0.99932     1.96522    0.01363     2.97817
      C    6   -0.01724      0.99936     2.00043    0.01745     3.01724
      S    7    0.18568      4.99942     2.79515    0.01974     7.81432
      N    8   -0.26033      0.99968     2.74998    0.01068     3.76033
      C    9    0.11015      0.99965     1.87162    0.01858     2.88985
      N   10   -0.26282      0.99966     2.75267    0.01049     3.76282
      O   11   -0.27232      0.99986     3.26261    0.00985     4.27232
      C   12   -0.00707      0.99956     1.99540    0.01211     3.00707
      H   13    0.09895      0.00000     0.39969    0.00136     0.40105
      H   14    0.10899      0.00000     0.38714    0.00386     0.39101
      H   15    0.10418      0.00000     0.39473    0.00109     0.39582
      H   16    0.10288      0.00000     0.39568    0.00144     0.39712
      H   17    0.09545      0.00000     0.40249    0.00206     0.40455
      H   18    0.21619      0.00000     0.26470    0.01911     0.28381
      H   19    0.08353      0.00000     0.41470    0.00178     0.41647
      H   20    0.09622      0.00000     0.40169    0.00208     0.40378
 =======================================================================
   * Total *   -0.00000     15.99434    30.81487    0.19079    47.00000

 Normal termination of Gaussian 16 at Wed Dec  9 17:15:03 2020.
