 Gaussian 16, Revision A.03,

 -----------------------------------------------------------
 # opt freq B3LYP/6-31G(d) empiricaldispersion=gd3bj scf=xqc
 -----------------------------------------------------------

 ------------------------------
 CID_81171597_JID_3399_neutraal
 ------------------------------
 Symbolic Z-matrix:
 Charge =  0 Multiplicity = 1

 SCF Done:  E(RB3LYP) =  -576.620376772     A.U. after   14 cycles
 SCF Done:  E(RB3LYP) =  -576.623039187     A.U. after   12 cycles
 SCF Done:  E(RB3LYP) =  -576.622947995     A.U. after   12 cycles
 SCF Done:  E(RB3LYP) =  -576.624049053     A.U. after   11 cycles
 SCF Done:  E(RB3LYP) =  -576.624484744     A.U. after   12 cycles
 SCF Done:  E(RB3LYP) =  -576.624628983     A.U. after   11 cycles
 SCF Done:  E(RB3LYP) =  -576.624649910     A.U. after   11 cycles
 SCF Done:  E(RB3LYP) =  -576.624665111     A.U. after   10 cycles
 SCF Done:  E(RB3LYP) =  -576.624667198     A.U. after    9 cycles
 SCF Done:  E(RB3LYP) =  -576.624668508     A.U. after    9 cycles
 SCF Done:  E(RB3LYP) =  -576.624669063     A.U. after    8 cycles
 SCF Done:  E(RB3LYP) =  -576.624669427     A.U. after    8 cycles
 SCF Done:  E(RB3LYP) =  -576.624669669     A.U. after    8 cycles
 SCF Done:  E(RB3LYP) =  -576.624669851     A.U. after    8 cycles
 SCF Done:  E(RB3LYP) =  -576.624669918     A.U. after    7 cycles
 Optimization completed.
    -- Stationary point found.
 Normal termination of Gaussian 16 at Wed Dec  9 23:09:00 2020.

 --------------------------------------------------------------------
 #N Geom=AllCheck Guess=TCheck SCRF=Check GenChk RB3LYP/6-31G(d) Freq
 --------------------------------------------------------------------

 Structure from the checkpoint file:  "JID_3399.chk"
 ------------------------------
 CID_81171597_JID_3399_neutraal
 ------------------------------
 Charge =  0 Multiplicity = 1

 SCF Done:  E(RB3LYP) =  -576.624669919     A.U. after    1 cycles

  Exact polarizability: 120.879   7.501 117.742   2.152  -2.753 107.252
 Approx polarizability: 152.101  17.981 179.216  11.164   0.556 178.455

                      1                      2                      3
                      A                      A                      A
 Frequencies --     22.1769                37.0112                47.6101
 Red. masses --      4.9309                 3.2064                 4.0661
 Frc consts  --      0.0014                 0.0026                 0.0054
 IR Inten    --      2.0761                 0.3412                 3.5027

                      4                      5                      6
                      A                      A                      A
 Frequencies --     90.3191               114.2350               198.7241
 Red. masses --      3.4138                 3.4773                 2.2593
 Frc consts  --      0.0164                 0.0267                 0.0526
 IR Inten    --      0.5861                 0.4161                 2.8575

                      7                      8                      9
                      A                      A                      A
 Frequencies --    230.7269               244.9154               252.9156
 Red. masses --      1.2929                 2.1006                 2.7202
 Frc consts  --      0.0406                 0.0742                 0.1025
 IR Inten    --      0.3906                 0.3938                 1.0805

                     10                     11                     12
                      A                      A                      A
 Frequencies --    271.4122               293.2532               331.7158
 Red. masses --      1.7095                 1.6003                 1.1425
 Frc consts  --      0.0742                 0.0811                 0.0741
 IR Inten    --      0.1915                 0.4108                 0.6426

                     13                     14                     15
                      A                      A                      A
 Frequencies --    340.9672               349.7896               381.9632
 Red. masses --      2.0030                 1.9073                 2.2173
 Frc consts  --      0.1372                 0.1375                 0.1906
 IR Inten    --      1.3111                 4.0322                 2.0389

                     16                     17                     18
                      A                      A                      A
 Frequencies --    410.2491               416.5979               465.8936
 Red. masses --      2.1103                 2.4626                 2.4691
 Frc consts  --      0.2093                 0.2518                 0.3158
 IR Inten    --      0.7160                 2.7129                 1.5998

                     19                     20                     21
                      A                      A                      A
 Frequencies --    564.1755               608.7154               648.8582
 Red. masses --      2.8112                 4.8749                 4.4829
 Frc consts  --      0.5272                 1.0642                 1.1120
 IR Inten    --      1.0283                 3.6894                 5.2006

                     22                     23                     24
                      A                      A                      A
 Frequencies --    712.4167               736.6030               784.0386
 Red. masses --      2.5568                 2.0161                 1.3766
 Frc consts  --      0.7646                 0.6445                 0.4986
 IR Inten    --     11.0856                31.2600                54.8554

                     25                     26                     27
                      A                      A                      A
 Frequencies --    796.5911               860.5675               864.6147
 Red. masses --      2.4834                 1.9550                 1.4397
 Frc consts  --      0.9285                 0.8531                 0.6341
 IR Inten    --     61.0674                31.1792                 4.3937

                     28                     29                     30
                      A                      A                      A
 Frequencies --    885.8622               892.8579               934.7244
 Red. masses --      2.1613                 3.4025                 3.2025
 Frc consts  --      0.9993                 1.5981                 1.6486
 IR Inten    --      3.6175                 3.6498                 2.6403

                     31                     32                     33
                      A                      A                      A
 Frequencies --    939.2600               947.0985               954.6856
 Red. masses --      3.4517                 1.7765                 1.5861
 Frc consts  --      1.7941                 0.9389                 0.8517
 IR Inten    --      1.4858                 1.1170                 2.2009

                     34                     35                     36
                      A                      A                      A
 Frequencies --    974.2665               998.0035              1011.3411
 Red. masses --      1.2014                 2.0072                 2.2287
 Frc consts  --      0.6719                 1.1779                 1.3431
 IR Inten    --      0.1924                 1.3990                 3.3895

                     37                     38                     39
                      A                      A                      A
 Frequencies --   1049.6101              1051.2194              1085.9743
 Red. masses --      1.7502                 1.7088                 1.5191
 Frc consts  --      1.1360                 1.1125                 1.0556
 IR Inten    --      2.7648                 1.1540                 6.7398

                     40                     41                     42
                      A                      A                      A
 Frequencies --   1104.0916              1116.7574              1145.4345
 Red. masses --      1.8822                 1.9386                 3.9790
 Frc consts  --      1.3518                 1.4245                 3.0758
 IR Inten    --      1.1390                 6.0644                37.8780

                     43                     44                     45
                      A                      A                      A
 Frequencies --   1160.1834              1208.0332              1230.0200
 Red. masses --      2.0880                 1.4303                 1.4362
 Frc consts  --      1.6559                 1.2298                 1.2802
 IR Inten    --     17.0594                12.4247                 5.3779

                     46                     47                     48
                      A                      A                      A
 Frequencies --   1263.5013              1289.9026              1302.6164
 Red. masses --      1.8527                 2.5130                 2.0541
 Frc consts  --      1.7426                 2.4635                 2.0535
 IR Inten    --      6.5205                 2.9200                 0.2848

                     49                     50                     51
                      A                      A                      A
 Frequencies --   1315.4614              1355.6239              1379.9799
 Red. masses --      1.6282                 1.3435                 1.3191
 Frc consts  --      1.6600                 1.4547                 1.4801
 IR Inten    --      1.0764                 0.9058                 8.9751

                     52                     53                     54
                      A                      A                      A
 Frequencies --   1390.1587              1426.9815              1427.7596
 Red. masses --      1.3898                 1.3235                 1.2577
 Frc consts  --      1.5825                 1.5878                 1.5106
 IR Inten    --      1.3807                 3.6925                 2.6436

                     55                     56                     57
                      A                      A                      A
 Frequencies --   1431.8903              1458.7412              1463.5497
 Red. masses --      1.2721                 1.2327                 3.9836
 Frc consts  --      1.5367                 1.5455                 5.0274
 IR Inten    --      3.9157                 4.2875                26.3765

                     58                     59                     60
                      A                      A                      A
 Frequencies --   1486.7281              1499.5212              1507.8391
 Red. masses --      4.4613                 1.1274                 1.0797
 Frc consts  --      5.8100                 1.4936                 1.4463
 IR Inten    --      9.5791                 3.6628                 1.9093

                     61                     62                     63
                      A                      A                      A
 Frequencies --   1514.3059              1516.4593              1519.3001
 Red. masses --      1.1037                 1.0951                 1.0508
 Frc consts  --      1.4912                 1.4837                 1.4291
 IR Inten    --     11.8450                 8.8755                 2.2326

                     64                     65                     66
                      A                      A                      A
 Frequencies --   1527.6978              1538.1446              1542.5953
 Red. masses --      1.0924                 1.0636                 1.0626
 Frc consts  --      1.5022                 1.4826                 1.4898
 IR Inten    --     10.4172                 2.1222                 4.4195

                     67                     68                     69
                      A                      A                      A
 Frequencies --   1554.0875              1556.4904              1617.5783
 Red. masses --      1.0597                 1.0762                 5.6016
 Frc consts  --      1.5080                 1.5362                 8.6356
 IR Inten    --      8.0570                12.7019                19.4708

                     70                     71                     72
                      A                      A                      A
 Frequencies --   2998.5287              3031.9617              3033.0071
 Red. masses --      1.0695                 1.0447                 1.0474
 Frc consts  --      5.6654                 5.6582                 5.6770
 IR Inten    --     25.0438                32.1956                 8.2578

                     73                     74                     75
                      A                      A                      A
 Frequencies --   3037.7874              3046.4793              3057.9915
 Red. masses --      1.0377                 1.0396                 1.0910
 Frc consts  --      5.6420                 5.6848                 6.0109
 IR Inten    --     44.1513                17.6129                40.9469

                     76                     77                     78
                      A                      A                      A
 Frequencies --   3062.6351              3074.4452              3095.4332
 Red. masses --      1.0616                 1.1011                 1.1008
 Frc consts  --      5.8669                 6.1323                 6.2146
 IR Inten    --     42.0129                26.1398                14.0980

                     79                     80                     81
                      A                      A                      A
 Frequencies --   3103.0979              3106.1172              3108.6778
 Red. masses --      1.1026                 1.1021                 1.1016
 Frc consts  --      6.2555                 6.2647                 6.2723
 IR Inten    --      0.2566                44.9362                40.1678

                     82                     83                     84
                      A                      A                      A
 Frequencies --   3110.9998              3114.1265              3117.4894
 Red. masses --      1.1014                 1.1042                 1.1008
 Frc consts  --      6.2808                 6.3089                 6.3031
 IR Inten    --     53.5478                13.2621                52.2327

                     85                     86                     87
                      A                      A                      A
 Frequencies --   3275.3755              3296.1011              3522.3292
 Red. masses --      1.0899                 1.1082                 1.0732
 Frc consts  --      6.8893                 7.0939                 7.8448
 IR Inten    --      0.2072                 0.7336                 1.7910

 - Thermochemistry -
 -------------------
 Temperature   298.150 Kelvin.  Pressure   1.00000 Atm.
 Atom     1 has atomic number  6 and mass  12.00000

 Molecular mass:   182.14191 amu.
 Principal axes and moments of inertia in atomic units:
                           1         2         3
     Eigenvalues --  1365.013844123.400074604.04877
           X            0.99984  -0.01548  -0.00839
           Y            0.01530   0.99966  -0.02124
           Z            0.00871   0.02110   0.99974
 This molecule is an asymmetric top.
 Rotational symmetry number  1.
 Warning -- assumption of classical behavior for rotation
           may cause significant error
 Rotational temperatures (Kelvin)      0.06345     0.02101     0.01881
 Rotational constants (GHZ):           1.32214     0.43768     0.39199
 Zero-point vibrational energy     722819.5 (Joules/Mol)
                                  172.75800 (Kcal/Mol)
 Warning -- explicit consideration of  20 degrees of freedom as
           vibrations may cause significant error
 Vibrational temperatures:     31.91    53.25    68.50   129.95   164.36
          (Kelvin)            285.92   331.96   352.38   363.89   390.50
                              421.93   477.27   490.58   503.27   549.56
                              590.26   599.39   670.32   811.72   875.81
                              933.56  1025.01  1059.81  1128.06  1146.12
                             1238.16  1243.99  1274.56  1284.62  1344.86
                             1351.39  1362.66  1373.58  1401.75  1435.90
                             1455.09  1510.15  1512.47  1562.47  1588.54
                             1606.76  1648.02  1669.25  1738.09  1769.72
                             1817.90  1855.88  1874.17  1892.66  1950.44
                             1985.48  2000.13  2053.11  2054.23  2060.17
                             2098.80  2105.72  2139.07  2157.48  2169.44
                             2178.75  2181.85  2185.93  2198.02  2213.05
                             2219.45  2235.99  2239.44  2327.33  4314.21
                             4362.32  4363.82  4370.70  4383.20  4399.77
                             4406.45  4423.44  4453.64  4464.67  4469.01
                             4472.69  4476.03  4480.53  4485.37  4712.53
                             4742.35  5067.85

 Zero-point correction=                           0.275307 (Hartree/Particle)
 Thermal correction to Energy=                    0.289156
 Thermal correction to Enthalpy=                  0.290100
 Thermal correction to Gibbs Free Energy=         0.233520
 Sum of electronic and zero-point Energies=           -576.349363
 Sum of electronic and thermal Energies=              -576.335514
 Sum of electronic and thermal Enthalpies=            -576.334570
 Sum of electronic and thermal Free Energies=         -576.391150

                     E (Thermal)             CV                S
                      KCal/Mol        Cal/Mol-Kelvin    Cal/Mol-Kelvin
 Total                  181.448             52.456            119.083
 Electronic               0.000              0.000              0.000
 Translational            0.889              2.981             41.505
 Rotational               0.889              2.981             31.628
 Vibrational            179.671             46.495             45.950
 Vibration     1          0.593              1.985              6.429
 Vibration     2          0.594              1.982              5.413
 Vibration     3          0.595              1.978              4.914
 Vibration     4          0.602              1.956              3.653
 Vibration     5          0.607              1.938              3.196
 Vibration     6          0.637              1.842              2.145
 Vibration     7          0.652              1.794              1.873
 Vibration     8          0.660              1.771              1.767
 Vibration     9          0.664              1.758              1.710
 Vibration    10          0.675              1.726              1.587
 Vibration    11          0.688              1.686              1.455
 Vibration    12          0.714              1.612              1.252
 Vibration    13          0.720              1.594              1.208
 Vibration    14          0.727              1.576              1.167
 Vibration    15          0.751              1.509              1.031
 Vibration    16          0.774              1.448              0.926
 Vibration    17          0.780              1.434              0.904
 Vibration    18          0.823              1.326              0.749
 Vibration    19          0.920              1.109              0.516
 Vibration    20          0.968              1.013              0.435

 Optimization completed.
    -- Stationary point found.
 Normal termination of Gaussian 16 at Wed Dec  9 23:16:49 2020.

 ----------------------------------------------------------------------
 # B3LYP/6-311++G(d,p) empiricaldispersion=gd3bj scf=xqc pop=npa geom=c
 heck
 ----------------------------------------------------------------------

 --------------------------------------
 CID_81171597_JID_3399_Energie_neutraal
 --------------------------------------
 Structure from the checkpoint file:  "JID_3399.chk"
 Charge =  0 Multiplicity = 1

 SCF Done:  E(RB3LYP) =  -576.787177545     A.U. after   14 cycles
 Normal termination of Gaussian 16 at Wed Dec  9 23:20:00 2020.

 ----------------------------------------------------------------------
 # B3LYP/6-311++G(d,p) empiricaldispersion=gd3bj scf=xqc pop=npa geom=c
 heck
 ----------------------------------------------------------------------

 ------------------------------------
 CID_81171597_JID_3399_Energie_kation
 ------------------------------------
 Structure from the checkpoint file:  "JID_3399.chk"
 Charge =  1 Multiplicity = 2

 SCF Done:  E(UB3LYP) =  -576.471263684     A.U. after   24 cycles
 Normal termination of Gaussian 16 at Wed Dec  9 23:26:51 2020.
 Gaussian 16:  ES64L-G16RevA.03 25-Dec-2016

 ----------------------------------------------------------------------
 # B3LYP/6-311++G(d,p) empiricaldispersion=gd3bj scf=xqc pop=npa geom=c
 heck
 ----------------------------------------------------------------------

 -----------------------------------
 CID_81171597_JID_3399_Energie_anion
 -----------------------------------
 Structure from the checkpoint file:  "JID_3399.chk"
 Charge = -1 Multiplicity = 2

                         Standard orientation:
 ---------------------------------------------------------------------
 Center     Atomic      Atomic             Coordinates (Angstroms)
 Number     Number       Type             X           Y           Z
 ---------------------------------------------------------------------
      1          6           0        1.655134   -0.833330    1.246944
      2          6           0        2.459517   -0.407274    0.005988
      3          6           0        3.955626   -0.390648    0.364406
      4          6           0        2.228207   -1.433155   -1.117634
      5          6           0        2.070668    1.014401   -0.476041
      6          6           0        0.583094    1.276438   -0.747500
      7          7           0       -0.097965    1.796883    0.444917
      8          6           0       -1.553430    1.853773    0.308210
      9          6           0       -2.209844    0.503780    0.148545
     10          7           0       -2.642552    0.102527   -1.026985
     11          8           0       -3.104117   -1.210303   -0.836660
     12          6           0       -2.921083   -1.549114    0.451955
     13          6           0       -2.360288   -0.519346    1.137778
     14          1           0        1.999530   -1.808998    1.610235
     15          1           0        0.586252   -0.929218    1.024832
     16          1           0        1.780182   -0.116135    2.068709
     17          1           0        4.296224   -1.384612    0.678399
     18          1           0        4.563214   -0.084087   -0.495531
     19          1           0        4.157564    0.309514    1.184040
     20          1           0        1.173232   -1.489423   -1.406859
     21          1           0        2.808363   -1.173306   -2.011189
     22          1           0        2.537171   -2.435189   -0.796764
     23          1           0        2.412396    1.756274    0.258428
     24          1           0        2.636047    1.212890   -1.395521
     25          1           0        0.480256    2.041585   -1.527166
     26          1           0        0.102084    0.369942   -1.149157
     27          1           0        0.139231    1.222300    1.249725
     28          1           0       -1.963685    2.355488    1.192085
     29          1           0       -1.797346    2.467797   -0.564669
     30          1           0       -3.241826   -2.543625    0.727774
     31          1           0       -2.097942   -0.477794    2.184473
 ---------------------------------------------------------------------

 SCF Done:  E(UB3LYP) =  -576.774447443     A.U. after   33 cycles
 SCF Done:  E(UB3LYP) =  -576.774447443     a.u. after    1 cycles

 The electronic state is 2-A.
 Alpha  occ. eigenvalues --  -19.11376 -14.26317 -14.20720 -10.14316 -10.11748
 Alpha  occ. eigenvalues --  -10.11427 -10.09472 -10.08767 -10.08442 -10.06925
 Alpha  occ. eigenvalues --  -10.06142 -10.06064 -10.05746  -1.04748  -0.82272
 Alpha  occ. eigenvalues --   -0.77523  -0.72862  -0.69883  -0.64538  -0.59275
 Alpha  occ. eigenvalues --   -0.59050  -0.58337  -0.53121  -0.51473  -0.48032
 Alpha  occ. eigenvalues --   -0.44042  -0.43607  -0.39178  -0.38560  -0.36914
 Alpha  occ. eigenvalues --   -0.36612  -0.35602  -0.34386  -0.33760  -0.33074
 Alpha  occ. eigenvalues --   -0.30445  -0.30167  -0.29487  -0.28893  -0.28134
 Alpha  occ. eigenvalues --   -0.27033  -0.26293  -0.25803  -0.22776  -0.22361
 Alpha  occ. eigenvalues --   -0.22072  -0.21815  -0.20145  -0.17435  -0.13937
 Alpha  occ. eigenvalues --    0.04337
 Alpha virt. eigenvalues --    0.06350   0.06837   0.07396   0.07914   0.08818
 Alpha virt. eigenvalues --    0.09171   0.09423   0.10031   0.11039   0.11617
 Alpha virt. eigenvalues --    0.11877   0.12195   0.12761   0.13026   0.13764

  Beta  occ. eigenvalues --  -19.11354 -14.26278 -14.20707 -10.14276 -10.11740
  Beta  occ. eigenvalues --  -10.11420 -10.09468 -10.08765 -10.08420 -10.06913
  Beta  occ. eigenvalues --  -10.06118 -10.06044 -10.05709  -1.04701  -0.82247
  Beta  occ. eigenvalues --   -0.77474  -0.72843  -0.69824  -0.64516  -0.59224
  Beta  occ. eigenvalues --   -0.59008  -0.58293  -0.53075  -0.51421  -0.47972
  Beta  occ. eigenvalues --   -0.43985  -0.43544  -0.39144  -0.38490  -0.36880
  Beta  occ. eigenvalues --   -0.36548  -0.35543  -0.34359  -0.33720  -0.33032
  Beta  occ. eigenvalues --   -0.30416  -0.30143  -0.29460  -0.28865  -0.28108
  Beta  occ. eigenvalues --   -0.27004  -0.26265  -0.25779  -0.22744  -0.22332
  Beta  occ. eigenvalues --   -0.22037  -0.21767  -0.20046  -0.17301  -0.13924
  Beta virt. eigenvalues --    0.06516   0.07065   0.07635   0.08031   0.08391
  Beta virt. eigenvalues --    0.09240   0.09672   0.09835   0.10493   0.11197
  Beta virt. eigenvalues --    0.12026   0.12189   0.12442   0.12891   0.13183

 Mulliken charges and spin densities:
               1          2
     1  C    0.234278  -0.942286
     2  C   -1.441034   2.212151
     3  C    0.394970  -0.914532
     4  C   -0.010438  -0.577156
     5  C    0.934575  -1.582555
     6  C   -0.466783   0.096095
     7  N    0.064044   0.026605
     8  C    0.526370  -1.491986
     9  C    1.006863  -0.683424
    10  N   -0.346758   0.162242
    11  O    0.135914  -0.025808
    12  C    0.589558  -0.754350
    13  C   -0.503053   0.496865
    14  H   -0.335779   0.498585
    15  H    0.808068  -0.669787
    16  H   -0.375983   0.539594
    17  H   -0.078012   0.218421
    18  H   -0.202105   0.331698
    19  H   -0.013219   0.148600
    20  H    0.046724   0.080049
    21  H   -0.073120   0.208931
    22  H   -0.072166   0.221225
    23  H    0.054332   0.141360
    24  H    0.084600   0.044258
    25  H    0.112723   0.050536
    26  H    0.103517  -0.004858
    27  H    0.240545  -0.009299
    28  H   -0.118809   0.304908
    29  H    0.115941   0.057522
    30  H   -1.280839   1.493575
    31  H   -1.134925   1.322821
 Sum of Mulliken charges =  -1.00000   1.00000

 Dipole moment (field-independent basis, Debye):
    X=              1.2270    Y=              4.0466    Z=             -4.5418  Tot=              6.2055
 Quadrupole moment (field-independent basis, Debye-Ang):
   XX=           -151.5641   YY=           -125.9622   ZZ=           -127.8259
   XY=             -8.2973   XZ=              3.9856   YZ=              5.3850

 Summary of Natural Population Analysis:

                                       Natural Population
                Natural  -----------------------------------------------
    Atom  No    Charge         Core      Valence    Rydberg      Total
 -----------------------------------------------------------------------
      C    1   -0.29147      0.99962     2.28361    0.00824     3.29147
      C    2   -0.04886      0.99959     2.03777    0.01150     3.04886
      C    3   -0.28117      0.99962     2.27530    0.00624     3.28117
      C    4   -0.28594      0.99962     2.27879    0.00753     3.28594
      C    5   -0.19314      0.99958     2.18342    0.01014     3.19314
      C    6   -0.09163      0.99961     2.08213    0.00988     3.09163
      N    7   -0.33405      0.99975     2.82330    0.01099     3.83405
      C    8   -0.10234      0.99958     2.09042    0.01235     3.10234
      C    9    0.07217      0.99959     1.91276    0.01547     2.92783
      N   10   -0.08267      0.99966     2.57067    0.01235     3.58267
      O   11   -0.16386      0.99987     3.15552    0.00847     4.16386
      C   12    0.09324      0.99954     1.89208    0.01514     2.90676
      C   13   -0.17465      0.99950     2.16434    0.01081     3.17465
      H   14    0.10360      0.00000     0.39516    0.00123     0.39640
      H   15    0.10139      0.00000     0.39659    0.00202     0.39861
      H   16    0.09941      0.00000     0.39907    0.00151     0.40059
      H   17    0.09969      0.00000     0.39927    0.00104     0.40031
      H   18    0.09776      0.00000     0.40118    0.00106     0.40224
      H   19    0.09946      0.00000     0.39945    0.00109     0.40054
      H   20    0.10055      0.00000     0.39825    0.00121     0.39945
      H   21    0.09725      0.00000     0.40189    0.00086     0.40275
      H   22    0.10054      0.00000     0.39863    0.00083     0.39946
      H   23    0.10241      0.00000     0.39619    0.00140     0.39759
      H   24    0.09951      0.00000     0.39961    0.00088     0.40049
      H   25    0.09060      0.00000     0.40829    0.00111     0.40940
      H   26    0.08754      0.00000     0.41036    0.00210     0.41246
      H   27    0.17684      0.00000     0.31915    0.00401     0.32316
      H   28    0.10270      0.00000     0.39636    0.00095     0.39730
      H   29    0.10079      0.00000     0.39804    0.00117     0.39921
      H   30    0.10398      0.00000     0.39310    0.00293     0.39602
      H   31    0.12037      0.00000     0.37568    0.00395     0.37963
 =======================================================================
   * Total *   -0.00000     12.99515    36.83639    0.16846    50.00000

 Normal termination of Gaussian 16 at Wed Dec  9 23:36:08 2020.
