 Gaussian 16, Revision A.03,

 -----------------------------------------------------------
 # opt freq B3LYP/6-31G(d) empiricaldispersion=gd3bj scf=xqc
 -----------------------------------------------------------

 ------------------------------
 CID_66003869_JID_7603_neutraal
 ------------------------------
 Symbolic Z-matrix:
 Charge =  0 Multiplicity = 1

 SCF Done:  E(RB3LYP) =  -785.835444358     A.U. after   14 cycles
 SCF Done:  E(RB3LYP) =  -785.839866309     A.U. after   12 cycles
 SCF Done:  E(RB3LYP) =  -785.841060422     A.U. after   12 cycles
 SCF Done:  E(RB3LYP) =  -785.842329583     A.U. after   12 cycles
 SCF Done:  E(RB3LYP) =  -785.842926648     A.U. after   12 cycles
 SCF Done:  E(RB3LYP) =  -785.843132202     A.U. after   12 cycles
 SCF Done:  E(RB3LYP) =  -785.843284654     A.U. after   11 cycles
 SCF Done:  E(RB3LYP) =  -785.843351846     A.U. after   11 cycles
 SCF Done:  E(RB3LYP) =  -785.843385924     A.U. after   10 cycles
 SCF Done:  E(RB3LYP) =  -785.843402200     A.U. after   10 cycles
 SCF Done:  E(RB3LYP) =  -785.843456235     A.U. after   10 cycles
 SCF Done:  E(RB3LYP) =  -785.843461243     A.U. after    9 cycles
 SCF Done:  E(RB3LYP) =  -785.843461235     A.U. after    9 cycles
 SCF Done:  E(RB3LYP) =  -785.843461392     A.U. after    7 cycles
 SCF Done:  E(RB3LYP) =  -785.843461416     A.U. after    6 cycles
 SCF Done:  E(RB3LYP) =  -785.843461427     A.U. after    6 cycles
 Optimization completed.
    -- Stationary point found.
 Normal termination of Gaussian 16 at Fri Dec 11 13:13:16 2020.

 --------------------------------------------------------------------
 #N Geom=AllCheck Guess=TCheck SCRF=Check GenChk RB3LYP/6-31G(d) Freq
 --------------------------------------------------------------------

 Structure from the checkpoint file:  "JID_7603.chk"
 ------------------------------
 CID_66003869_JID_7603_neutraal
 ------------------------------
 Charge =  0 Multiplicity = 1

 SCF Done:  E(RB3LYP) =  -785.843461427     A.U. after    1 cycles

  Exact polarizability: 177.987   8.345 160.628   0.728   7.103 113.570
 Approx polarizability: 231.635   3.061 227.297   0.530  17.604 178.468

                      1                      2                      3
                      A                      A                      A
 Frequencies --     24.2359                32.4199                48.1051
 Red. masses --      3.5327                 3.6282                 3.8149
 Frc consts  --      0.0012                 0.0022                 0.0052
 IR Inten    --      0.7524                 1.1200                 0.5185

                      4                      5                      6
                      A                      A                      A
 Frequencies --     58.0331                67.3868                72.1694
 Red. masses --      2.6932                 1.5239                 2.1641
 Frc consts  --      0.0053                 0.0041                 0.0066
 IR Inten    --      0.5441                 0.8817                 0.7093

                      7                      8                      9
                      A                      A                      A
 Frequencies --     78.6982               102.7622               117.6897
 Red. masses --      3.0504                 3.0582                 3.4142
 Frc consts  --      0.0111                 0.0190                 0.0279
 IR Inten    --      0.1999                 6.3894                 2.3092

                     10                     11                     12
                      A                      A                      A
 Frequencies --    174.4416               197.9102               201.9578
 Red. masses --      2.9364                 2.1955                 3.0345
 Frc consts  --      0.0526                 0.0507                 0.0729
 IR Inten    --      2.7999                 0.5176                 0.4798

                     13                     14                     15
                      A                      A                      A
 Frequencies --    213.3596               225.0131               251.6394
 Red. masses --      1.2800                 2.4738                 2.1255
 Frc consts  --      0.0343                 0.0738                 0.0793
 IR Inten    --      3.3344                 2.0738                 3.9433

                     16                     17                     18
                      A                      A                      A
 Frequencies --    261.7990               287.0803               312.6207
 Red. masses --      1.8314                 2.9027                 2.8193
 Frc consts  --      0.0740                 0.1409                 0.1623
 IR Inten    --      2.9482                 0.1876                 3.1212

                     19                     20                     21
                      A                      A                      A
 Frequencies --    319.3784               341.4029               358.3049
 Red. masses --      2.5623                 1.2295                 1.9425
 Frc consts  --      0.1540                 0.0844                 0.1469
 IR Inten    --      8.2022                63.7056                36.6145

                     22                     23                     24
                      A                      A                      A
 Frequencies --    377.6000               412.5330               415.5327
 Red. masses --      2.5944                 2.8220                 2.2102
 Frc consts  --      0.2179                 0.2830                 0.2249
 IR Inten    --     25.7068                 0.8290                 2.1045

                     25                     26                     27
                      A                      A                      A
 Frequencies --    451.8879               509.4591               529.7389
 Red. masses --      2.8950                 2.6617                 2.5541
 Frc consts  --      0.3483                 0.4070                 0.4223
 IR Inten    --      6.9640                 2.8097                 7.9799

                     28                     29                     30
                      A                      A                      A
 Frequencies --    590.9558               625.0822               661.5109
 Red. masses --      2.6688                 3.9092                 5.0208
 Frc consts  --      0.5491                 0.8999                 1.2945
 IR Inten    --      0.7889                 3.9512                 4.9340

                     31                     32                     33
                      A                      A                      A
 Frequencies --    697.7019               755.8783               765.3879
 Red. masses --      3.4942                 1.8997                 1.7657
 Frc consts  --      1.0022                 0.6395                 0.6094
 IR Inten    --     11.3703                25.8092                63.7686

                     34                     35                     36
                      A                      A                      A
 Frequencies --    777.0860               794.9210               821.9111
 Red. masses --      2.4770                 2.0421                 2.0266
 Frc consts  --      0.8813                 0.7603                 0.8066
 IR Inten    --     13.3181                 3.8453                 8.0954

                     37                     38                     39
                      A                      A                      A
 Frequencies --    872.7214               885.0705               913.1600
 Red. masses --      1.4168                 1.9213                 1.8160
 Frc consts  --      0.6358                 0.8868                 0.8922
 IR Inten    --     14.1885                 9.1157                16.6144

                     40                     41                     42
                      A                      A                      A
 Frequencies --    918.3508               943.9655               964.6830
 Red. masses --      2.0843                 1.8865                 1.9130
 Frc consts  --      1.0357                 0.9904                 1.0489
 IR Inten    --      3.7181                10.1618                17.9955

                     43                     44                     45
                      A                      A                      A
 Frequencies --   1008.5921              1011.4210              1024.7335
 Red. masses --      3.3424                 2.5658                 1.8444
 Frc consts  --      2.0032                 1.5465                 1.1411
 IR Inten    --     33.1382                16.4521                 6.1563

                     46                     47                     48
                      A                      A                      A
 Frequencies --   1046.2771              1052.6152              1081.5384
 Red. masses --      2.5443                 4.0642                 1.5528
 Frc consts  --      1.6410                 2.6532                 1.0702
 IR Inten    --     36.2624                11.1425                 8.0320

                     49                     50                     51
                      A                      A                      A
 Frequencies --   1105.4245              1115.7254              1140.8190
 Red. masses --      2.0863                 1.8937                 1.9099
 Frc consts  --      1.5021                 1.3889                 1.4645
 IR Inten    --      6.2807                18.5194                52.0008

                     52                     53                     54
                      A                      A                      A
 Frequencies --   1151.4490              1159.8139              1161.3507
 Red. masses --      1.6125                 1.5108                 2.6615
 Frc consts  --      1.2597                 1.1974                 2.1150
 IR Inten    --      6.9810                 4.6912                43.2148

                     55                     56                     57
                      A                      A                      A
 Frequencies --   1178.6985              1191.8421              1194.6713
 Red. masses --      4.0217                 1.4525                 1.6460
 Frc consts  --      3.2921                 1.2157                 1.3841
 IR Inten    --     73.5484                28.9202                 6.2406

                     58                     59                     60
                      A                      A                      A
 Frequencies --   1203.5111              1227.3256              1236.2655
 Red. masses --      1.6650                 1.4125                 1.6110
 Frc consts  --      1.4209                 1.2536                 1.4507
 IR Inten    --     24.0725                 2.3076                10.9036

                     61                     62                     63
                      A                      A                      A
 Frequencies --   1253.8610              1267.4082              1273.3477
 Red. masses --      1.3386                 1.2961                 1.2354
 Frc consts  --      1.2399                 1.2266                 1.1802
 IR Inten    --     12.2952                46.7214                19.7989

                     64                     65                     66
                      A                      A                      A
 Frequencies --   1296.6927              1343.8133              1350.4051
 Red. masses --      1.3854                 1.9079                 1.7347
 Frc consts  --      1.3724                 2.0300                 1.8639
 IR Inten    --     19.6199                 7.8025                10.5652

                     67                     68                     69
                      A                      A                      A
 Frequencies --   1369.1867              1382.9292              1395.3946
 Red. masses --      1.7381                 1.5305                 1.6667
 Frc consts  --      1.9197                 1.7246                 1.9120
 IR Inten    --      5.5573                 1.9531                43.1778

                     70                     71                     72
                      A                      A                      A
 Frequencies --   1404.3901              1415.1401              1425.3971
 Red. masses --      1.3265                 3.4055                 1.3991
 Frc consts  --      1.5414                 4.0182                 1.6749
 IR Inten    --      7.3861                 7.1350                 7.8381

                     73                     74                     75
                      A                      A                      A
 Frequencies --   1433.0517              1440.9545              1451.5120
 Red. masses --      1.3501                 2.2986                 1.6046
 Frc consts  --      1.6336                 2.8120                 1.9919
 IR Inten    --     14.9691                19.0281                12.4740

                     76                     77                     78
                      A                      A                      A
 Frequencies --   1467.9868              1491.3597              1498.6672
 Red. masses --      1.6770                 1.9070                 1.0878
 Frc consts  --      2.1293                 2.4990                 1.4395
 IR Inten    --     26.4146                17.1945                 1.7983

                     79                     80                     81
                      A                      A                      A
 Frequencies --   1501.1996              1508.3808              1511.0255
 Red. masses --      1.1642                 1.0891                 1.0659
 Frc consts  --      1.5458                 1.4600                 1.4339
 IR Inten    --      3.5429                 3.9531                 9.9393

                     82                     83                     84
                      A                      A                      A
 Frequencies --   1514.7010              1515.9536              1524.2802
 Red. masses --      1.0730                 1.0511                 1.1427
 Frc consts  --      1.4504                 1.4232                 1.5643
 IR Inten    --      1.0885                 7.8998                20.5559

                     85                     86                     87
                      A                      A                      A
 Frequencies --   1530.4637              1530.7210              1538.5421
 Red. masses --      1.0651                 1.0582                 1.1279
 Frc consts  --      1.4699                 1.4608                 1.5731
 IR Inten    --      2.4469                13.9488                10.3416

                     88                     89                     90
                      A                      A                      A
 Frequencies --   1546.1998              1550.5270              1558.5013
 Red. masses --      1.1887                 1.0904                 1.0853
 Frc consts  --      1.6743                 1.5446                 1.5531
 IR Inten    --      6.2986                 2.5217                10.1191

                     91                     92                     93
                      A                      A                      A
 Frequencies --   1620.9086              2966.3800              2983.1810
 Red. masses --      5.1999                 1.0701                 1.0483
 Frc consts  --      8.0493                 5.5480                 5.4967
 IR Inten    --      7.5205                32.0649                27.8088

                     94                     95                     96
                      A                      A                      A
 Frequencies --   2994.2028              2997.7841              3015.4803
 Red. masses --      1.0477                 1.0714                 1.1027
 Frc consts  --      5.5343                 5.6729                 5.9076
 IR Inten    --     77.3281                42.3275                69.5028

                     97                     98                     99
                      A                      A                      A
 Frequencies --   3026.6237              3035.4570              3048.0771
 Red. masses --      1.0666                 1.1035                 1.0810
 Frc consts  --      5.7566                 5.9909                 5.9173
 IR Inten    --     39.7581                72.5398                18.9849

                    100                    101                    102
                      A                      A                      A
 Frequencies --   3050.8190              3059.3879              3066.5470
 Red. masses --      1.0699                 1.0389                 1.0368
 Frc consts  --      5.8671                 5.7290                 5.7443
 IR Inten    --    102.6320                61.2069                12.1149

                    103                    104                    105
                      A                      A                      A
 Frequencies --   3091.1607              3093.0176              3094.3090
 Red. masses --      1.0947                 1.1054                 1.0900
 Frc consts  --      6.1631                 6.2306                 6.1493
 IR Inten    --     28.9588                33.1353                11.9297

                    106                    107                    108
                      A                      A                      A
 Frequencies --   3130.9152              3132.0632              3134.3780
 Red. masses --      1.0981                 1.0968                 1.1024
 Frc consts  --      6.3420                 6.3395                 6.3811
 IR Inten    --     17.9157                32.4505                29.1816

                    109                    110                    111
                      A                      A                      A
 Frequencies --   3153.9392              3167.9757              3270.2562
 Red. masses --      1.1012                 1.1048                 1.0965
 Frc consts  --      6.4538                 6.5326                 6.9093
 IR Inten    --     18.5692                 8.4237                 1.5977

                    112                    113                    114
                      A                      A                      A
 Frequencies --   3280.3253              3533.9543              3720.1986
 Red. masses --      1.0961                 1.0728                 1.0657
 Frc consts  --      6.9495                 7.8939                 8.6902
 IR Inten    --      2.8255                 3.1609                 6.4011

 - Thermochemistry -
 -------------------
 Temperature   298.150 Kelvin.  Pressure   1.00000 Atm.
 Atom     1 has atomic number  6 and mass  12.00000

 Molecular mass:   241.17903 amu.
 Principal axes and moments of inertia in atomic units:
                           1         2         3
     Eigenvalues --  3096.823286102.890198487.35195
           X            0.99991   0.01313  -0.00028
           Y           -0.01313   0.99990   0.00612
           Z            0.00036  -0.00612   0.99998
 This molecule is an asymmetric top.
 Rotational symmetry number  1.
 Warning -- assumption of classical behavior for rotation
           may cause significant error
 Rotational temperatures (Kelvin)      0.02797     0.01419     0.01021
 Rotational constants (GHZ):           0.58277     0.29572     0.21264
 Zero-point vibrational energy     931190.9 (Joules/Mol)
                                  222.55996 (Kcal/Mol)
 Warning -- explicit consideration of  28 degrees of freedom as
           vibrations may cause significant error
 Vibrational temperatures:     34.87    46.65    69.21    83.50    96.95
          (Kelvin)            103.84   113.23   147.85   169.33   250.98
                              284.75   290.57   306.98   323.74   362.05
                              376.67   413.04   449.79   459.51   491.20
                              515.52   543.28   593.54   597.86   650.17
                              733.00   762.18   850.25   899.35   951.77
                             1003.84  1087.54  1101.22  1118.05  1143.71
                             1182.55  1255.65  1273.42  1313.83  1321.30
                             1358.16  1387.96  1451.14  1455.21  1474.36
                             1505.36  1514.48  1556.09  1590.46  1605.28
                             1641.38  1656.68  1668.71  1670.92  1695.88
                             1714.79  1718.87  1731.58  1765.85  1778.71
                             1804.03  1823.52  1832.06  1865.65  1933.45
                             1942.93  1969.95  1989.73  2007.66  2020.60
                             2036.07  2050.83  2061.84  2073.21  2088.40
                             2112.11  2145.73  2156.25  2159.89  2170.22
                             2174.03  2179.32  2181.12  2193.10  2202.00
                             2202.37  2213.62  2224.64  2230.86  2242.34
                             2332.13  4267.96  4292.13  4307.99  4313.14
                             4338.60  4354.64  4367.35  4385.50  4389.45
                             4401.78  4412.08  4447.49  4450.16  4452.02
                             4504.69  4506.34  4509.67  4537.81  4558.01
                             4705.17  4719.66  5084.57  5352.54

 Zero-point correction=                           0.354672 (Hartree/Particle)
 Thermal correction to Energy=                    0.373929
 Thermal correction to Enthalpy=                  0.374873
 Thermal correction to Gibbs Free Energy=         0.305398
 Sum of electronic and zero-point Energies=           -785.488790
 Sum of electronic and thermal Energies=              -785.469533
 Sum of electronic and thermal Enthalpies=            -785.468588
 Sum of electronic and thermal Free Energies=         -785.538063

                     E (Thermal)             CV                S
                      KCal/Mol        Cal/Mol-Kelvin    Cal/Mol-Kelvin
 Total                  234.644             70.347            146.222
 Electronic               0.000              0.000              0.000
 Translational            0.889              2.981             42.342
 Rotational               0.889              2.981             33.439
 Vibrational            232.866             64.386             70.441
 Vibration     1          0.593              1.985              6.253
 Vibration     2          0.594              1.983              5.676
 Vibration     3          0.595              1.978              4.894
 Vibration     4          0.596              1.974              4.523
 Vibration     5          0.598              1.970              4.228
 Vibration     6          0.598              1.967              4.093
 Vibration     7          0.600              1.963              3.923
 Vibration     8          0.605              1.947              3.401
 Vibration     9          0.608              1.935              3.138
 Vibration    10          0.627              1.874              2.387
 Vibration    11          0.637              1.843              2.152
 Vibration    12          0.639              1.837              2.115
 Vibration    13          0.644              1.821              2.015
 Vibration    14          0.650              1.803              1.918
 Vibration    15          0.664              1.760              1.719
 Vibration    16          0.669              1.743              1.650
 Vibration    17          0.684              1.698              1.491
 Vibration    18          0.701              1.650              1.348
 Vibration    19          0.705              1.636              1.313
 Vibration    20          0.721              1.593              1.206
 Vibration    21          0.733              1.558              1.129
 Vibration    22          0.748              1.518              1.049
 Vibration    23          0.776              1.443              0.918
 Vibration    24          0.779              1.437              0.907
 Vibration    25          0.811              1.357              0.790
 Vibration    26          0.865              1.229              0.635
 Vibration    27          0.885              1.184              0.588
 Vibration    28          0.948              1.051              0.465

 Optimization completed.
    -- Stationary point found.
 Normal termination of Gaussian 16 at Fri Dec 11 13:28:36 2020.

 ----------------------------------------------------------------------
 # B3LYP/6-311++G(d,p) empiricaldispersion=gd3bj scf=xqc pop=npa geom=c
 heck
 ----------------------------------------------------------------------

 --------------------------------------
 CID_66003869_JID_7603_Energie_neutraal
 --------------------------------------
 Structure from the checkpoint file:  "JID_7603.chk"
 Charge =  0 Multiplicity = 1

 SCF Done:  E(RB3LYP) =  -786.076624487     A.U. after   14 cycles
 Normal termination of Gaussian 16 at Fri Dec 11 13:35:25 2020.

 ----------------------------------------------------------------------
 # B3LYP/6-311++G(d,p) empiricaldispersion=gd3bj scf=xqc pop=npa geom=c
 heck
 ----------------------------------------------------------------------

 ------------------------------------
 CID_66003869_JID_7603_Energie_kation
 ------------------------------------
 Structure from the checkpoint file:  "JID_7603.chk"
 Charge =  1 Multiplicity = 2

 SCF Done:  E(UB3LYP) =  -785.786929037     A.U. after   27 cycles
 Normal termination of Gaussian 16 at Fri Dec 11 13:52:42 2020.
 Gaussian 16:  ES64L-G16RevA.03 25-Dec-2016

 ----------------------------------------------------------------------
 # B3LYP/6-311++G(d,p) empiricaldispersion=gd3bj scf=xqc pop=npa geom=c
 heck
 ----------------------------------------------------------------------

 -----------------------------------
 CID_66003869_JID_7603_Energie_anion
 -----------------------------------
 Structure from the checkpoint file:  "JID_7603.chk"
 Charge = -1 Multiplicity = 2

                         Standard orientation:
 ---------------------------------------------------------------------
 Center     Atomic      Atomic             Coordinates (Angstroms)
 Number     Number       Type             X           Y           Z
 ---------------------------------------------------------------------
      1          6           0        0.161971   -1.759724    1.701911
      2          6           0       -0.178071   -1.922022    0.221563
      3          6           0       -1.666096   -2.286189    0.016995
      4          6           0       -2.706677   -1.217361    0.380821
      5          7           0       -3.067279   -0.397243   -0.777639
      6          6           0       -3.860875    0.783122   -0.458532
      7          6           0       -3.133665    1.859876    0.350554
      8          8           0       -1.966215    2.219141   -0.372363
      9          6           0       -1.177567    3.178859    0.294154
     10          6           0        0.220583   -0.665055   -0.589114
     11          6           0        1.648646   -0.236271   -0.428043
     12          6           0        2.100877    0.997418    0.009933
     13          7           0        3.460755    0.950484    0.021323
     14          7           0        3.932955   -0.246656   -0.395468
     15          6           0        2.842290   -0.966075   -0.661538
     16          6           0        4.387982    2.022519    0.312437
     17          8           0        0.608239   -3.046980   -0.211807
     18          1           0       -0.348115   -0.891741    2.131371
     19          1           0        1.238507   -1.619087    1.822281
     20          1           0       -0.137684   -2.654383    2.256464
     21          1           0       -1.827551   -2.560494   -1.036015
     22          1           0       -1.845457   -3.193195    0.604674
     23          1           0       -3.626248   -1.706161    0.727554
     24          1           0       -2.334963   -0.628601    1.237519
     25          1           0       -2.225345   -0.083951   -1.253370
     26          1           0       -4.195564    1.230842   -1.401917
     27          1           0       -4.758913    0.471498    0.090460
     28          1           0       -3.786213    2.737835    0.490800
     29          1           0       -2.856259    1.493132    1.352035
     30          1           0       -1.731123    4.116352    0.460295
     31          1           0       -0.826016    2.807854    1.270844
     32          1           0       -0.313913    3.385605   -0.343638
     33          1           0        0.006806   -0.876520   -1.649088
     34          1           0       -0.428008    0.172132   -0.309762
     35          1           0        1.561709    1.883583    0.313832
     36          1           0        2.936783   -1.993588   -0.981487
     37          1           0        5.259363    1.602627    0.818196
     38          1           0        4.715928    2.524477   -0.605057
     39          1           0        3.902265    2.750463    0.966967
     40          1           0        0.362417   -3.226636   -1.133979
 ---------------------------------------------------------------------

 SCF Done:  E(UB3LYP) =  -786.067006794     A.U. after   32 cycles

 The electronic state is 2-A.
 Alpha  occ. eigenvalues --  -19.03944 -19.03806 -14.29410 -14.23227 -14.20920
 Alpha  occ. eigenvalues --  -10.14637 -10.12366 -10.11620 -10.11550 -10.10836
 Alpha  occ. eigenvalues --  -10.10683 -10.10638 -10.08999 -10.08775 -10.08598
 Alpha  occ. eigenvalues --  -10.07722 -10.06815  -0.95423  -0.95083  -0.94313
 Alpha  occ. eigenvalues --   -0.82114  -0.74837  -0.72308  -0.69529  -0.66475
 Alpha  occ. eigenvalues --   -0.63638  -0.62093  -0.58972  -0.57832  -0.54832
 Alpha  occ. eigenvalues --   -0.50977  -0.49669  -0.48302  -0.47543  -0.43441
 Alpha  occ. eigenvalues --   -0.41326  -0.40960  -0.39984  -0.39257  -0.38415
 Alpha  occ. eigenvalues --   -0.37957  -0.36853  -0.35840  -0.35397  -0.34503
 Alpha  occ. eigenvalues --   -0.33162  -0.32901  -0.31055  -0.30726  -0.30066
 Alpha  occ. eigenvalues --   -0.29733  -0.29559  -0.29276  -0.28308  -0.28195
 Alpha  occ. eigenvalues --   -0.27208  -0.26361  -0.25557  -0.23845  -0.23771
 Alpha  occ. eigenvalues --   -0.19928  -0.19507  -0.17536  -0.15992  -0.14535
 Alpha  occ. eigenvalues --   -0.14116   0.03980
 Alpha virt. eigenvalues --    0.05850   0.06240   0.07068   0.07437   0.08303
 Alpha virt. eigenvalues --    0.08689   0.09119   0.09177   0.09924   0.10136
 Alpha virt. eigenvalues --    0.10874   0.11134   0.11299   0.11659   0.11883

  Beta  occ. eigenvalues --  -19.03941 -19.03796 -14.29409 -14.23221 -14.20920
  Beta  occ. eigenvalues --  -10.14636 -10.12338 -10.11575 -10.11498 -10.10823
  Beta  occ. eigenvalues --  -10.10665 -10.10628 -10.08998 -10.08772 -10.08593
  Beta  occ. eigenvalues --  -10.07722 -10.06800  -0.95417  -0.95063  -0.94307
  Beta  occ. eigenvalues --   -0.82105  -0.74822  -0.72298  -0.69514  -0.66447
  Beta  occ. eigenvalues --   -0.63609  -0.62064  -0.58934  -0.57762  -0.54793
  Beta  occ. eigenvalues --   -0.50921  -0.49649  -0.48280  -0.47505  -0.43406
  Beta  occ. eigenvalues --   -0.41285  -0.40938  -0.39955  -0.39227  -0.38392
  Beta  occ. eigenvalues --   -0.37928  -0.36831  -0.35814  -0.35368  -0.34483
  Beta  occ. eigenvalues --   -0.33137  -0.32866  -0.31036  -0.30699  -0.30042
  Beta  occ. eigenvalues --   -0.29708  -0.29537  -0.29250  -0.28268  -0.28178
  Beta  occ. eigenvalues --   -0.27196  -0.26344  -0.25539  -0.23836  -0.23706
  Beta  occ. eigenvalues --   -0.19917  -0.19501  -0.17508  -0.15982  -0.14528
  Beta  occ. eigenvalues --   -0.14108
  Beta virt. eigenvalues --    0.05928   0.06651   0.06825   0.07439   0.07954
  Beta virt. eigenvalues --    0.08608   0.09049   0.09184   0.09501   0.10179
  Beta virt. eigenvalues --    0.10453   0.11047   0.11390   0.11538   0.12038

 Mulliken charges and spin densities:
               1          2
     1  C   -0.323582  -0.370472
     2  C   -0.070763   0.534120
     3  C   -0.150711  -0.279066
     4  C   -0.253235  -0.101665
     5  N   -0.032078   0.044191
     6  C   -0.213027  -0.289990
     7  C    0.264081  -0.413985
     8  O   -0.187519   0.055069
     9  C    0.839052  -1.112973
    10  C   -0.640475  -0.000932
    11  C    1.091520  -0.731121
    12  C   -1.356934   1.134475
    13  N    0.098223   0.063559
    14  N   -0.233934   0.137129
    15  C   -0.420086  -0.371755
    16  C    1.008048  -1.276912
    17  O   -0.164249  -0.011500
    18  H   -0.117790   0.256579
    19  H    0.142641   0.061975
    20  H    0.073577   0.088992
    21  H    0.113871   0.024797
    22  H    0.094749   0.071533
    23  H   -0.012720   0.179126
    24  H    0.194767  -0.139430
    25  H    0.212123   0.066233
    26  H    0.118696   0.063412
    27  H   -0.114513   0.253609
    28  H   -0.385655   0.544473
    29  H   -0.073541   0.223129
    30  H   -0.593888   0.745599
    31  H   -0.303514   0.425840
    32  H   -0.326736   0.471581
    33  H    0.077209   0.127248
    34  H    1.033455  -1.010417
    35  H    0.250757   0.025809
    36  H    0.116024   0.026276
    37  H   -0.107578   0.268022
    38  H   -0.177026   0.348891
    39  H   -0.689187   0.841287
    40  H    0.219948   0.027263
 Sum of Mulliken charges =  -1.00000   1.00000

 Dipole moment (field-independent basis, Debye):
    X=             -2.1413    Y=             -8.1142    Z=             -3.1811  Tot=              8.9747
 Quadrupole moment (field-independent basis, Debye-Ang):
   XX=           -188.6101   YY=           -178.6164   ZZ=           -137.8710
   XY=              1.0545   XZ=             -0.6180   YZ=             -6.0970

 Summary of Natural Population Analysis:

                                       Natural Population
                Natural  -----------------------------------------------
    Atom  No    Charge         Core      Valence    Rydberg      Total
 -----------------------------------------------------------------------
      C    1   -0.29589      0.99961     2.28828    0.00800     3.29589
      C    2    0.13692      0.99953     1.84944    0.01411     2.86308
      C    3   -0.20358      0.99957     2.19429    0.00971     3.20358
      C    4   -0.09322      0.99962     2.08208    0.01152     3.09322
      N    5   -0.34181      0.99975     2.83126    0.01080     3.84181
      C    6   -0.09509      0.99963     2.08287    0.01259     3.09509
      C    7   -0.01825      0.99959     2.00684    0.01181     3.01825
      O    8   -0.30516      0.99989     3.29564    0.00964     4.30516
      C    9   -0.09747      0.99962     2.08792    0.00993     3.09747
      C   10   -0.21669      0.99955     2.20702    0.01013     3.21669
      C   11   -0.07536      0.99953     2.06445    0.01138     3.07536
      C   12   -0.00316      0.99949     1.99158    0.01209     3.00316
      N   13   -0.10600      0.99967     2.59361    0.01272     3.60600
      N   14   -0.15528      0.99973     2.64410    0.01145     3.65528
      C   15   -0.00974      0.99957     1.99682    0.01335     3.00974
      C   16   -0.17169      0.99964     2.16371    0.00834     3.17169
      O   17   -0.37639      0.99989     3.36971    0.00679     4.37639
      H   18    0.10263      0.00000     0.39619    0.00118     0.39737
      H   19    0.11122      0.00000     0.38791    0.00087     0.38878
      H   20    0.10058      0.00000     0.39862    0.00080     0.39942
      H   21    0.09785      0.00000     0.40078    0.00137     0.40215
      H   22    0.10463      0.00000     0.39443    0.00094     0.39537
      H   23    0.09199      0.00000     0.40687    0.00115     0.40801
      H   24    0.08390      0.00000     0.41419    0.00191     0.41610
      H   25    0.17694      0.00000     0.31940    0.00367     0.32306
      H   26    0.09538      0.00000     0.40348    0.00114     0.40462
      H   27    0.09302      0.00000     0.40596    0.00103     0.40698
      H   28    0.08422      0.00000     0.41398    0.00180     0.41578
      H   29    0.07925      0.00000     0.41904    0.00171     0.42075
      H   30    0.08256      0.00000     0.41508    0.00236     0.41744
      H   31    0.08061      0.00000     0.41691    0.00249     0.41939
      H   32    0.09060      0.00000     0.40769    0.00171     0.40940
      H   33    0.09825      0.00000     0.40052    0.00123     0.40175
      H   34    0.11400      0.00000     0.38322    0.00278     0.38600
      H   35    0.10841      0.00000     0.38984    0.00175     0.39159
      H   36    0.10106      0.00000     0.39796    0.00097     0.39894
      H   37    0.10392      0.00000     0.39460    0.00147     0.39608
      H   38    0.09722      0.00000     0.40153    0.00125     0.40278
      H   39    0.10549      0.00000     0.39207    0.00244     0.39451
      H   40    0.22413      0.00000     0.27346    0.00241     0.27587
 =======================================================================
   * Total *   -0.00000     16.99386    48.78337    0.22277    66.00000

 Normal termination of Gaussian 16 at Fri Dec 11 14:12:28 2020.
