 Gaussian 16, Revision A.03,

 -----------------------------------------------------------
 # opt freq B3LYP/6-31G(d) empiricaldispersion=gd3bj scf=xqc
 -----------------------------------------------------------

 ------------------------------
 CID_92011607_JID_3515_neutraal
 ------------------------------
 Symbolic Z-matrix:
 Charge =  0 Multiplicity = 1

 SCF Done:  E(RB3LYP) =  -610.191346274     A.U. after   14 cycles
 SCF Done:  E(RB3LYP) =  -610.195577519     A.U. after   12 cycles
 SCF Done:  E(RB3LYP) =  -610.196001749     A.U. after   12 cycles
 SCF Done:  E(RB3LYP) =  -610.196266316     A.U. after   12 cycles
 SCF Done:  E(RB3LYP) =  -610.196523380     A.U. after   11 cycles
 SCF Done:  E(RB3LYP) =  -610.196626692     A.U. after   11 cycles
 SCF Done:  E(RB3LYP) =  -610.196681111     A.U. after   11 cycles
 SCF Done:  E(RB3LYP) =  -610.196721387     A.U. after   10 cycles
 SCF Done:  E(RB3LYP) =  -610.196770937     A.U. after   11 cycles
 SCF Done:  E(RB3LYP) =  -610.196795537     A.U. after   10 cycles
 SCF Done:  E(RB3LYP) =  -610.196867188     A.U. after    9 cycles
 SCF Done:  E(RB3LYP) =  -610.196869582     A.U. after    9 cycles
 SCF Done:  E(RB3LYP) =  -610.196871223     A.U. after    9 cycles
 SCF Done:  E(RB3LYP) =  -610.196871658     A.U. after    8 cycles
 SCF Done:  E(RB3LYP) =  -610.196871783     A.U. after    8 cycles
 Optimization completed.
    -- Stationary point found.
 Normal termination of Gaussian 16 at Wed Dec  9 23:34:24 2020.

 --------------------------------------------------------------------
 #N Geom=AllCheck Guess=TCheck SCRF=Check GenChk RB3LYP/6-31G(d) Freq
 --------------------------------------------------------------------

 Structure from the checkpoint file:  "JID_3515.chk"
 ------------------------------
 CID_92011607_JID_3515_neutraal
 ------------------------------
 Charge =  0 Multiplicity = 1

 SCF Done:  E(RB3LYP) =  -610.196871783     A.U. after    1 cycles

  Exact polarizability: 143.462  -1.335 110.192 -16.110  -6.798  79.241
 Approx polarizability: 194.984  -3.214 189.729 -33.716 -13.070 117.085

                      1                      2                      3
                      A                      A                      A
 Frequencies --     27.9528                35.4829                72.3886
 Red. masses --      4.0743                 3.9262                 2.9148
 Frc consts  --      0.0019                 0.0029                 0.0090
 IR Inten    --      0.1387                 2.7405                 4.8719

                      4                      5                      6
                      A                      A                      A
 Frequencies --     83.2866               117.0894               149.8906
 Red. masses --      1.4395                 5.8055                 3.4595
 Frc consts  --      0.0059                 0.0469                 0.0458
 IR Inten    --      0.1847                 6.0268                 3.0043

                      7                      8                      9
                      A                      A                      A
 Frequencies --    192.8410               230.6887               265.2897
 Red. masses --      3.9432                 6.8598                 3.5755
 Frc consts  --      0.0864                 0.2151                 0.1483
 IR Inten    --      2.2445                 1.5754                 2.3675

                     10                     11                     12
                      A                      A                      A
 Frequencies --    305.6356               356.0465               393.9421
 Red. masses --      1.0416                 2.7861                 3.4685
 Frc consts  --      0.0573                 0.2081                 0.3171
 IR Inten    --     23.1092                11.9769                16.1322

                     13                     14                     15
                      A                      A                      A
 Frequencies --    415.4491               420.7918               471.1860
 Red. masses --      2.3575                 3.0971                 1.3183
 Frc consts  --      0.2397                 0.3231                 0.1724
 IR Inten    --      4.4688                 0.7861               117.1958

                     16                     17                     18
                      A                      A                      A
 Frequencies --    493.1197               561.5201               575.3890
 Red. masses --      3.4711                 2.9431                 4.9928
 Frc consts  --      0.4973                 0.5468                 0.9739
 IR Inten    --     64.1715                 7.2103                23.4255

                     19                     20                     21
                      A                      A                      A
 Frequencies --    615.4518               659.9689               673.6295
 Red. masses --      1.4493                 6.5948                 3.2687
 Frc consts  --      0.3234                 1.6924                 0.8739
 IR Inten    --    360.3159                 0.5451                10.4339

                     22                     23                     24
                      A                      A                      A
 Frequencies --    740.4740               764.6832               788.2566
 Red. masses --      3.8196                 9.4410                 3.5372
 Frc consts  --      1.2339                 3.2526                 1.2949
 IR Inten    --     18.5553                22.1936                27.7771

                     25                     26                     27
                      A                      A                      A
 Frequencies --    826.0238               844.7981               861.0210
 Red. masses --      1.2921                 2.2778                 3.2275
 Frc consts  --      0.5194                 0.9578                 1.4098
 IR Inten    --      2.6641                53.5428                 6.6483

                     28                     29                     30
                      A                      A                      A
 Frequencies --    866.9013               942.8960               969.8460
 Red. masses --      5.1057                 1.3225                 1.3127
 Frc consts  --      2.2607                 0.6927                 0.7275
 IR Inten    --      8.2799                 1.0559                 5.3397

                     31                     32                     33
                      A                      A                      A
 Frequencies --   1007.1843              1022.1434              1038.6595
 Red. masses --      2.2282                 2.9162                 2.7334
 Frc consts  --      1.3318                 1.7951                 1.7374
 IR Inten    --     19.2708                51.7449                 0.4392

                     34                     35                     36
                      A                      A                      A
 Frequencies --   1105.2668              1116.0400              1164.1712
 Red. masses --      1.5444                 2.1521                 1.2788
 Frc consts  --      1.1116                 1.5793                 1.0211
 IR Inten    --     45.0844               203.2881                 9.4267

                     37                     38                     39
                      A                      A                      A
 Frequencies --   1167.0980              1210.1655              1217.7293
 Red. masses --      1.2086                 2.1827                 1.1387
 Frc consts  --      0.9699                 1.8834                 0.9949
 IR Inten    --      3.4456                10.3875                30.4669

                     40                     41                     42
                      A                      A                      A
 Frequencies --   1252.7084              1299.0173              1325.6919
 Red. masses --      2.9663                 1.3072                 3.3294
 Frc consts  --      2.7426                 1.2996                 3.4475
 IR Inten    --     20.1646                10.6956                99.5548

                     43                     44                     45
                      A                      A                      A
 Frequencies --   1365.2366              1371.1815              1381.4179
 Red. masses --      2.0469                 1.2546                 4.1307
 Frc consts  --      2.2478                 1.3897                 4.6443
 IR Inten    --    348.4736                 8.9134                 3.4927

                     46                     47                     48
                      A                      A                      A
 Frequencies --   1428.5799              1476.9246              1492.8638
 Red. masses --      1.4789                 1.6038                 2.7614
 Frc consts  --      1.7783                 2.0611                 3.6259
 IR Inten    --     67.8054                23.9993                 3.7630

                     49                     50                     51
                      A                      A                      A
 Frequencies --   1499.0756              1514.6276              1520.8719
 Red. masses --      1.2669                 1.0884                 1.1475
 Frc consts  --      1.6773                 1.4712                 1.5638
 IR Inten    --     44.4622                23.1086                34.5301

                     52                     53                     54
                      A                      A                      A
 Frequencies --   1549.8316              1573.0799              1639.2984
 Red. masses --      1.0767                 2.6762                 6.0259
 Frc consts  --      1.5238                 3.9019                 9.5409
 IR Inten    --     40.2744                63.5350                 2.3529

                     55                     56                     57
                      A                      A                      A
 Frequencies --   1676.8543              1696.9115              1816.6241
 Red. masses --      2.7726                 1.4573                 8.5834
 Frc consts  --      4.5933                 2.4724                16.6894
 IR Inten    --     26.2999               143.9460               385.1472

                     58                     59                     60
                      A                      A                      A
 Frequencies --   3042.9568              3099.8329              3118.7909
 Red. masses --      1.0457                 1.0584                 1.0905
 Frc consts  --      5.7049                 5.9921                 6.2495
 IR Inten    --     48.4354                34.3446                32.7029

                     61                     62                     63
                      A                      A                      A
 Frequencies --   3156.0586              3156.3662              3169.7889
 Red. masses --      1.1087                 1.1049                 1.0866
 Frc consts  --      6.5066                 6.4857                 6.4327
 IR Inten    --      5.3257                18.5292                16.8308

                     64                     65                     66
                      A                      A                      A
 Frequencies --   3176.1203              3187.4912              3220.8896
 Red. masses --      1.0893                 1.0944                 1.0926
 Frc consts  --      6.4742                 6.5510                 6.6784
 IR Inten    --     21.8359                23.2806                 1.8030

                     67                     68                     69
                      A                      A                      A
 Frequencies --   3551.5825              3650.8039              3652.5878
 Red. masses --      1.0478                 1.0982                 1.0771
 Frc consts  --      7.7868                 8.6241                 8.4665
 IR Inten    --     13.1431                 8.1306                39.3499

 - Thermochemistry -
 -------------------
 Temperature   298.150 Kelvin.  Pressure   1.00000 Atm.
 Atom     1 has atomic number  6 and mass  12.00000

 Molecular mass:   180.08988 amu.
 Principal axes and moments of inertia in atomic units:
                           1         2         3
     Eigenvalues --  1065.252824724.351404860.44104
           X            0.99994   0.01018   0.00293
           Y           -0.01020   0.99994   0.00432
           Z           -0.00289  -0.00435   0.99999
 This molecule is an asymmetric top.
 Rotational symmetry number  1.
 Warning -- assumption of classical behavior for rotation
           may cause significant error
 Rotational temperatures (Kelvin)      0.08131     0.01833     0.01782
 Rotational constants (GHZ):           1.69419     0.38201     0.37131
 Zero-point vibrational energy     543310.8 (Joules/Mol)
                                  129.85439 (Kcal/Mol)
 Warning -- explicit consideration of  19 degrees of freedom as
           vibrations may cause significant error
 Vibrational temperatures:     40.22    51.05   104.15   119.83   168.47
          (Kelvin)            215.66   277.46   331.91   381.69   439.74
                              512.27   566.79   597.74   605.43   677.93
                              709.49   807.90   827.86   885.50   949.55
                              969.20  1065.38  1100.21  1134.13  1188.46
                             1215.48  1238.82  1247.28  1356.62  1395.39
                             1449.11  1470.64  1494.40  1590.23  1605.73
                             1674.98  1679.19  1741.16  1752.04  1802.37
                             1869.00  1907.38  1964.27  1972.82  1987.55
                             2055.41  2124.97  2147.90  2156.84  2179.21
                             2188.20  2229.86  2263.31  2358.58  2412.62
                             2441.48  2613.72  4378.14  4459.97  4487.24
                             4540.86  4541.31  4560.62  4569.73  4586.09
                             4634.14  5109.94  5252.69  5255.26

 Zero-point correction=                           0.206936 (Hartree/Particle)
 Thermal correction to Energy=                    0.219818
 Thermal correction to Enthalpy=                  0.220762
 Thermal correction to Gibbs Free Energy=         0.166021
 Sum of electronic and zero-point Energies=           -609.989936
 Sum of electronic and thermal Energies=              -609.977054
 Sum of electronic and thermal Enthalpies=            -609.976110
 Sum of electronic and thermal Free Energies=         -610.030851

                     E (Thermal)             CV                S
                      KCal/Mol        Cal/Mol-Kelvin    Cal/Mol-Kelvin
 Total                  137.938             47.486            115.212
 Electronic               0.000              0.000              0.000
 Translational            0.889              2.981             41.472
 Rotational               0.889              2.981             31.570
 Vibrational            136.160             41.525             42.170
 Vibration     1          0.593              1.984              5.970
 Vibration     2          0.594              1.982              5.497
 Vibration     3          0.598              1.967              4.087
 Vibration     4          0.600              1.961              3.812
 Vibration     5          0.608              1.935              3.148
 Vibration     6          0.618              1.903              2.674
 Vibration     7          0.635              1.850              2.200
 Vibration     8          0.652              1.794              1.874
 Vibration     9          0.671              1.737              1.627
 Vibration    10          0.696              1.663              1.386
 Vibration    11          0.732              1.563              1.139
 Vibration    12          0.761              1.483              0.985
 Vibration    13          0.779              1.437              0.908
 Vibration    14          0.783              1.425              0.889
 Vibration    15          0.828              1.314              0.734
 Vibration    16          0.849              1.265              0.676
 Vibration    17          0.917              1.115              0.521
 Vibration    18          0.932              1.084              0.494
 Vibration    19          0.975              0.999              0.424

 Optimization completed.
    -- Stationary point found.
 Normal termination of Gaussian 16 at Wed Dec  9 23:39:47 2020.

 ----------------------------------------------------------------------
 # B3LYP/6-311++G(d,p) empiricaldispersion=gd3bj scf=xqc pop=npa geom=c
 heck
 ----------------------------------------------------------------------

 --------------------------------------
 CID_92011607_JID_3515_Energie_neutraal
 --------------------------------------
 Structure from the checkpoint file:  "JID_3515.chk"
 Charge =  0 Multiplicity = 1

 SCF Done:  E(RB3LYP) =  -610.380990468     A.U. after   15 cycles
 Normal termination of Gaussian 16 at Wed Dec  9 23:42:13 2020.

 ----------------------------------------------------------------------
 # B3LYP/6-311++G(d,p) empiricaldispersion=gd3bj scf=xqc pop=npa geom=c
 heck
 ----------------------------------------------------------------------

 ------------------------------------
 CID_92011607_JID_3515_Energie_kation
 ------------------------------------
 Structure from the checkpoint file:  "JID_3515.chk"
 Charge =  1 Multiplicity = 2

 SCF Done:  E(UB3LYP) =  -610.097177375     A.U. after   24 cycles
 Normal termination of Gaussian 16 at Wed Dec  9 23:47:38 2020.
 Gaussian 16:  ES64L-G16RevA.03 25-Dec-2016

 ----------------------------------------------------------------------
 # B3LYP/6-311++G(d,p) empiricaldispersion=gd3bj scf=xqc pop=npa geom=c
 heck
 ----------------------------------------------------------------------

 -----------------------------------
 CID_92011607_JID_3515_Energie_anion
 -----------------------------------
 Structure from the checkpoint file:  "JID_3515.chk"
 Charge = -1 Multiplicity = 2

                         Standard orientation:
 ---------------------------------------------------------------------
 Center     Atomic      Atomic             Coordinates (Angstroms)
 Number     Number       Type             X           Y           Z
 ---------------------------------------------------------------------
      1          6           0       -3.567670   -1.142373   -1.373158
      2          7           0       -3.365255    0.201151   -0.857944
      3          6           0       -2.412355    0.550862    0.053833
      4          8           0       -2.145947    1.703662    0.356199
      5          8           0       -1.833022   -0.551874    0.590447
      6          6           0       -0.765999   -0.297321    1.545583
      7          6           0        0.571841   -0.172979    0.874700
      8          6           0        1.401388   -1.288561    0.718497
      9          6           0        2.632524   -1.191617    0.079114
     10          6           0        3.071683    0.041542   -0.429556
     11          6           0        2.240544    1.164630   -0.277395
     12          6           0        1.012998    1.055812    0.364458
     13          7           0        4.331716    0.162066   -1.019340
     14          1           0       -3.685503   -1.846217   -0.546449
     15          1           0       -2.732707   -1.483683   -1.999149
     16          1           0       -4.482797   -1.150145   -1.970604
     17          1           0       -3.737959    0.986362   -1.370082
     18          1           0       -1.021066    0.602943    2.106973
     19          1           0       -0.795190   -1.165044    2.208136
     20          1           0        1.078712   -2.252988    1.104528
     21          1           0        3.265810   -2.069851   -0.023208
     22          1           0        2.569069    2.127653   -0.661713
     23          1           0        0.371568    1.925805    0.460699
     24          1           0        4.428544    0.941093   -1.658601
     25          1           0        4.698325   -0.692715   -1.419153
 ---------------------------------------------------------------------

 SCF Done:  E(UB3LYP) =  -610.369046674     A.U. after   33 cycles
 SCF Done:  E(UB3LYP) =  -610.369046674     a.u. after    1 cycles

 The electronic state is 2-A.
 Alpha  occ. eigenvalues --  -19.06738 -18.99955 -14.24342 -14.21779 -10.22288
 Alpha  occ. eigenvalues --  -10.13715 -10.12023 -10.10722 -10.08222 -10.07763
 Alpha  occ. eigenvalues --  -10.07710 -10.07325 -10.07302  -1.01180  -0.91961
 Alpha  occ. eigenvalues --   -0.83343  -0.82266  -0.75045  -0.66998  -0.65292
 Alpha  occ. eigenvalues --   -0.61748  -0.59412  -0.52338  -0.51341  -0.48047
 Alpha  occ. eigenvalues --   -0.44193  -0.42709  -0.41274  -0.40241  -0.39528
 Alpha  occ. eigenvalues --   -0.36678  -0.36098  -0.35061  -0.34048  -0.32880
 Alpha  occ. eigenvalues --   -0.31733  -0.31379  -0.30595  -0.28957  -0.27918
 Alpha  occ. eigenvalues --   -0.26842  -0.24471  -0.21760  -0.20914  -0.18892
 Alpha  occ. eigenvalues --   -0.16611  -0.16076  -0.11472   0.04111
 Alpha virt. eigenvalues --    0.05355   0.07030   0.07780   0.07982   0.08270
 Alpha virt. eigenvalues --    0.08940   0.09411   0.10251   0.10293   0.11044
 Alpha virt. eigenvalues --    0.12173   0.12680   0.13333   0.13911   0.14379

  Beta  occ. eigenvalues --  -19.06732 -18.99953 -14.24325 -14.21707 -10.22289
  Beta  occ. eigenvalues --  -10.13712 -10.12021 -10.10676 -10.08218 -10.07762
  Beta  occ. eigenvalues --  -10.07709 -10.07307 -10.07289  -1.01172  -0.91955
  Beta  occ. eigenvalues --   -0.83312  -0.82186  -0.75016  -0.66966  -0.65273
  Beta  occ. eigenvalues --   -0.61684  -0.59360  -0.52308  -0.51299  -0.48013
  Beta  occ. eigenvalues --   -0.44175  -0.42651  -0.41224  -0.40180  -0.39481
  Beta  occ. eigenvalues --   -0.36638  -0.36067  -0.35028  -0.34018  -0.32858
  Beta  occ. eigenvalues --   -0.31706  -0.31351  -0.30541  -0.28934  -0.27895
  Beta  occ. eigenvalues --   -0.26827  -0.24455  -0.21728  -0.20906  -0.18885
  Beta  occ. eigenvalues --   -0.16590  -0.16067  -0.11434
  Beta virt. eigenvalues --    0.06503   0.07137   0.07480   0.07970   0.08243
  Beta virt. eigenvalues --    0.08868   0.09198   0.09733   0.10524   0.11006
  Beta virt. eigenvalues --    0.11367   0.12508   0.12845   0.13522   0.13948

 Mulliken charges and spin densities:
               1          2
     1  C    1.002040  -1.347626
     2  N   -0.493602   0.211406
     3  C    0.285655  -0.191695
     4  O   -0.353739   0.009672
     5  O   -0.049102   0.002905
     6  C   -0.140180  -0.754626
     7  C    1.126132  -0.281932
     8  C   -0.402937  -0.072052
     9  C   -0.294170   0.347556
    10  C    0.755545  -1.179580
    11  C    0.002627  -0.269140
    12  C   -0.396632   0.455429
    13  N   -0.240565  -0.041076
    14  H   -0.132013   0.301916
    15  H   -0.101356   0.270392
    16  H   -0.718430   0.874791
    17  H   -0.000148   0.304494
    18  H    0.193647  -0.012184
    19  H    0.101581   0.051980
    20  H    0.008513   0.131268
    21  H   -0.509283   0.674593
    22  H   -0.185947   0.343325
    23  H    0.179654   0.033487
    24  H   -0.270696   0.517508
    25  H   -0.366592   0.619190
 Sum of Mulliken charges =  -1.00000   1.00000

 Dipole moment (field-independent basis, Debye):
    X=             -2.3218    Y=              0.5664    Z=              6.0485  Tot=              6.5035
 Quadrupole moment (field-independent basis, Debye-Ang):
   XX=           -187.7303   YY=           -108.9081   ZZ=           -110.5794
   XY=              0.9705   XZ=              0.5622   YZ=             -5.5476

 Summary of Natural Population Analysis:

                                       Natural Population
                Natural  -----------------------------------------------
    Atom  No    Charge         Core      Valence    Rydberg      Total
 -----------------------------------------------------------------------
      C    1   -0.17869      0.99965     2.17046    0.00858     3.17869
      N    2   -0.32384      0.99968     2.81394    0.01022     3.82384
      C    3    0.46090      0.99969     1.51414    0.02527     2.53910
      O    4   -0.33993      0.99987     3.33496    0.00511     4.33993
      O    5   -0.28805      0.99986     3.28080    0.00738     4.28805
      C    6   -0.01961      0.99951     2.00865    0.01144     3.01961
      C    7   -0.06582      0.99950     2.05670    0.00962     3.06582
      C    8   -0.08392      0.99953     2.07476    0.00964     3.08392
      C    9   -0.12426      0.99952     2.11444    0.01030     3.12426
      C   10    0.09004      0.99949     1.89868    0.01179     2.90996
      C   11   -0.12317      0.99952     2.11389    0.00976     3.12317
      C   12   -0.08411      0.99952     2.07531    0.00927     3.08411
      N   13   -0.39254      0.99971     2.88221    0.01061     3.89254
      H   14    0.09981      0.00000     0.39866    0.00153     0.40019
      H   15    0.09366      0.00000     0.40494    0.00140     0.40634
      H   16    0.10082      0.00000     0.39584    0.00334     0.39918
      H   17    0.19780      0.00000     0.29991    0.00230     0.30220
      H   18    0.10048      0.00000     0.39832    0.00120     0.39952
      H   19    0.09151      0.00000     0.40741    0.00109     0.40849
      H   20    0.09805      0.00000     0.40099    0.00096     0.40195
      H   21    0.10124      0.00000     0.39716    0.00161     0.39876
      H   22    0.09952      0.00000     0.39921    0.00127     0.40048
      H   23    0.11146      0.00000     0.38749    0.00106     0.38854
      H   24    0.18829      0.00000     0.30650    0.00521     0.31171
      H   25    0.19036      0.00000     0.30090    0.00874     0.30964
 =======================================================================
   * Total *   -0.00000     12.99507    34.83625    0.16868    48.00000

 Normal termination of Gaussian 16 at Wed Dec  9 23:55:13 2020.
