 Gaussian 16, Revision A.03,

 -----------------------------------------------------------
 # opt freq B3LYP/6-31G(d) empiricaldispersion=gd3bj scf=xqc
 -----------------------------------------------------------

 ------------------------------
 CID_80366608_JID_4217_neutraal
 ------------------------------
 Symbolic Z-matrix:
 Charge =  0 Multiplicity = 1

 SCF Done:  E(RB3LYP) =  -672.929887911     A.U. after   14 cycles
 SCF Done:  E(RB3LYP) =  -672.939654104     A.U. after   11 cycles
 SCF Done:  E(RB3LYP) =  -672.940807685     A.U. after   11 cycles
 SCF Done:  E(RB3LYP) =  -672.941027047     A.U. after   11 cycles
 SCF Done:  E(RB3LYP) =  -672.941025815     A.U. after   11 cycles
 SCF Done:  E(RB3LYP) =  -672.941135950     A.U. after   10 cycles
 SCF Done:  E(RB3LYP) =  -672.941163561     A.U. after    9 cycles
 SCF Done:  E(RB3LYP) =  -672.941171728     A.U. after   10 cycles
 SCF Done:  E(RB3LYP) =  -672.941174374     A.U. after    8 cycles
 SCF Done:  E(RB3LYP) =  -672.941177667     A.U. after    8 cycles
 SCF Done:  E(RB3LYP) =  -672.941180113     A.U. after    8 cycles
 SCF Done:  E(RB3LYP) =  -672.941181004     A.U. after    8 cycles
 SCF Done:  E(RB3LYP) =  -672.941182208     A.U. after    9 cycles
 SCF Done:  E(RB3LYP) =  -672.941182396     A.U. after    8 cycles
 SCF Done:  E(RB3LYP) =  -672.941182400     A.U. after    7 cycles
 Optimization completed.
    -- Stationary point found.
 Normal termination of Gaussian 16 at Thu Dec 10 09:22:14 2020.

 --------------------------------------------------------------------
 #N Geom=AllCheck Guess=TCheck SCRF=Check GenChk RB3LYP/6-31G(d) Freq
 --------------------------------------------------------------------

 Structure from the checkpoint file:  "JID_4217.chk"
 ------------------------------
 CID_80366608_JID_4217_neutraal
 ------------------------------
 Charge =  0 Multiplicity = 1

 SCF Done:  E(RB3LYP) =  -672.941182400     A.U. after    1 cycles

  Exact polarizability: 149.875  -5.377 111.927  -0.997  -0.966 100.593
 Approx polarizability: 177.073 -13.038 164.211   0.747  -8.502 152.547

                      1                      2                      3
                      A                      A                      A
 Frequencies --     29.7841                34.9165                48.9439
 Red. masses --      3.9231                 2.9801                 3.9235
 Frc consts  --      0.0021                 0.0021                 0.0055
 IR Inten    --      0.6218                 0.7239                 1.3243

                      4                      5                      6
                      A                      A                      A
 Frequencies --     63.9205                86.5372                89.4665
 Red. masses --      5.0658                 2.8412                 3.0658
 Frc consts  --      0.0122                 0.0125                 0.0145
 IR Inten    --      0.8115                 0.9910                 2.6379

                      7                      8                      9
                      A                      A                      A
 Frequencies --    103.2816               147.5160               199.4899
 Red. masses --      2.6988                 3.4266                 3.7541
 Frc consts  --      0.0170                 0.0439                 0.0880
 IR Inten    --      3.7056                 1.7614                 0.1098

                     10                     11                     12
                      A                      A                      A
 Frequencies --    224.8603               242.1307               265.9382
 Red. masses --      2.2051                 1.5431                 1.1017
 Frc consts  --      0.0657                 0.0533                 0.0459
 IR Inten    --      1.9295                 1.5706                 1.2232

                     13                     14                     15
                      A                      A                      A
 Frequencies --    275.1316               312.4926               345.7720
 Red. masses --      4.0061                 1.8506                 2.6161
 Frc consts  --      0.1787                 0.1065                 0.1843
 IR Inten    --      6.7883                49.3949                 0.4186

                     16                     17                     18
                      A                      A                      A
 Frequencies --    360.9967               385.4596               419.9272
 Red. masses --      1.7135                 2.7585                 2.1705
 Frc consts  --      0.1316                 0.2415                 0.2255
 IR Inten    --     90.1207                 3.5126                 6.1077

                     19                     20                     21
                      A                      A                      A
 Frequencies --    450.5819               462.6957               477.3705
 Red. masses --      2.0368                 2.9447                 2.7276
 Frc consts  --      0.2436                 0.3714                 0.3662
 IR Inten    --      0.4007                 4.8477                 1.6481

                     22                     23                     24
                      A                      A                      A
 Frequencies --    500.6515               540.5649               643.6994
 Red. masses --      3.4869                 2.4177                 1.4141
 Frc consts  --      0.5149                 0.4162                 0.3452
 IR Inten    --     21.8387                21.2211                63.4347

                     25                     26                     27
                      A                      A                      A
 Frequencies --    708.5846               783.5054               815.1610
 Red. masses --      2.6893                 4.0516                 1.4793
 Frc consts  --      0.7956                 1.4654                 0.5792
 IR Inten    --     23.9344                15.2518                 1.6225

                     28                     29                     30
                      A                      A                      A
 Frequencies --    829.5627               870.0081               882.2477
 Red. masses --      3.4140                 2.3991                 2.6725
 Frc consts  --      1.3843                 1.0699                 1.2256
 IR Inten    --      1.8135                 4.1253                 0.9683

                     31                     32                     33
                      A                      A                      A
 Frequencies --    917.1226               928.7694               948.0272
 Red. masses --      1.8258                 1.7624                 2.1581
 Frc consts  --      0.9048                 0.8957                 1.1428
 IR Inten    --      4.4361                10.4604                16.1626

                     34                     35                     36
                      A                      A                      A
 Frequencies --    957.8634               983.5131               987.5669
 Red. masses --      1.3817                 2.6745                 2.3256
 Frc consts  --      0.7469                 1.5242                 1.3363
 IR Inten    --      9.7051                 9.2066                 5.7056

                     37                     38                     39
                      A                      A                      A
 Frequencies --   1003.7711              1011.4393              1074.6165
 Red. masses --      3.6551                 2.4916                 1.2563
 Frc consts  --      2.1698                 1.5018                 0.8547
 IR Inten    --     25.3490                26.7131                 4.6705

                     40                     41                     42
                      A                      A                      A
 Frequencies --   1091.0158              1106.7535              1148.1611
 Red. masses --      1.7364                 1.7942                 2.2842
 Frc consts  --      1.2178                 1.2949                 1.7741
 IR Inten    --      3.9079                25.0641                 6.0585

                     43                     44                     45
                      A                      A                      A
 Frequencies --   1168.1261              1179.4908              1188.5086
 Red. masses --      4.4778                 1.5609                 1.4427
 Frc consts  --      3.5999                 1.2795                 1.2007
 IR Inten    --    209.2794                 4.0192                 1.7019

                     46                     47                     48
                      A                      A                      A
 Frequencies --   1204.6683              1212.5382              1225.4576
 Red. masses --      1.5440                 1.8810                 1.4946
 Frc consts  --      1.3202                 1.6294                 1.3224
 IR Inten    --      1.6405                47.4341                22.8792

                     49                     50                     51
                      A                      A                      A
 Frequencies --   1247.0690              1254.1709              1258.4102
 Red. masses --      1.7430                 1.4225                 1.4250
 Frc consts  --      1.5971                 1.3183                 1.3295
 IR Inten    --     30.6710                21.1863                55.1467

                     52                     53                     54
                      A                      A                      A
 Frequencies --   1274.1933              1288.7038              1292.2914
 Red. masses --      1.2493                 1.3152                 1.5301
 Frc consts  --      1.1951                 1.2869                 1.5056
 IR Inten    --      3.8337                 3.0807                24.9915

                     55                     56                     57
                      A                      A                      A
 Frequencies --   1311.2554              1337.4552              1347.8541
 Red. masses --      1.4118                 1.4134                 1.5260
 Frc consts  --      1.4302                 1.4896                 1.6334
 IR Inten    --      7.5101                68.8009                90.5418

                     58                     59                     60
                      A                      A                      A
 Frequencies --   1375.5189              1395.9417              1418.2628
 Red. masses --      1.3361                 1.3666                 1.9786
 Frc consts  --      1.4894                 1.5690                 2.3449
 IR Inten    --      1.8651                 7.1103                96.9750

                     61                     62                     63
                      A                      A                      A
 Frequencies --   1426.8926              1434.0221              1453.3503
 Red. masses --      1.4138                 1.3310                 1.3527
 Frc consts  --      1.6960                 1.6126                 1.6834
 IR Inten    --     10.0558                 2.6805                31.2671

                     64                     65                     66
                      A                      A                      A
 Frequencies --   1489.0288              1504.2824              1506.4929
 Red. masses --      1.0939                 1.2359                 1.3266
 Frc consts  --      1.4289                 1.6477                 1.7738
 IR Inten    --      3.2420                16.8229                13.8864

                     67                     68                     69
                      A                      A                      A
 Frequencies --   1514.0868              1516.0730              1522.9197
 Red. masses --      1.0486                 1.1283                 1.0916
 Frc consts  --      1.4164                 1.5280                 1.4917
 IR Inten    --      4.5714                 3.5485                 8.7328

                     70                     71                     72
                      A                      A                      A
 Frequencies --   1533.2009              1534.4323              1540.9061
 Red. masses --      1.3184                 1.0671                 1.0582
 Frc consts  --      1.8260                 1.4804                 1.4804
 IR Inten    --     68.5499                 6.9555                 8.2588

                     73                     74                     75
                      A                      A                      A
 Frequencies --   1551.4608              1770.0818              2984.1558
 Red. masses --      1.0829                 7.4764                 1.0437
 Frc consts  --      1.5357                13.8015                 5.4762
 IR Inten    --      3.2180               385.2608                48.8274

                     76                     77                     78
                      A                      A                      A
 Frequencies --   2996.0944              3029.9099              3034.4197
 Red. masses --      1.0565                 1.1037                 1.0890
 Frc consts  --      5.5879                 5.9699                 5.9078
 IR Inten    --     72.1993                73.3930                 1.2419

                     79                     80                     81
                      A                      A                      A
 Frequencies --   3039.8933              3047.3999              3051.5515
 Red. masses --      1.0850                 1.0494                 1.0806
 Frc consts  --      5.9074                 5.7420                 5.9288
 IR Inten    --     76.6582                10.1802                62.9096

                     82                     83                     84
                      A                      A                      A
 Frequencies --   3065.6195              3079.5037              3079.8878
 Red. masses --      1.0597                 1.0610                 1.0635
 Frc consts  --      5.8680                 5.9281                 5.9439
 IR Inten    --     29.8745                19.9111                23.7964

                     85                     86                     87
                      A                      A                      A
 Frequencies --   3109.0315              3119.7860              3122.4135
 Red. masses --      1.1018                 1.1045                 1.1071
 Frc consts  --      6.2746                 6.3338                 6.3592
 IR Inten    --     32.8485                32.8630                19.7677

                     88                     89                     90
                      A                      A                      A
 Frequencies --   3131.0960              3142.1094              3145.7418
 Red. masses --      1.0967                 1.1052                 1.0992
 Frc consts  --      6.3348                 6.4286                 6.4088
 IR Inten    --     39.6763                13.7306                20.6922

                     91                     92                     93
                      A                      A                      A
 Frequencies --   3177.6957              3561.4963              3736.9646
 Red. masses --      1.0859                 1.0749                 1.0661
 Frc consts  --      6.4603                 8.0329                 8.7719
 IR Inten    --     16.6912                11.4823                13.6765

 - Thermochemistry -
 -------------------
 Temperature   298.150 Kelvin.  Pressure   1.00000 Atm.
 Atom     1 has atomic number  6 and mass  12.00000

 Molecular mass:   201.13649 amu.
 Principal axes and moments of inertia in atomic units:
                           1         2         3
     Eigenvalues --  1323.730286251.219886943.27414
           X            0.99999   0.00348  -0.00063
           Y           -0.00346   0.99972   0.02326
           Z            0.00071  -0.02326   0.99973
 This molecule is an asymmetric top.
 Rotational symmetry number  1.
 Warning -- assumption of classical behavior for rotation
           may cause significant error
 Rotational temperatures (Kelvin)      0.06543     0.01386     0.01247
 Rotational constants (GHZ):           1.36338     0.28870     0.25993
 Zero-point vibrational energy     763766.2 (Joules/Mol)
                                  182.54450 (Kcal/Mol)
 Warning -- explicit consideration of  23 degrees of freedom as
           vibrations may cause significant error
 Vibrational temperatures:     42.85    50.24    70.42    91.97   124.51
          (Kelvin)            128.72   148.60   212.24   287.02   323.52
                              348.37   382.63   395.85   449.61   497.49
                              519.39   554.59   604.18   648.29   665.72
                              686.83   720.33   777.75   926.14  1019.50
                             1127.29  1172.83  1193.56  1251.75  1269.36
                             1319.53  1336.29  1364.00  1378.15  1415.06
                             1420.89  1444.20  1455.24  1546.13  1569.73
                             1592.37  1651.95  1680.67  1697.02  1710.00
                             1733.25  1744.57  1763.16  1794.25  1804.47
                             1810.57  1833.28  1854.16  1859.32  1886.60
                             1924.30  1939.26  1979.06  2008.45  2040.56
                             2052.98  2063.24  2091.05  2142.38  2164.33
                             2167.51  2178.43  2181.29  2191.14  2205.93
                             2207.71  2217.02  2232.21  2546.75  4293.53
                             4310.71  4359.36  4365.85  4373.73  4384.53
                             4390.50  4410.74  4430.72  4431.27  4473.20
                             4488.68  4492.46  4504.95  4520.79  4526.02
                             4572.00  5124.20  5376.66

 Zero-point correction=                           0.290903 (Hartree/Particle)
 Thermal correction to Energy=                    0.306750
 Thermal correction to Enthalpy=                  0.307694
 Thermal correction to Gibbs Free Energy=         0.246029
 Sum of electronic and zero-point Energies=           -672.650279
 Sum of electronic and thermal Energies=              -672.634433
 Sum of electronic and thermal Enthalpies=            -672.633488
 Sum of electronic and thermal Free Energies=         -672.695154

                     E (Thermal)             CV                S
                      KCal/Mol        Cal/Mol-Kelvin    Cal/Mol-Kelvin
 Total                  192.488             57.753            129.785
 Electronic               0.000              0.000              0.000
 Translational            0.889              2.981             41.801
 Rotational               0.889              2.981             32.419
 Vibrational            190.711             51.792             55.566
 Vibration     1          0.594              1.984              5.844
 Vibration     2          0.594              1.983              5.528
 Vibration     3          0.595              1.978              4.860
 Vibration     4          0.597              1.972              4.332
 Vibration     5          0.601              1.959              3.737
 Vibration     6          0.602              1.957              3.672
 Vibration     7          0.605              1.947              3.391
 Vibration     8          0.617              1.905              2.704
 Vibration     9          0.638              1.841              2.138
 Vibration    10          0.650              1.803              1.920
 Vibration    11          0.658              1.776              1.787
 Vibration    12          0.672              1.736              1.622
 Vibration    13          0.677              1.719              1.564
 Vibration    14          0.701              1.650              1.349
 Vibration    15          0.724              1.584              1.185
 Vibration    16          0.735              1.553              1.118
 Vibration    17          0.754              1.501              1.018
 Vibration    18          0.783              1.427              0.892
 Vibration    19          0.809              1.360              0.794
 Vibration    20          0.820              1.333              0.758
 Vibration    21          0.834              1.300              0.717
 Vibration    22          0.856              1.249              0.656
 Vibration    23          0.896              1.160              0.564

 Optimization completed.
    -- Stationary point found.
 Normal termination of Gaussian 16 at Thu Dec 10 09:30:45 2020.

 ----------------------------------------------------------------------
 # B3LYP/6-311++G(d,p) empiricaldispersion=gd3bj scf=xqc pop=npa geom=c
 heck
 ----------------------------------------------------------------------

 --------------------------------------
 CID_80366608_JID_4217_Energie_neutraal
 --------------------------------------
 Structure from the checkpoint file:  "JID_4217.chk"
 Charge =  0 Multiplicity = 1

 SCF Done:  E(RB3LYP) =  -673.151421218     A.U. after   14 cycles
 Normal termination of Gaussian 16 at Thu Dec 10 09:34:51 2020.

 ----------------------------------------------------------------------
 # B3LYP/6-311++G(d,p) empiricaldispersion=gd3bj scf=xqc pop=npa geom=c
 heck
 ----------------------------------------------------------------------

 ------------------------------------
 CID_80366608_JID_4217_Energie_kation
 ------------------------------------
 Structure from the checkpoint file:  "JID_4217.chk"
 Charge =  1 Multiplicity = 2

 SCF Done:  E(UB3LYP) =  -672.835702260     A.U. after   29 cycles
 Normal termination of Gaussian 16 at Thu Dec 10 09:47:10 2020.
 Gaussian 16:  ES64L-G16RevA.03 25-Dec-2016

 ----------------------------------------------------------------------
 # B3LYP/6-311++G(d,p) empiricaldispersion=gd3bj scf=xqc pop=npa geom=c
 heck
 ----------------------------------------------------------------------

 -----------------------------------
 CID_80366608_JID_4217_Energie_anion
 -----------------------------------
 Structure from the checkpoint file:  "JID_4217.chk"
 Charge = -1 Multiplicity = 2

                         Standard orientation:
 ---------------------------------------------------------------------
 Center     Atomic      Atomic             Coordinates (Angstroms)
 Number     Number       Type             X           Y           Z
 ---------------------------------------------------------------------
      1          6           0       -0.989482   -1.501810   -0.024908
      2          6           0       -1.693479   -0.459921    0.851476
      3          6           0       -0.751868    0.686393    1.288469
      4          6           0       -0.243250    1.514706    0.116901
      5          8           0       -0.962813    2.355061   -0.416909
      6          7           0        1.029894    1.304747   -0.348822
      7          6           0        2.017646    0.321702    0.011984
      8          6           0        3.491176    0.779927    0.184532
      9          6           0        3.932241   -0.555652   -0.450186
     10          6           0        2.511785   -0.688153   -1.063027
     11          8           0        4.168811   -1.485263    0.599216
     12          6           0       -2.950132    0.077125    0.165784
     13          8           0       -3.853300   -1.004505    0.003620
     14          6           0       -5.023355   -0.626861   -0.684886
     15          1           0       -0.621788   -1.049705   -0.953888
     16          1           0       -1.687827   -2.299075   -0.291120
     17          1           0       -0.134441   -1.948611    0.495817
     18          1           0       -2.029861   -0.956476    1.771375
     19          1           0       -1.306086    1.384644    1.923812
     20          1           0        0.061033    0.272132    1.891380
     21          1           0        1.244446    1.896382   -1.145062
     22          1           0        1.687393   -0.214052    0.898761
     23          1           0        3.856266    0.985259    1.193902
     24          1           0        3.720982    1.627862   -0.469714
     25          1           0        4.777108   -0.523633   -1.150567
     26          1           0        2.462125   -0.249458   -2.066122
     27          1           0        2.055170   -1.682898   -1.081866
     28          1           0        4.220194   -2.368641    0.201770
     29          1           0       -3.410147    0.872362    0.775483
     30          1           0       -2.701751    0.523940   -0.808016
     31          1           0       -5.578794    0.157800   -0.145653
     32          1           0       -4.798053   -0.252108   -1.696477
     33          1           0       -5.654507   -1.516031   -0.766314
 ---------------------------------------------------------------------

 SCF Done:  E(UB3LYP) =  -673.140740028     A.U. after   33 cycles
 SCF Done:  E(UB3LYP) =  -673.140740028     a.u. after    1 cycles

 The electronic state is 2-A.
 Alpha  occ. eigenvalues --  -19.03965 -19.02011 -18.99440 -14.24576 -10.18283
 Alpha  occ. eigenvalues --  -10.12905 -10.12233 -10.12207 -10.12091 -10.09449
 Alpha  occ. eigenvalues --  -10.09171 -10.07462 -10.07066 -10.06537  -0.95313
 Alpha  occ. eigenvalues --   -0.94663  -0.92397  -0.83503  -0.73634  -0.72535
 Alpha  occ. eigenvalues --   -0.63819  -0.61133  -0.57535  -0.57095  -0.56139
 Alpha  occ. eigenvalues --   -0.51030  -0.47517  -0.47018  -0.42827  -0.41436
 Alpha  occ. eigenvalues --   -0.40381  -0.39962  -0.39301  -0.37485  -0.35713
 Alpha  occ. eigenvalues --   -0.35618  -0.33725  -0.32719  -0.32467  -0.30951
 Alpha  occ. eigenvalues --   -0.30617  -0.29341  -0.29245  -0.27970  -0.27037
 Alpha  occ. eigenvalues --   -0.25597  -0.25212  -0.25098  -0.24144  -0.23332
 Alpha  occ. eigenvalues --   -0.21303  -0.17738  -0.17547  -0.16254  -0.15706
 Alpha  occ. eigenvalues --    0.04218
 Alpha virt. eigenvalues --    0.05588   0.06697   0.07205   0.08332   0.08667
 Alpha virt. eigenvalues --    0.08880   0.09776   0.10103   0.10289   0.10323
 Alpha virt. eigenvalues --    0.11021   0.11476   0.12199   0.12832   0.13543

  Beta  occ. eigenvalues --  -19.03960 -19.01958 -18.99438 -14.24563 -10.18282
  Beta  occ. eigenvalues --  -10.12885 -10.12204 -10.12202 -10.12087 -10.09444
  Beta  occ. eigenvalues --  -10.09163 -10.07442 -10.07035 -10.06525  -0.95305
  Beta  occ. eigenvalues --   -0.94656  -0.92288  -0.83481  -0.73589  -0.72517
  Beta  occ. eigenvalues --   -0.63798  -0.61108  -0.57472  -0.57044  -0.56100
  Beta  occ. eigenvalues --   -0.51004  -0.47424  -0.46991  -0.42754  -0.41405
  Beta  occ. eigenvalues --   -0.40333  -0.39890  -0.39287  -0.37461  -0.35690
  Beta  occ. eigenvalues --   -0.35581  -0.33702  -0.32700  -0.32438  -0.30928
  Beta  occ. eigenvalues --   -0.30590  -0.29311  -0.29227  -0.27932  -0.27005
  Beta  occ. eigenvalues --   -0.25573  -0.25180  -0.25075  -0.24122  -0.23309
  Beta  occ. eigenvalues --   -0.21244  -0.17718  -0.17505  -0.16235  -0.15683
  Beta virt. eigenvalues --    0.05877   0.06766   0.07275   0.08153   0.08797
  Beta virt. eigenvalues --    0.08924   0.09085   0.10194   0.10372   0.10447
  Beta virt. eigenvalues --    0.10675   0.11310   0.11672   0.12497   0.13015

 Mulliken charges and spin densities:
               1          2
     1  C   -0.409140  -0.190809
     2  C    0.425109   0.045225
     3  C    0.100469  -0.271145
     4  C   -0.039196  -0.183839
     5  O   -0.334939   0.010604
     6  N    0.045588  -0.054400
     7  C   -1.547069   1.565431
     8  C    0.647133  -1.161948
     9  C   -0.294722   0.260498
    10  C    1.608604  -2.224696
    11  O   -0.208391  -0.002393
    12  C   -0.580019  -0.156091
    13  O   -0.160651   0.034154
    14  C    0.306976  -0.550400
    15  H    0.069705   0.115528
    16  H    0.008277   0.169429
    17  H   -0.006273   0.141389
    18  H    0.100126   0.112702
    19  H    0.091495   0.107586
    20  H   -0.175287   0.348605
    21  H    0.198040   0.101082
    22  H    0.585039  -0.445128
    23  H    0.072300   0.114414
    24  H   -0.206082   0.326176
    25  H   -0.716856   0.926261
    26  H   -0.199203   0.326633
    27  H   -0.221365   0.395736
    28  H   -0.243118   0.509302
    29  H    0.120065   0.034322
    30  H    0.174107   0.004880
    31  H   -0.097805   0.216214
    32  H   -0.049310   0.176779
    33  H   -0.063606   0.197897
 Sum of Mulliken charges =  -1.00000   1.00000

 Dipole moment (field-independent basis, Debye):
    X=             -6.0075    Y=              2.8558    Z=              2.6457  Tot=              7.1586
 Quadrupole moment (field-independent basis, Debye-Ang):
   XX=           -187.2490   YY=           -133.8213   ZZ=           -117.0317
   XY=             14.4158   XZ=              6.7182   YZ=              1.6124

 Summary of Natural Population Analysis:

                                       Natural Population
                Natural  -----------------------------------------------
    Atom  No    Charge         Core      Valence    Rydberg      Total
 -----------------------------------------------------------------------
      C    1   -0.29132      0.99964     2.28456    0.00712     3.29132
      C    2   -0.11602      0.99960     2.10571    0.01072     3.11602
      C    3   -0.22903      0.99957     2.22172    0.00774     3.22903
      C    4    0.34509      0.99967     1.63250    0.02274     2.65491
      O    5   -0.33209      0.99988     3.32626    0.00596     4.33209
      N    6   -0.31122      0.99964     2.80174    0.00984     3.81122
      C    7   -0.01647      0.99957     2.00366    0.01324     3.01647
      C    8   -0.19236      0.99961     2.18318    0.00956     3.19236
      C    9    0.06295      0.99958     1.92174    0.01572     2.93705
      C   10   -0.20029      0.99961     2.19077    0.00991     3.20029
      O   11   -0.37490      0.99989     3.36800    0.00701     4.37490
      C   12   -0.00823      0.99955     1.99738    0.01130     3.00823
      O   13   -0.29914      0.99988     3.29054    0.00872     4.29914
      C   14   -0.09482      0.99963     2.08700    0.00819     3.09482
      H   15    0.09850      0.00000     0.40036    0.00113     0.40150
      H   16    0.10838      0.00000     0.39029    0.00133     0.39162
      H   17    0.10058      0.00000     0.39832    0.00110     0.39942
      H   18    0.09844      0.00000     0.39937    0.00219     0.40156
      H   19    0.11139      0.00000     0.38756    0.00105     0.38861
      H   20    0.10418      0.00000     0.39453    0.00129     0.39582
      H   21    0.19290      0.00000     0.30448    0.00262     0.30710
      H   22    0.10434      0.00000     0.39350    0.00216     0.39566
      H   23    0.10338      0.00000     0.39562    0.00099     0.39662
      H   24    0.10083      0.00000     0.39759    0.00158     0.39917
      H   25    0.08244      0.00000     0.41348    0.00409     0.41756
      H   26    0.10175      0.00000     0.39595    0.00230     0.39825
      H   27    0.10460      0.00000     0.39364    0.00176     0.39540
      H   28    0.23612      0.00000     0.25389    0.00999     0.26388
      H   29    0.08086      0.00000     0.41753    0.00162     0.41914
      H   30    0.08785      0.00000     0.41048    0.00168     0.41215
      H   31    0.07550      0.00000     0.42237    0.00213     0.42450
      H   32    0.07744      0.00000     0.42062    0.00194     0.42256
      H   33    0.08838      0.00000     0.41031    0.00131     0.41162
 =======================================================================
   * Total *   -0.00000     13.99532    40.81463    0.19005    55.00000

 Normal termination of Gaussian 16 at Thu Dec 10 10:00:43 2020.
