 Gaussian 16, Revision A.03,

 -----------------------------------------------------------
 # opt freq B3LYP/6-31G(d) empiricaldispersion=gd3bj scf=xqc
 -----------------------------------------------------------

 ------------------------------
 CID_131857526_JID_975_neutraal
 ------------------------------
 Symbolic Z-matrix:
 Charge =  0 Multiplicity = 1

 SCF Done:  E(RB3LYP) =  -424.133294535     A.U. after   15 cycles
 SCF Done:  E(RB3LYP) =  -424.142339532     A.U. after   14 cycles
 SCF Done:  E(RB3LYP) =  -424.143446202     A.U. after   13 cycles
 SCF Done:  E(RB3LYP) =  -424.143827086     A.U. after   12 cycles
 SCF Done:  E(RB3LYP) =  -424.143796614     A.U. after   13 cycles
 SCF Done:  E(RB3LYP) =  -424.144774979     A.U. after   12 cycles
 SCF Done:  E(RB3LYP) =  -424.145580752     A.U. after   13 cycles
 SCF Done:  E(RB3LYP) =  -424.145876811     A.U. after   12 cycles
 SCF Done:  E(RB3LYP) =  -424.145965734     A.U. after   11 cycles
 SCF Done:  E(RB3LYP) =  -424.145987871     A.U. after   12 cycles
 SCF Done:  E(RB3LYP) =  -424.145997242     A.U. after   10 cycles
 SCF Done:  E(RB3LYP) =  -424.145999350     A.U. after   10 cycles
 SCF Done:  E(RB3LYP) =  -424.145999964     A.U. after    8 cycles
 SCF Done:  E(RB3LYP) =  -424.146000098     A.U. after    8 cycles
 Optimization completed.
    -- Stationary point found.

 1\1\GINC-NODE319\FOpt\RB3LYP\6-31G(d)\C9H10O1\VSC10255\08-Dec-2020\0\\
 # opt freq B3LYP/6-31G(d) empiricaldispersion=gd3bj scf=xqc\\CID_13185
 7526_JID_975_neutraal\\0,1\C,0.7485345065,0.5270812057,-2.4871608314\C
 ,0.0256900094,-0.5064529814,-3.3281000138\C,-0.3570480975,-1.735185309
 8,-2.9472602797\C,-0.1956780587,-2.3771554462,-1.5845328898\C,-1.04371
 56345,-1.8129948083,-0.4010462362\O,-1.1372154628,-2.4209879729,0.6453
 471244\C,-1.4884250105,-0.4340217768,-0.6929752706\C,-0.9630539228,0.6
 46546624,-0.0932367323\C,-0.773251246,1.8525975814,-0.9172309181\C,-0.

 Normal termination of Gaussian 16 at Tue Dec  8 13:33:22 2020.

 --------------------------------------------------------------------
 #N Geom=AllCheck Guess=TCheck SCRF=Check GenChk RB3LYP/6-31G(d) Freq
 --------------------------------------------------------------------

 Structure from the checkpoint file:  "JID_975.chk"
 ------------------------------
 CID_131857526_JID_975_neutraal
 ------------------------------
 Charge =  0 Multiplicity = 1

 SCF Done:  E(RB3LYP) =  -424.146000098     A.U. after    1 cycles

  Exact polarizability: 117.830   2.137  93.922  -0.241  -4.944  58.805
 Approx polarizability: 188.944  -2.213 143.957  -5.301 -10.049  94.226

                      1                      2                      3
                      A                      A                      A
 Frequencies --     75.5522               156.6703               181.7964
 Red. masses --      4.1507                 3.3160                 3.0449
 Frc consts  --      0.0140                 0.0480                 0.0593
 IR Inten    --      2.0346                 1.3679                 0.2384

                      4                      5                      6
                      A                      A                      A
 Frequencies --    223.1960               271.0597               295.3825
 Red. masses --      2.8975                 4.0059                 2.3724
 Frc consts  --      0.0850                 0.1734                 0.1220
 IR Inten    --      2.2529                 0.2549                 0.7778

                      7                      8                      9
                      A                      A                      A
 Frequencies --    347.9605               432.8068               457.5070
 Red. masses --      3.1172                 3.0948                 3.3520
 Frc consts  --      0.2224                 0.3416                 0.4134
 IR Inten    --      0.6379                 2.3969                 3.9642

                     10                     11                     12
                      A                      A                      A
 Frequencies --    498.0136               536.3207               593.1441
 Red. masses --      2.5822                 2.2406                 3.1433
 Frc consts  --      0.3773                 0.3797                 0.6516
 IR Inten    --      1.4107                 3.4552                 0.5171

                     13                     14                     15
                      A                      A                      A
 Frequencies --    664.7421               682.5391               720.1970
 Red. masses --      2.5108                 3.2825                 1.6978
 Frc consts  --      0.6537                 0.9010                 0.5189
 IR Inten    --      7.6262                 3.8651                31.1769

                     16                     17                     18
                      A                      A                      A
 Frequencies --    747.0971               843.4588               897.2305
 Red. masses --      1.7329                 2.1624                 3.0027
 Frc consts  --      0.5699                 0.9064                 1.4242
 IR Inten    --     63.5935                 9.5539                 9.7803

                     19                     20                     21
                      A                      A                      A
 Frequencies --    909.3608               931.4698               971.2704
 Red. masses --      2.6440                 2.6577                 2.5804
 Frc consts  --      1.2882                 1.3586                 1.4342
 IR Inten    --      8.1544                 2.2677                 4.5776

                     22                     23                     24
                      A                      A                      A
 Frequencies --    988.2999              1001.5594              1004.3208
 Red. masses --      1.4270                 1.2944                 2.1957
 Frc consts  --      0.8212                 0.7650                 1.3049
 IR Inten    --      9.2745                 2.0081                 7.9298

                     25                     26                     27
                      A                      A                      A
 Frequencies --   1029.6859              1058.4492              1081.6087
 Red. masses --      1.2667                 2.0873                 2.4442
 Frc consts  --      0.7913                 1.3778                 1.6847
 IR Inten    --     34.6429                 4.2834                 0.4671

                     28                     29                     30
                      A                      A                      A
 Frequencies --   1113.1864              1199.7239              1235.4703
 Red. masses --      3.0481                 1.0683                 1.1794
 Frc consts  --      2.2254                 0.9059                 1.0607
 IR Inten    --     55.9320                 1.3764                 0.4701

                     31                     32                     33
                      A                      A                      A
 Frequencies --   1267.3711              1296.6237              1306.7321
 Red. masses --      1.1681                 1.4189                 1.2163
 Frc consts  --      1.1054                 1.4055                 1.2237
 IR Inten    --      0.8262                18.2035                 5.6387

                     34                     35                     36
                      A                      A                      A
 Frequencies --   1316.1585              1342.3926              1371.0634
 Red. masses --      1.3243                 1.2793                 1.3309
 Frc consts  --      1.3516                 1.3582                 1.4741
 IR Inten    --      1.6076                 0.3792                 7.5516

                     37                     38                     39
                      A                      A                      A
 Frequencies --   1422.3986              1438.4681              1482.2336
 Red. masses --      1.4885                 1.3821                 1.1056
 Frc consts  --      1.7744                 1.6849                 1.4312
 IR Inten    --      0.4585                 2.9007                 6.7034

                     40                     41                     42
                      A                      A                      A
 Frequencies --   1511.6599              1674.8683              1686.2954
 Red. masses --      1.0892                 6.5454                 6.0696
 Frc consts  --      1.4664                10.8181                10.1689
 IR Inten    --      8.8309                 1.8366                30.1680

                     43                     44                     45
                      A                      A                      A
 Frequencies --   1712.4494              1812.7754              3033.3823
 Red. masses --      6.3547                12.0579                 1.0688
 Frc consts  --     10.9794                23.3458                 5.7942
 IR Inten    --      2.6373               291.9644                 8.2655

                     46                     47                     48
                      A                      A                      A
 Frequencies --   3037.4258              3100.7886              3111.1299
 Red. masses --      1.0668                 1.0938                 1.0929
 Frc consts  --      5.7991                 6.1965                 6.2324
 IR Inten    --     31.4115                 7.8514                 9.6934

                     49                     50                     51
                      A                      A                      A
 Frequencies --   3146.0968              3148.0269              3151.9735
 Red. masses --      1.0858                 1.0853                 1.0860
 Frc consts  --      6.3321                 6.3371                 6.3570
 IR Inten    --      6.2488                 2.0314                15.0206

                     52                     53                     54
                      A                      A                      A
 Frequencies --   3170.8697              3173.0549              3219.8203
 Red. masses --      1.0948                 1.0952                 1.0862
 Frc consts  --      6.4852                 6.4970                 6.6349
 IR Inten    --     51.1170                42.2246                 2.4245

 - Thermochemistry -
 -------------------
 Temperature   298.150 Kelvin.  Pressure   1.00000 Atm.
 Atom     1 has atomic number  6 and mass  12.00000

 Molecular mass:   134.07317 amu.
 Principal axes and moments of inertia in atomic units:
                           1         2         3
     Eigenvalues --   919.987791407.087812135.88770
           X            0.99888   0.04734  -0.00047
           Y           -0.04734   0.99886  -0.00607
           Z            0.00018   0.00608   0.99998
 This molecule is an asymmetric top.
 Rotational symmetry number  1.
 Warning -- assumption of classical behavior for rotation
           may cause significant error
 Rotational temperatures (Kelvin)      0.09415     0.06156     0.04055
 Rotational constants (GHZ):           1.96170     1.28261     0.84496
 Zero-point vibrational energy     437134.2 (Joules/Mol)
                                  104.47759 (Kcal/Mol)
 Warning -- explicit consideration of  12 degrees of freedom as
           vibrations may cause significant error
 Vibrational temperatures:    108.70   225.41   261.56   321.13   389.99
          (Kelvin)            424.99   500.64   622.71   658.25   716.53
                              771.65   853.40   956.42   982.02  1036.20
                             1074.91  1213.55  1290.91  1308.37  1340.18
                             1397.44  1421.94  1441.02  1444.99  1481.49
                             1522.87  1556.19  1601.63  1726.14  1777.57
                             1823.46  1865.55  1880.10  1893.66  1931.40
                             1972.65  2046.51  2069.63  2132.60  2174.94
                             2409.76  2426.20  2463.83  2608.18  4364.36
                             4370.18  4461.34  4476.22  4526.53  4529.31
                             4534.99  4562.17  4565.32  4632.60

 Zero-point correction=                           0.166496 (Hartree/Particle)
 Thermal correction to Energy=                    0.175289
 Thermal correction to Enthalpy=                  0.176233
 Thermal correction to Gibbs Free Energy=         0.132935
 Sum of electronic and zero-point Energies=           -423.979504
 Sum of electronic and thermal Energies=              -423.970712
 Sum of electronic and thermal Enthalpies=            -423.969767
 Sum of electronic and thermal Free Energies=         -424.013065

                     E (Thermal)             CV                S
                      KCal/Mol        Cal/Mol-Kelvin    Cal/Mol-Kelvin
 Total                  109.995             34.510             91.127
 Electronic               0.000              0.000              0.000
 Translational            0.889              2.981             40.592
 Rotational               0.889              2.981             29.404
 Vibrational            108.218             28.549             21.131
 Vibration     1          0.599              1.965              4.003
 Vibration     2          0.620              1.895              2.590
 Vibration     3          0.630              1.865              2.310
 Vibration     4          0.649              1.806              1.933
 Vibration     5          0.675              1.727              1.589
 Vibration     6          0.690              1.682              1.443
 Vibration     7          0.726              1.579              1.175
 Vibration     8          0.794              1.399              0.850
 Vibration     9          0.816              1.344              0.773
 Vibration    10          0.853              1.254              0.663
 Vibration    11          0.891              1.170              0.573
 Vibration    12          0.951              1.046              0.462

 Optimization completed.
    -- Stationary point found.

 1\1\GINC-NODE319\Freq\RB3LYP\6-31G(d)\C9H10O1\VSC10255\08-Dec-2020\0\\
 #N Geom=AllCheck Guess=TCheck SCRF=Check GenChk RB3LYP/6-31G(d) Freq\\
 CID_131857526_JID_975_neutraal\\0,1\C,0.7485345065,0.5270812057,-2.487
 1608314\C,0.0256900094,-0.5064529814,-3.3281000138\C,-0.3570480975,-1.
 7351853098,-2.9472602797\C,-0.1956780587,-2.3771554462,-1.5845328898\C
 ,-1.0437156345,-1.8129948083,-0.4010462362\O,-1.1372154628,-2.42098797
 29,0.6453471244\C,-1.4884250105,-0.4340217768,-0.6929752706\C,-0.96305
 39228,0.646546624,-0.0932367323\C,-0.773251246,1.8525975814,-0.9172309

 Normal termination of Gaussian 16 at Tue Dec  8 13:38:28 2020.

 ----------------------------------------------------------------------
 # B3LYP/6-311++G(d,p) empiricaldispersion=gd3bj scf=xqc pop=npa geom=c
 heck
 ----------------------------------------------------------------------

 --------------------------------------
 CID_131857526_JID_975_Energie_neutraal
 --------------------------------------
 Structure from the checkpoint file:  "JID_975.chk"
 Charge =  0 Multiplicity = 1

 SCF Done:  E(RB3LYP) =  -424.266513852     A.U. after   14 cycles
 Normal termination of Gaussian 16 at Tue Dec  8 13:40:28 2020.

 ----------------------------------------------------------------------
 # B3LYP/6-311++G(d,p) empiricaldispersion=gd3bj scf=xqc pop=npa geom=c
 heck
 ----------------------------------------------------------------------

 ------------------------------------
 CID_131857526_JID_975_Energie_kation
 ------------------------------------
 Structure from the checkpoint file:  "JID_975.chk"
 Charge =  1 Multiplicity = 2

 SCF Done:  E(UB3LYP) =  -423.952968326     A.U. after   22 cycles
 Normal termination of Gaussian 16 at Tue Dec  8 13:45:14 2020.
 Gaussian 16:  ES64L-G16RevA.03 25-Dec-2016

 -----------------------------------
 CID_131857526_JID_975_Energie_anion
 -----------------------------------
 Structure from the checkpoint file:  "JID_975.chk"
 Charge = -1 Multiplicity = 2

                         Standard orientation:
 ---------------------------------------------------------------------
 Center     Atomic      Atomic             Coordinates (Angstroms)
 Number     Number       Type             X           Y           Z
 ---------------------------------------------------------------------
      1          6           0       -1.553495    0.880579    0.695837
      2          6           0       -0.802973    1.800230   -0.246942
      3          6           0        0.526975    1.885169   -0.406114
      4          6           0        1.598751    1.066441    0.283938
      5          6           0        1.713902   -0.448123   -0.077894
      6          8           0        2.683571   -1.097616    0.255627
      7          6           0        0.446404   -0.940675   -0.657030
      8          6           0       -0.400397   -1.741410    0.010113
      9          6           0       -1.842490   -1.505825   -0.175406
     10          6           0       -2.334562   -0.275022    0.064453
     11          1           0       -0.853757    0.467213    1.428329
     12          1           0       -2.273819    1.489897    1.258392
     13          1           0       -1.427011    2.450417   -0.859282
     14          1           0        0.893114    2.600199   -1.141092
     15          1           0        2.587365    1.513875    0.143533
     16          1           0        1.426358    1.046772    1.370053
     17          1           0        0.020133   -0.311793   -1.429321
     18          1           0       -0.045810   -2.390905    0.811824
     19          1           0       -2.511581   -2.314003   -0.469249
     20          1           0       -3.396244   -0.098932   -0.103937
 ---------------------------------------------------------------------

 SCF Done:  E(UB3LYP) =  -424.264270108     A.U. after   31 cycles

 The electronic state is 2-A.
 Alpha  occ. eigenvalues --  -18.94880 -10.09548 -10.04955 -10.04876 -10.04791
 Alpha  occ. eigenvalues --  -10.04613 -10.03305 -10.03189 -10.01664 -10.00345
 Alpha  occ. eigenvalues --   -0.88530  -0.69613  -0.65851  -0.63148  -0.57001
 Alpha  occ. eigenvalues --   -0.54947  -0.47245  -0.42832  -0.38874  -0.37212
 Alpha  occ. eigenvalues --   -0.35884  -0.34138  -0.30748  -0.30439  -0.28860
 Alpha  occ. eigenvalues --   -0.27654  -0.26547  -0.25367  -0.23170  -0.22024
 Alpha  occ. eigenvalues --   -0.20780  -0.20450  -0.14451  -0.13413  -0.10572
 Alpha  occ. eigenvalues --   -0.08665   0.05439
 Alpha virt. eigenvalues --    0.08089   0.09410   0.10012   0.10113   0.11583
 Alpha virt. eigenvalues --    0.11793   0.12481   0.12790   0.13009   0.13800
 Alpha virt. eigenvalues --    0.14131   0.15638   0.16569   0.17766   0.19123

  Beta  occ. eigenvalues --  -18.94645 -10.09340 -10.04944 -10.04864 -10.04790
  Beta  occ. eigenvalues --  -10.04626 -10.03231 -10.03083 -10.01381 -10.00178
  Beta  occ. eigenvalues --   -0.88070  -0.69390  -0.65596  -0.62752  -0.56762
  Beta  occ. eigenvalues --   -0.54705  -0.46643  -0.42646  -0.38677  -0.36886
  Beta  occ. eigenvalues --   -0.35693  -0.33910  -0.30487  -0.30268  -0.28503
  Beta  occ. eigenvalues --   -0.27414  -0.26237  -0.25154  -0.22982  -0.21856
  Beta  occ. eigenvalues --   -0.20565  -0.19593  -0.14228  -0.12500  -0.09597
  Beta  occ. eigenvalues --   -0.08206
  Beta virt. eigenvalues --    0.08357   0.09487   0.10174   0.10282   0.10729
  Beta virt. eigenvalues --    0.11827   0.12038   0.12740   0.12878   0.13359
  Beta virt. eigenvalues --    0.13791   0.14971   0.15815   0.17056   0.17929

 Mulliken charges and spin densities:
               1          2
     1  C    0.379974  -0.526872
     2  C    0.241172  -0.468222
     3  C   -0.262603   0.272146
     4  C   -0.200584  -0.222773
     5  C   -0.565408   0.306533
     6  O   -0.355125   0.070754
     7  C    0.444569  -0.210480
     8  C   -0.439641   0.475603
     9  C   -0.171046  -0.138802
    10  C    0.167668  -0.248901
    11  H   -0.011031   0.143683
    12  H   -0.081179   0.238365
    13  H   -0.248997   0.392445
    14  H    0.130818   0.021382
    15  H    0.160561  -0.020556
    16  H    0.032831   0.151829
    17  H    0.127527   0.005278
    18  H    0.102424   0.034624
    19  H    0.051086   0.082805
    20  H   -0.503016   0.641160
 Sum of Mulliken charges =  -1.00000   1.00000

 Dipole moment (field-independent basis, Debye):
    X=              0.5655    Y=              2.1153    Z=              0.2406  Tot=              2.2027
 Quadrupole moment (field-independent basis, Debye-Ang):
   XX=           -104.9759   YY=            -82.8149   ZZ=            -73.8111
   XY=             10.0310   XZ=             -3.0557   YZ=             -1.6287

 Summary of Natural Population Analysis:

                                       Natural Population
                Natural  -----------------------------------------------
    Atom  No    Charge         Core      Valence    Rydberg      Total
 -----------------------------------------------------------------------
      C    1   -0.23398      0.99959     2.22328    0.01110     3.23398
      C    2   -0.08036      0.99951     2.07002    0.01083     3.08036
      C    3   -0.10040      0.99953     2.09145    0.00942     3.10040
      C    4   -0.25680      0.99958     2.24612    0.01110     3.25680
      C    5    0.30949      0.99962     1.66958    0.02131     2.69051
      O    6   -0.28412      0.99987     3.27698    0.00727     4.28412
      C    7   -0.11724      0.99944     2.10767    0.01013     3.11724
      C    8   -0.04509      0.99948     2.03564    0.00997     3.04509
      C    9   -0.11695      0.99951     2.10510    0.01234     3.11695
      C   10   -0.05106      0.99952     2.04101    0.01054     3.05106
      H   11    0.10716      0.00000     0.39144    0.00140     0.39284
      H   12    0.10081      0.00000     0.39798    0.00120     0.39919
      H   13    0.09097      0.00000     0.40800    0.00103     0.40903
      H   14    0.09014      0.00000     0.40894    0.00092     0.40986
      H   15    0.10564      0.00000     0.39322    0.00114     0.39436
      H   16    0.11157      0.00000     0.38650    0.00194     0.38843
      H   17    0.09735      0.00000     0.40084    0.00181     0.40265
      H   18    0.09071      0.00000     0.40787    0.00142     0.40929
      H   19    0.09418      0.00000     0.40477    0.00105     0.40582
      H   20    0.08796      0.00000     0.41018    0.00185     0.41204
 =======================================================================
   * Total *   -0.00000      9.99565    25.87659    0.12777    36.00000

 Normal termination of Gaussian 16 at Tue Dec  8 13:50:00 2020.
