 Gaussian 16, Revision A.03,

 -----------------------------------------------------------
 # opt freq B3LYP/6-31G(d) empiricaldispersion=gd3bj scf=xqc
 -----------------------------------------------------------

 -------------------------------
 CID_116310331_JID_8414_neutraal
 -------------------------------
 Symbolic Z-matrix:
 Charge =  0 Multiplicity = 1

 SCF Done:  E(RB3LYP) =  -1463.93825148     A.U. after   15 cycles
 SCF Done:  E(RB3LYP) =  -1463.94392993     A.U. after   13 cycles
 SCF Done:  E(RB3LYP) =  -1463.94456659     A.U. after   12 cycles
 SCF Done:  E(RB3LYP) =  -1463.94517467     A.U. after   12 cycles
 SCF Done:  E(RB3LYP) =  -1463.94530080     A.U. after   12 cycles
 SCF Done:  E(RB3LYP) =  -1463.94537193     A.U. after   11 cycles
 SCF Done:  E(RB3LYP) =  -1463.94538821     A.U. after   11 cycles
 SCF Done:  E(RB3LYP) =  -1463.94539645     A.U. after   10 cycles
 SCF Done:  E(RB3LYP) =  -1463.94539761     A.U. after    8 cycles
 SCF Done:  E(RB3LYP) =  -1463.94539770     A.U. after    8 cycles
 Optimization completed.
    -- Stationary point found.
 Normal termination of Gaussian 16 at Sun Dec 13 20:07:38 2020.

 --------------------------------------------------------------------
 #N Geom=AllCheck Guess=TCheck SCRF=Check GenChk RB3LYP/6-31G(d) Freq
 --------------------------------------------------------------------

 Structure from the checkpoint file:  "JID_8414.chk"
 -------------------------------
 CID_116310331_JID_8414_neutraal
 -------------------------------
 Charge =  0 Multiplicity = 1

 SCF Done:  E(RB3LYP) =  -1463.94539770     A.U. after    1 cycles

  Exact polarizability: 261.490 -16.292 211.224  -4.617  -1.276 107.287
 Approx polarizability: 376.472 -30.803 391.063  -7.829  -3.369 165.333

                      1                      2                      3
                      A                      A                      A
 Frequencies --     29.6098                51.7906                65.8692
 Red. masses --      6.6802                 5.4966                 4.5783
 Frc consts  --      0.0035                 0.0087                 0.0117
 IR Inten    --      0.3403                 1.7925                 1.9372

                      4                      5                      6
                      A                      A                      A
 Frequencies --    105.1906               115.1669               129.6916
 Red. masses --     10.1306                 8.8869                 6.6075
 Frc consts  --      0.0660                 0.0694                 0.0655
 IR Inten    --      3.5350                 1.3457                 1.7682

                      7                      8                      9
                      A                      A                      A
 Frequencies --    172.3394               194.4544               201.0648
 Red. masses --      2.9794                 4.2508                 3.9573
 Frc consts  --      0.0521                 0.0947                 0.0943
 IR Inten    --      0.4234                 4.5250                 1.2933

                     10                     11                     12
                      A                      A                      A
 Frequencies --    214.5931               289.8981               295.0522
 Red. masses --      4.5821                 6.3628                 6.2503
 Frc consts  --      0.1243                 0.3151                 0.3206
 IR Inten    --      1.9170                 0.2748                 0.0940

                     13                     14                     15
                      A                      A                      A
 Frequencies --    315.3581               347.7120               395.6189
 Red. masses --      2.0827                 6.2215                 5.9480
 Frc consts  --      0.1220                 0.4432                 0.5485
 IR Inten    --      0.6224                 1.5367                 4.7476

                     16                     17                     18
                      A                      A                      A
 Frequencies --    411.3770               419.8087               426.4735
 Red. masses --      8.6890                 6.6405                 2.8546
 Frc consts  --      0.8664                 0.6895                 0.3059
 IR Inten    --      7.8658                 0.4294                 0.1209

                     19                     20                     21
                      A                      A                      A
 Frequencies --    449.0190               486.2695               520.9679
 Red. masses --      4.5050                 3.0083                 4.8053
 Frc consts  --      0.5351                 0.4191                 0.7684
 IR Inten    --      3.2741                 8.9668                 8.5612

                     22                     23                     24
                      A                      A                      A
 Frequencies --    557.4423               567.3110               616.7959
 Red. masses --      2.1765                 1.6066                 5.0288
 Frc consts  --      0.3985                 0.3047                 1.1272
 IR Inten    --     41.9993                44.4542                13.1676

                     25                     26                     27
                      A                      A                      A
 Frequencies --    622.8735               640.9124               666.7579
 Red. masses --      6.3829                 5.9967                 4.2022
 Frc consts  --      1.4590                 1.4513                 1.1007
 IR Inten    --      1.7921                16.8841                 2.2606

                     28                     29                     30
                      A                      A                      A
 Frequencies --    675.1371               735.3883               744.9954
 Red. masses --      8.4690                 6.1530                 2.1767
 Frc consts  --      2.2744                 1.9605                 0.7118
 IR Inten    --      0.7556                11.8537                14.7334

                     31                     32                     33
                      A                      A                      A
 Frequencies --    770.4537               792.8966               803.6747
 Red. masses --      4.8033                 2.1313                 2.9060
 Frc consts  --      1.6799                 0.7895                 1.1059
 IR Inten    --      4.6211                24.5031                 5.0200

                     34                     35                     36
                      A                      A                      A
 Frequencies --    844.4006               856.2526               884.4823
 Red. masses --      2.3908                 1.3976                 2.1531
 Frc consts  --      1.0044                 0.6037                 0.9924
 IR Inten    --      2.3448                 4.5945                 5.1955

                     37                     38                     39
                      A                      A                      A
 Frequencies --    891.0913               894.1521               955.2660
 Red. masses --      4.7049                 1.3790                 2.3179
 Frc consts  --      2.2011                 0.6496                 1.2462
 IR Inten    --      0.2388                 0.0422                 4.8272

                     40                     41                     42
                      A                      A                      A
 Frequencies --    960.1013               969.5675              1043.6068
 Red. masses --      1.2689                 1.9498                 4.7884
 Frc consts  --      0.6891                 1.0799                 3.0727
 IR Inten    --      0.1818                14.2985                 2.5089

                     43                     44                     45
                      A                      A                      A
 Frequencies --   1065.1853              1096.4132              1098.5037
 Red. masses --      1.9637                 1.8132                 1.8785
 Frc consts  --      1.3127                 1.2842                 1.3356
 IR Inten    --      1.2422                 0.2024                10.0341

                     46                     47                     48
                      A                      A                      A
 Frequencies --   1111.2957              1130.7641              1161.3233
 Red. masses --      1.1776                 2.1106                 4.9993
 Frc consts  --      0.8569                 1.5900                 3.9725
 IR Inten    --      0.6990                 2.1728                 2.2000

                     49                     50                     51
                      A                      A                      A
 Frequencies --   1199.0951              1211.6069              1232.3904
 Red. masses --      1.4307                 1.6440                 1.3935
 Frc consts  --      1.2120                 1.4219                 1.2470
 IR Inten    --     92.6950                27.6346                 6.2454

                     52                     53                     54
                      A                      A                      A
 Frequencies --   1249.0698              1262.6747              1282.1976
 Red. masses --      2.0930                 1.7808                 1.7547
 Frc consts  --      1.9240                 1.6728                 1.6997
 IR Inten    --     55.1311                15.2071                15.2091

                     55                     56                     57
                      A                      A                      A
 Frequencies --   1297.5187              1313.0556              1338.1532
 Red. masses --      1.4478                 1.7667                 1.8647
 Frc consts  --      1.4361                 1.7947                 1.9673
 IR Inten    --     13.6701                31.3131                48.2437

                     58                     59                     60
                      A                      A                      A
 Frequencies --   1341.4961              1375.6559              1380.0181
 Red. masses --      1.3219                 1.3492                 7.4736
 Frc consts  --      1.4017                 1.5043                 8.3859
 IR Inten    --     21.6164                 4.4000               107.6373

                     61                     62                     63
                      A                      A                      A
 Frequencies --   1395.0936              1401.0392              1414.4994
 Red. masses --      1.4779                 1.4531                 3.1312
 Frc consts  --      1.6947                 1.6805                 3.6911
 IR Inten    --     36.8734                26.0015               171.9936

                     64                     65                     66
                      A                      A                      A
 Frequencies --   1438.9897              1491.4661              1496.3579
 Red. masses --      1.5639                 2.4205                 1.1754
 Frc consts  --      1.9080                 3.1724                 1.5506
 IR Inten    --      3.6218                45.6240                16.8822

                     67                     68                     69
                      A                      A                      A
 Frequencies --   1504.4631              1505.9972              1512.0665
 Red. masses --      1.7700                 1.4257                 1.1097
 Frc consts  --      2.3605                 1.9051                 1.4948
 IR Inten    --    183.3339               160.2565                 8.7602

                     70                     71                     72
                      A                      A                      A
 Frequencies --   1532.5957              1539.2217              1655.1055
 Red. masses --      1.0963                 3.1477                 7.2046
 Frc consts  --      1.5171                 4.3938                11.6281
 IR Inten    --      8.7129                69.2891                 6.6151

                     73                     74                     75
                      A                      A                      A
 Frequencies --   1672.2541              2347.3454              3040.8111
 Red. masses --      6.8835                12.6737                 1.0602
 Frc consts  --     11.3413                41.1442                 5.7757
 IR Inten    --     22.8492                45.2251                33.4271

                     76                     77                     78
                      A                      A                      A
 Frequencies --   3062.1894              3065.4275              3082.0731
 Red. masses --      1.0686                 1.0640                 1.0978
 Frc consts  --      5.9035                 5.8908                 6.1443
 IR Inten    --      7.8529                23.8025                34.9369

                     79                     80                     81
                      A                      A                      A
 Frequencies --   3093.0292              3100.2574              3123.4010
 Red. masses --      1.0598                 1.0855                 1.1012
 Frc consts  --      5.9735                 6.1470                 6.3294
 IR Inten    --      7.2280                 3.8976                11.0328

                     82                     83                     84
                      A                      A                      A
 Frequencies --   3126.4101              3153.6691              3212.0395
 Red. masses --      1.1013                 1.1057                 1.0874
 Frc consts  --      6.3425                 6.4791                 6.6101
 IR Inten    --     15.5541                 3.4661                 4.1273

                     85                     86                     87
                      A                      A                      A
 Frequencies --   3227.1531              3234.1469              3646.9605
 Red. masses --      1.0915                 1.0960                 1.0809
 Frc consts  --      6.6972                 6.7542                 8.4704
 IR Inten    --      4.3043                 4.7501                84.4661

 - Thermochemistry -
 -------------------
 Temperature   298.150 Kelvin.  Pressure   1.00000 Atm.
 Atom     1 has atomic number  6 and mass  12.00000

 Molecular mass:   275.05509 amu.
 Principal axes and moments of inertia in atomic units:
                           1         2         3
     Eigenvalues --  2601.157218820.91806**********
           X            0.99993  -0.00712  -0.00920
           Y            0.00704   0.99994  -0.00864
           Z            0.00926   0.00857   0.99992
 This molecule is an asymmetric top.
 Rotational symmetry number  1.
 Warning -- assumption of classical behavior for rotation
           may cause significant error
 Rotational temperatures (Kelvin)      0.03330     0.00982     0.00831
 Rotational constants (GHZ):           0.69382     0.20460     0.17316
 Zero-point vibrational energy     642103.8 (Joules/Mol)
                                  153.46648 (Kcal/Mol)
 Warning -- explicit consideration of  24 degrees of freedom as
           vibrations may cause significant error
 Vibrational temperatures:     42.60    74.52    94.77   151.35   165.70
          (Kelvin)            186.60   247.96   279.78   289.29   308.75
                              417.10   424.51   453.73   500.28   569.21
                              591.88   604.01   613.60   646.04   699.63
                              749.56   802.04   816.23   887.43   896.18
                              922.13   959.32   971.37  1058.06  1071.88
                             1108.51  1140.80  1156.31  1214.90  1231.96
                             1272.57  1282.08  1286.49  1374.41  1381.37
                             1394.99  1501.52  1532.56  1577.49  1580.50
                             1598.91  1626.92  1670.89  1725.23  1743.23
                             1773.13  1797.13  1816.71  1844.80  1866.84
                             1889.19  1925.30  1930.11  1979.26  1985.54
                             2007.23  2015.78  2035.15  2070.39  2145.89
                             2152.93  2164.59  2166.79  2175.53  2205.06
                             2214.60  2381.33  2406.00  3377.31  4375.05
                             4405.81  4410.47  4434.42  4450.18  4460.58
                             4493.88  4498.21  4537.43  4621.41  4643.15
                             4653.22  5247.16

 Zero-point correction=                           0.244564 (Hartree/Particle)
 Thermal correction to Energy=                    0.260114
 Thermal correction to Enthalpy=                  0.261058
 Thermal correction to Gibbs Free Energy=         0.200708
 Sum of electronic and zero-point Energies=          -1463.700833
 Sum of electronic and thermal Energies=             -1463.685284
 Sum of electronic and thermal Enthalpies=           -1463.684340
 Sum of electronic and thermal Free Energies=        -1463.744689

                     E (Thermal)             CV                S
                      KCal/Mol        Cal/Mol-Kelvin    Cal/Mol-Kelvin
 Total                  163.224             60.508            127.017
 Electronic               0.000              0.000              0.000
 Translational            0.889              2.981             42.734
 Rotational               0.889              2.981             33.836
 Vibrational            161.446             54.546             50.447
 Vibration     1          0.593              1.984              5.855
 Vibration     2          0.596              1.977              4.748
 Vibration     3          0.597              1.971              4.273
 Vibration     4          0.605              1.945              3.356
 Vibration     5          0.608              1.937              3.180
 Vibration     6          0.612              1.924              2.951
 Vibration     7          0.626              1.877              2.410
 Vibration     8          0.635              1.848              2.185
 Vibration     9          0.638              1.838              2.123
 Vibration    10          0.645              1.819              2.004
 Vibration    11          0.686              1.693              1.475
 Vibration    12          0.689              1.683              1.445
 Vibration    13          0.703              1.644              1.334
 Vibration    14          0.725              1.580              1.177
 Vibration    15          0.762              1.480              0.979
 Vibration    16          0.775              1.446              0.922
 Vibration    17          0.782              1.427              0.893
 Vibration    18          0.788              1.413              0.870
 Vibration    19          0.808              1.363              0.799
 Vibration    20          0.842              1.280              0.693
 Vibration    21          0.876              1.204              0.608
 Vibration    22          0.913              1.123              0.529
 Vibration    23          0.923              1.102              0.509
 Vibration    24          0.976              0.996              0.422

 Optimization completed.
    -- Stationary point found.
 Normal termination of Gaussian 16 at Sun Dec 13 20:22:21 2020.

 ----------------------------------------------------------------------
 # B3LYP/6-311++G(d,p) empiricaldispersion=gd3bj scf=xqc pop=npa geom=c
 heck
 ----------------------------------------------------------------------

 ---------------------------------------
 CID_116310331_JID_8414_Energie_neutraal
 ---------------------------------------
 Structure from the checkpoint file:  "JID_8414.chk"
 Charge =  0 Multiplicity = 1

 SCF Done:  E(RB3LYP) =  -1464.16912228     A.U. after   17 cycles
 Normal termination of Gaussian 16 at Sun Dec 13 20:29:20 2020.

 ----------------------------------------------------------------------
 # B3LYP/6-311++G(d,p) empiricaldispersion=gd3bj scf=xqc pop=npa geom=c
 heck
 ----------------------------------------------------------------------

 -------------------------------------
 CID_116310331_JID_8414_Energie_kation
 -------------------------------------
 Structure from the checkpoint file:  "JID_8414.chk"
 Charge =  1 Multiplicity = 2

 SCF Done:  E(UB3LYP) =  -1463.88938131     A.U. after   26 cycles
 Normal termination of Gaussian 16 at Sun Dec 13 20:45:05 2020.
 Gaussian 16:  ES64L-G16RevA.03 25-Dec-2016

 ----------------------------------------------------------------------
 # B3LYP/6-311++G(d,p) empiricaldispersion=gd3bj scf=xqc pop=npa geom=c
 heck
 ----------------------------------------------------------------------

 ------------------------------------
 CID_116310331_JID_8414_Energie_anion
 ------------------------------------
 Structure from the checkpoint file:  "JID_8414.chk"
 Charge = -1 Multiplicity = 2

                         Standard orientation:
 ---------------------------------------------------------------------
 Center     Atomic      Atomic             Coordinates (Angstroms)
 Number     Number       Type             X           Y           Z
 ---------------------------------------------------------------------
      1          6           0       -3.495469   -0.537364    1.571452
      2          6           0       -2.099654    0.079285    1.407760
      3          6           0       -1.407755   -0.378146    0.115020
      4          6           0       -2.178591   -0.010363   -1.158600
      5         16           0       -3.812056   -0.835563   -1.191780
      6          6           0       -4.432209   -0.195350    0.412098
      7          7           0       -0.015601    0.104722    0.050421
      8          6           0        1.091848   -0.746437    0.051966
      9          6           0        1.211862   -2.131218    0.097728
     10          6           0        2.502590   -2.676982    0.083885
     11          6           0        3.639207   -1.871571    0.026589
     12          6           0        3.524162   -0.469138   -0.020349
     13          6           0        2.234734    0.072699   -0.006892
     14          7           0        1.779931    1.368987   -0.042725
     15          6           0        0.399083    1.425142   -0.010926
     16         16           0       -0.488691    2.835163   -0.049342
     17          6           0        4.658364    0.394534   -0.079645
     18          7           0        5.554834    1.134964   -0.128100
     19          1           0       -3.418247   -1.628585    1.659106
     20          1           0       -3.935781   -0.169158    2.507246
     21          1           0       -2.169841    1.170956    1.403970
     22          1           0       -1.466582   -0.201097    2.257691
     23          1           0       -1.328039   -1.467780    0.140827
     24          1           0       -2.300145    1.072035   -1.233546
     25          1           0       -1.635817   -0.358001   -2.042255
     26          1           0       -5.416649   -0.651099    0.552521
     27          1           0       -4.572053    0.888802    0.331397
     28          1           0        0.342709   -2.777579    0.141062
     29          1           0        2.618925   -3.754941    0.118234
     30          1           0        4.627967   -2.315755    0.016948
     31          1           0        2.342326    2.207342   -0.092930
 ---------------------------------------------------------------------

 SCF Done:  E(UB3LYP) =  -1464.19624743     A.U. after   22 cycles

 The electronic state is 2-A.
 Alpha  occ. eigenvalues --  -88.75560 -88.66925 -14.26010 -14.25184 -14.16457
 Alpha  occ. eigenvalues --  -10.15048 -10.13130 -10.12163 -10.10711 -10.09755
 Alpha  occ. eigenvalues --  -10.09533 -10.09290 -10.08121 -10.06734 -10.06113
 Alpha  occ. eigenvalues --  -10.04982 -10.04666 -10.04022  -7.84190  -7.75721
 Alpha  occ. eigenvalues --   -5.80572  -5.80235  -5.79557  -5.72147  -5.71512
 Alpha  occ. eigenvalues --   -5.71297  -0.92336  -0.81851  -0.76919  -0.75269
 Alpha  occ. eigenvalues --   -0.73366  -0.67853  -0.67170  -0.65367  -0.63934
 Alpha  occ. eigenvalues --   -0.58601  -0.56599  -0.54283  -0.52069  -0.50392
 Alpha  occ. eigenvalues --   -0.48794  -0.46893  -0.44916  -0.41021  -0.40101
 Alpha  occ. eigenvalues --   -0.38124  -0.37040  -0.36185  -0.35452  -0.34272
 Alpha  occ. eigenvalues --   -0.33990  -0.33369  -0.32181  -0.31298  -0.27960
 Alpha  occ. eigenvalues --   -0.27820  -0.26314  -0.26030  -0.25770  -0.25634
 Alpha  occ. eigenvalues --   -0.25042  -0.24536  -0.23059  -0.22732  -0.22080
 Alpha  occ. eigenvalues --   -0.19954  -0.19600  -0.15690  -0.14501  -0.12353
 Alpha  occ. eigenvalues --   -0.10089  -0.08642   0.02879
 Alpha virt. eigenvalues --    0.06030   0.07784   0.08458   0.08825   0.09082
 Alpha virt. eigenvalues --    0.10060   0.10436   0.10850   0.11549   0.11825
 Alpha virt. eigenvalues --    0.12086   0.12239   0.12471   0.12798   0.13342

  Beta  occ. eigenvalues --  -88.75560 -88.66896 -14.26063 -14.25255 -14.16140
  Beta  occ. eigenvalues --  -10.14715 -10.13129 -10.12163 -10.10712 -10.09755
  Beta  occ. eigenvalues --  -10.09440 -10.09307 -10.08122 -10.06742 -10.05794
  Beta  occ. eigenvalues --  -10.05034 -10.04477 -10.03578  -7.84191  -7.75695
  Beta  occ. eigenvalues --   -5.80573  -5.80236  -5.79557  -5.72144  -5.71408
  Beta  occ. eigenvalues --   -5.71281  -0.92189  -0.81873  -0.76444  -0.75265
  Beta  occ. eigenvalues --   -0.72936  -0.67811  -0.67151  -0.64958  -0.63277
  Beta  occ. eigenvalues --   -0.58431  -0.56385  -0.54285  -0.51824  -0.49963
  Beta  occ. eigenvalues --   -0.48646  -0.46834  -0.44737  -0.40768  -0.40091
  Beta  occ. eigenvalues --   -0.38096  -0.36938  -0.35930  -0.35227  -0.34120
  Beta  occ. eigenvalues --   -0.33816  -0.33325  -0.32085  -0.31083  -0.27954
  Beta  occ. eigenvalues --   -0.27807  -0.26182  -0.25839  -0.25415  -0.24906
  Beta  occ. eigenvalues --   -0.24670  -0.24238  -0.22873  -0.22327  -0.21275
  Beta  occ. eigenvalues --   -0.19774  -0.19046  -0.14817  -0.14269  -0.10404
  Beta  occ. eigenvalues --   -0.10029  -0.07925
  Beta virt. eigenvalues --    0.06011   0.07754   0.08426   0.08620   0.08841
  Beta virt. eigenvalues --    0.09066   0.10213   0.10552   0.11003   0.11628
  Beta virt. eigenvalues --    0.12116   0.12223   0.12449   0.12798   0.12883

 Mulliken charges and spin densities:
               1          2
     1  C   -0.291171  -0.000127
     2  C    0.193487  -0.005598
     3  C   -1.300102  -0.008204
     4  C   -0.035033  -0.003693
     5  S    0.115625   0.000826
     6  C   -0.729148  -0.000812
     7  N    0.653910  -0.017362
     8  C    0.405937  -0.035356
     9  C   -0.247960   0.364566
    10  C   -0.419127  -0.041720
    11  C   -0.181146   0.191979
    12  C    1.182452   0.243126
    13  C    0.054564   0.050037
    14  N   -0.069762  -0.034145
    15  C    0.458455   0.156139
    16  S   -1.053731   0.084111
    17  C   -1.511671  -0.085893
    18  N   -0.325643   0.165137
    19  H    0.141400   0.002167
    20  H    0.152940  -0.000207
    21  H    0.166747   0.004941
    22  H    0.176840   0.002254
    23  H   -0.050609  -0.004879
    24  H    0.227816   0.005146
    25  H    0.222496   0.001441
    26  H    0.205669  -0.000014
    27  H    0.186087   0.000165
    28  H    0.069589  -0.029115
    29  H    0.134093   0.002252
    30  H    0.123345  -0.009094
    31  H    0.343651   0.001934
 Sum of Mulliken charges =  -1.00000   1.00000

 Dipole moment (field-independent basis, Debye):
    X=            -10.3824    Y=             -4.2069    Z=              1.6274  Tot=             11.3199
 Quadrupole moment (field-independent basis, Debye-Ang):
   XX=           -201.1874   YY=           -153.6212   ZZ=           -131.6364
   XY=             -6.4036   XZ=             -6.4488   YZ=             -0.6929

 Summary of Natural Population Analysis:

                                       Natural Population
                Natural  -----------------------------------------------
    Atom  No    Charge         Core      Valence    Rydberg      Total
 -----------------------------------------------------------------------
      C    1   -0.19430      0.99962     2.18723    0.00744     3.19430
      C    2   -0.20219      0.99960     2.19447    0.00812     3.20219
      C    3   -0.00484      0.99956     1.99300    0.01228     3.00484
      C    4   -0.25600      0.99956     2.24758    0.00886     3.25600
      S    5    0.07776      4.99965     2.90269    0.01991     7.92224
      C    6   -0.24989      0.99960     2.24122    0.00907     3.24989
      N    7   -0.23750      0.99957     2.72494    0.01299     3.73750
      C    8    0.06828      0.99946     1.92328    0.00898     2.93172
      C    9   -0.03704      0.99954     2.02894    0.00856     3.03704
      C   10   -0.12490      0.99959     2.11601    0.00930     3.12490
      C   11   -0.06469      0.99961     2.05061    0.01447     3.06469
      C   12   -0.00693      0.99940     1.99620    0.01133     3.00693
      C   13    0.08915      0.99950     1.89614    0.01520     2.91085
      N   14   -0.29087      0.99961     2.78180    0.00945     3.79087
      C   15    0.18705      0.99965     1.79511    0.01818     2.81295
      S   16   -0.15764      4.99959     3.14320    0.01485     8.15764
      C   17    0.12875      0.99971     1.85199    0.01954     2.87125
      N   18   -0.15967      0.99979     2.64895    0.01093     3.65967
      H   19    0.09585      0.00000     0.40262    0.00153     0.40415
      H   20    0.09751      0.00000     0.40119    0.00130     0.40249
      H   21    0.11523      0.00000     0.38316    0.00161     0.38477
      H   22    0.10401      0.00000     0.39494    0.00105     0.39599
      H   23    0.10418      0.00000     0.39390    0.00192     0.39582
      H   24    0.11917      0.00000     0.37914    0.00169     0.38083
      H   25    0.11128      0.00000     0.38777    0.00095     0.38872
      H   26    0.10232      0.00000     0.39654    0.00113     0.39768
      H   27    0.10029      0.00000     0.39819    0.00152     0.39971
      H   28    0.09103      0.00000     0.40788    0.00109     0.40897
      H   29    0.09315      0.00000     0.40581    0.00103     0.40685
      H   30    0.09539      0.00000     0.40343    0.00117     0.40461
      H   31    0.21081      0.00000     0.28768    0.00152     0.28919
 =======================================================================
   * Total *    0.00478     25.99262    45.76562    0.23698    71.99522

 Normal termination of Gaussian 16 at Sun Dec 13 20:58:08 2020.
