 Gaussian 16, Revision A.03,

 -----------------------------------------------------------
 # opt freq B3LYP/6-31G(d) empiricaldispersion=gd3bj scf=xqc
 -----------------------------------------------------------

 --------------------------------
 CID_134101105_JID_10440_neutraal
 --------------------------------
 Symbolic Z-matrix:
 Charge =  0 Multiplicity = 1

 SCF Done:  E(RB3LYP) =  -1657.64579658     A.U. after   18 cycles
 SCF Done:  E(RB3LYP) =  -1657.45235781     A.U. after   15 cycles
 SCF Done:  E(RB3LYP) =  -1657.65238570     A.U. after   14 cycles
 SCF Done:  E(RB3LYP) =  -1657.65710303     A.U. after   13 cycles
 SCF Done:  E(RB3LYP) =  -1657.65902846     A.U. after   13 cycles
 SCF Done:  E(RB3LYP) =  -1657.66015201     A.U. after   13 cycles
 SCF Done:  E(RB3LYP) =  -1657.66085066     A.U. after   12 cycles
 SCF Done:  E(RB3LYP) =  -1657.66141921     A.U. after   12 cycles
 SCF Done:  E(RB3LYP) =  -1657.66185528     A.U. after   12 cycles
 SCF Done:  E(RB3LYP) =  -1657.66212507     A.U. after   12 cycles
 SCF Done:  E(RB3LYP) =  -1657.66442045     A.U. after    8 cycles
 SCF Done:  E(RB3LYP) =  -1657.66442075     A.U. after    8 cycles
 SCF Done:  E(RB3LYP) =  -1657.66442099     A.U. after    8 cycles
 SCF Done:  E(RB3LYP) =  -1657.66442132     A.U. after    8 cycles
 SCF Done:  E(RB3LYP) =  -1657.66442148     A.U. after    8 cycles
 SCF Done:  E(RB3LYP) =  -1657.66442162     A.U. after    8 cycles
 Optimization completed.
    -- Stationary point found.
 Normal termination of Gaussian 16 at Sun Dec 13 13:38:48 2020.

 --------------------------------------------------------------------
 #N Geom=AllCheck Guess=TCheck SCRF=Check GenChk RB3LYP/6-31G(d) Freq
 --------------------------------------------------------------------

 Structure from the checkpoint file:  "JID_10440.chk"
 --------------------------------
 CID_134101105_JID_10440_neutraal
 --------------------------------
 Charge =  0 Multiplicity = 1

 SCF Done:  E(RB3LYP) =  -1657.66442162     A.U. after    1 cycles

  Exact polarizability: 244.518 -36.889 180.688  30.620  25.137 161.596
 Approx polarizability: 389.728 -80.099 297.304  57.828  48.295 269.961

 ******    1 imaginary frequencies (negative Signs) ******

                      1                      2                      3
                      A                      A                      A
 Frequencies --    -11.9035                24.2025                43.7337
 Red. masses --      4.7251                 5.3494                 5.2083
 Frc consts  --      0.0004                 0.0018                 0.0059
 IR Inten    --      1.6403                 2.6501                 2.2530

                      4                      5                      6
                      A                      A                      A
 Frequencies --     64.9276                84.8444                93.2515
 Red. masses --      4.4697                 3.3380                 3.1207
 Frc consts  --      0.0111                 0.0142                 0.0160
 IR Inten    --      0.2356                 0.2947                 5.7158

                      7                      8                      9
                      A                      A                      A
 Frequencies --     96.2063               108.4786               121.8628
 Red. masses --      3.4873                 2.7184                 3.5128
 Frc consts  --      0.0190                 0.0188                 0.0307
 IR Inten    --      1.3580                 0.9218                 5.3136

                     10                     11                     12
                      A                      A                      A
 Frequencies --    132.9875               143.5628               154.4896
 Red. masses --      5.9523                 2.0424                 2.9191
 Frc consts  --      0.0620                 0.0248                 0.0410
 IR Inten    --     24.9995                 5.2050                 4.5801

                     13                     14                     15
                      A                      A                      A
 Frequencies --    166.4743               183.3864               191.6599
 Red. masses --      1.2023                 1.1050                 3.9494
 Frc consts  --      0.0196                 0.0219                 0.0855
 IR Inten    --      0.1954                 0.9252                 1.8759

                     16                     17                     18
                      A                      A                      A
 Frequencies --    204.2016               236.4002               256.0883
 Red. masses --      1.1262                 3.7669                 4.2417
 Frc consts  --      0.0277                 0.1240                 0.1639
 IR Inten    --      0.0908                 7.8034                 2.0570

                     19                     20                     21
                      A                      A                      A
 Frequencies --    278.4465               301.2235               344.9710
 Red. masses --      3.9304                 3.1905                 4.6611
 Frc consts  --      0.1795                 0.1706                 0.3268
 IR Inten    --      0.2143                 0.2294                 1.7251

                     22                     23                     24
                      A                      A                      A
 Frequencies --    376.1656               376.6755               406.1543
 Red. masses --     11.6779                 5.1121                 7.2706
 Frc consts  --      0.9736                 0.4273                 0.7066
 IR Inten    --      0.1995                 3.4856                 2.6208

                     25                     26                     27
                      A                      A                      A
 Frequencies --    411.5053               431.3216               477.8031
 Red. masses --      3.0603                 3.1448                 5.2398
 Frc consts  --      0.3053                 0.3447                 0.7048
 IR Inten    --      0.7538                 1.4208                 0.9396

                     28                     29                     30
                      A                      A                      A
 Frequencies --    507.8516               523.3442               532.1655
 Red. masses --     10.6368                 5.0166                 4.0863
 Frc consts  --      1.6163                 0.8095                 0.6818
 IR Inten    --      8.2699                 1.0387                 3.9729

                     31                     32                     33
                      A                      A                      A
 Frequencies --    545.5216               568.6456               575.4737
 Red. masses --     15.8962                 4.1363                 5.2287
 Frc consts  --      2.7872                 0.7880                 1.0202
 IR Inten    --     49.0076                 6.0811                11.0200

                     34                     35                     36
                      A                      A                      A
 Frequencies --    578.2069               605.3792               649.6801
 Red. masses --      4.3864                 5.5738                 4.5757
 Frc consts  --      0.8640                 1.2035                 1.1379
 IR Inten    --      5.6990                 3.5097                23.4999

                     37                     38                     39
                      A                      A                      A
 Frequencies --    681.1611               702.1024               733.5685
 Red. masses --     11.2686                 6.6822                 5.1468
 Frc consts  --      3.0805                 1.9407                 1.6318
 IR Inten    --    163.7445                10.6496                 2.8532

                     40                     41                     42
                      A                      A                      A
 Frequencies --    769.0772               772.4133               801.2955
 Red. masses --      1.9643                 1.9321                 4.5699
 Frc consts  --      0.6846                 0.6792                 1.7288
 IR Inten    --     41.6277                14.8509                 4.6271

                     43                     44                     45
                      A                      A                      A
 Frequencies --    851.1294               875.6597               879.0946
 Red. masses --      1.3348                 1.6711                 4.0528
 Frc consts  --      0.5697                 0.7549                 1.8453
 IR Inten    --     20.3167                 2.3113                 4.7044

                     46                     47                     48
                      A                      A                      A
 Frequencies --    957.6695               995.6976               996.8215
 Red. masses --      1.3317                 1.2960                 1.6887
 Frc consts  --      0.7196                 0.7570                 0.9886
 IR Inten    --      1.7941                 0.6486                39.6172

                     49                     50                     51
                      A                      A                      A
 Frequencies --   1008.4337              1015.2968              1032.1005
 Red. masses --      3.1721                 1.8139                 1.3596
 Frc consts  --      1.9006                 1.1016                 0.8533
 IR Inten    --    108.2473                12.3493                 5.3795

                     52                     53                     54
                      A                      A                      A
 Frequencies --   1069.6259              1072.1843              1075.8473
 Red. masses --      1.5966                 9.0047                 2.8079
 Frc consts  --      1.0763                 6.0990                 1.9149
 IR Inten    --      6.3576                75.5567                 1.1076

                     55                     56                     57
                      A                      A                      A
 Frequencies --   1086.5278              1103.7665              1146.6969
 Red. masses --      3.6153                 2.1304                 1.6030
 Frc consts  --      2.5146                 1.5292                 1.2419
 IR Inten    --     20.4983                 2.9296                13.6114

                     58                     59                     60
                      A                      A                      A
 Frequencies --   1154.5944              1187.5209              1199.2574
 Red. masses --      1.4009                 1.2920                 1.9562
 Frc consts  --      1.1003                 1.0735                 1.6576
 IR Inten    --      1.1957                 3.3345                16.0703

                     61                     62                     63
                      A                      A                      A
 Frequencies --   1201.8527              1204.5241              1208.9380
 Red. masses --      1.5858                 1.4858                 2.3044
 Frc consts  --      1.3496                 1.2701                 1.9843
 IR Inten    --     31.6957                 5.6284               115.9341

                     64                     65                     66
                      A                      A                      A
 Frequencies --   1228.4720              1275.0423              1295.7775
 Red. masses --      2.2411                17.3823                 1.7568
 Frc consts  --      1.9927                16.6497                 1.7379
 IR Inten    --     66.2508               397.9838                17.1713

                     67                     68                     69
                      A                      A                      A
 Frequencies --   1326.7602              1378.0916              1387.6493
 Red. masses --      1.6897                 1.6676                 2.2180
 Frc consts  --      1.7524                 1.8660                 2.5164
 IR Inten    --      6.5722                25.3331                 5.8591

                     70                     71                     72
                      A                      A                      A
 Frequencies --   1401.7987              1410.5311              1436.1330
 Red. masses --      4.1002                 4.4644                 1.2927
 Frc consts  --      4.7471                 5.2333                 1.5709
 IR Inten    --     13.8606                24.9590                 1.0679

                     73                     74                     75
                      A                      A                      A
 Frequencies --   1462.3930              1480.0121              1480.5661
 Red. masses --      1.9723                 1.3739                 1.1495
 Frc consts  --      2.4851                 1.7730                 1.4846
 IR Inten    --     15.9558                 8.2969                 3.5816

                     76                     77                     78
                      A                      A                      A
 Frequencies --   1499.0983              1503.4160              1504.1997
 Red. masses --      1.1668                 1.1038                 1.1818
 Frc consts  --      1.5449                 1.4700                 1.5755
 IR Inten    --     10.4395                 7.6207                 7.9576

                     79                     80                     81
                      A                      A                      A
 Frequencies --   1509.9606              1511.2163              1512.4953
 Red. masses --      1.0698                 1.3639                 1.0486
 Frc consts  --      1.4371                 1.8352                 1.4134
 IR Inten    --     10.5512                 7.9786                 4.9729

                     82                     83                     84
                      A                      A                      A
 Frequencies --   1523.9759              1532.2577              1544.6975
 Red. masses --      1.1608                 1.1046                 1.0535
 Frc consts  --      1.5885                 1.5280                 1.4810
 IR Inten    --     20.4498                26.6417                 9.8294

                     85                     86                     87
                      A                      A                      A
 Frequencies --   1573.8564              1621.6307              1660.1792
 Red. masses --      3.2201                 5.4657                 6.4073
 Frc consts  --      4.6995                 8.4683                10.4049
 IR Inten    --     21.4804               117.4381               153.5402

                     88                     89                     90
                      A                      A                      A
 Frequencies --   1674.9390              3033.5477              3057.9957
 Red. masses --      5.7169                 1.0329                 1.0382
 Frc consts  --      9.4495                 5.6002                 5.7203
 IR Inten    --     26.9286                47.0566                 8.7244

                     91                     92                     93
                      A                      A                      A
 Frequencies --   3075.0711              3088.3138              3105.6221
 Red. masses --      1.0282                 1.0409                 1.1000
 Frc consts  --      5.7286                 5.8495                 6.2508
 IR Inten    --     28.0604                20.7799                42.4508

                     94                     95                     96
                      A                      A                      A
 Frequencies --   3116.8437              3131.3777              3154.1506
 Red. masses --      1.0999                 1.1069                 1.1011
 Frc consts  --      6.2954                 6.3950                 6.4542
 IR Inten    --      7.2965                21.8060                11.4290

                     97                     98                     99
                      A                      A                      A
 Frequencies --   3167.3869              3187.8736              3192.5728
 Red. masses --      1.1059                 1.0982                 1.1094
 Frc consts  --      6.5370                 6.5757                 6.6621
 IR Inten    --      4.7129                 4.0998                19.7323

                    100                    101                    102
                      A                      A                      A
 Frequencies --   3203.9510              3217.2194              3221.6502
 Red. masses --      1.0872                 1.0916                 1.1035
 Frc consts  --      6.5757                 6.6568                 6.7482
 IR Inten    --      2.3061                10.5633                 4.0801

                    103                    104                    105
                      A                      A                      A
 Frequencies --   3232.8558              3249.8764              3266.0984
 Red. masses --      1.0942                 1.0924                 1.0910
 Frc consts  --      6.7381                 6.7975                 6.8571
 IR Inten    --     12.2687                 3.5480                 0.7082

 - Thermochemistry -
 -------------------
 Temperature   298.150 Kelvin.  Pressure   1.00000 Atm.
 Atom     1 has atomic number  6 and mass  12.00000

 Molecular mass:   315.05990 amu.
 Principal axes and moments of inertia in atomic units:
                           1         2         3
     Eigenvalues --  4714.429736595.940997784.72835
           X            0.99953  -0.01621   0.02606
           Y            0.01353   0.99489   0.10006
           Z           -0.02755  -0.09966   0.99464
 This molecule is an asymmetric top.
 Rotational symmetry number  1.
 Warning -- assumption of classical behavior for rotation
           may cause significant error
 Rotational temperatures (Kelvin)      0.01837     0.01313     0.01113
 Rotational constants (GHZ):           0.38281     0.27361     0.23183
    1 imaginary frequencies ignored.
 Zero-point vibrational energy     765715.9 (Joules/Mol)
                                  183.01050 (Kcal/Mol)
 Warning -- explicit consideration of  34 degrees of freedom as
           vibrations may cause significant error
 Vibrational temperatures:     34.82    62.92    93.42   122.07   134.17
          (Kelvin)            138.42   156.08   175.33   191.34   206.55
                              222.28   239.52   263.85   275.76   293.80
                              340.13   368.45   400.62   433.39   496.34
                              541.22   541.95   584.37   592.06   620.58
                              687.45   730.69   752.98   765.67   784.88
                              818.15   827.98   831.91   871.01   934.74
                              980.04  1010.17  1055.44  1106.53  1111.33
                             1152.89  1224.59  1259.88  1264.82  1377.87
                             1432.59  1434.20  1450.91  1460.79  1484.96
                             1538.95  1542.63  1547.90  1563.27  1588.07
                             1649.84  1661.20  1708.58  1725.46  1729.20
                             1733.04  1739.39  1767.50  1834.50  1864.33
                             1908.91  1982.77  1996.52  2016.88  2029.44
                             2066.28  2104.06  2129.41  2130.20  2156.87
                             2163.08  2164.21  2172.50  2174.30  2176.14
                             2192.66  2204.58  2222.48  2264.43  2333.16
                             2388.63  2409.86  4364.60  4399.77  4424.34
                             4443.39  4468.30  4484.44  4505.35  4538.12
                             4557.16  4586.64  4593.40  4609.77  4628.86
                             4635.24  4651.36  4675.85  4699.19

 Zero-point correction=                           0.291646 (Hartree/Particle)
 Thermal correction to Energy=                    0.312024
 Thermal correction to Enthalpy=                  0.312968
 Thermal correction to Gibbs Free Energy=         0.242295
 Sum of electronic and zero-point Energies=          -1657.372776
 Sum of electronic and thermal Energies=             -1657.352398
 Sum of electronic and thermal Enthalpies=           -1657.351453
 Sum of electronic and thermal Free Energies=        -1657.422126

                     E (Thermal)             CV                S
                      KCal/Mol        Cal/Mol-Kelvin    Cal/Mol-Kelvin
 Total                  195.798             75.535            148.744
 Electronic               0.000              0.000              0.000
 Translational            0.889              2.981             43.139
 Rotational               0.889              2.981             33.848
 Vibrational            194.021             69.573             71.757
 Vibration     1          0.593              1.985              6.256
 Vibration     2          0.595              1.980              5.082
 Vibration     3          0.597              1.971              4.302
 Vibration     4          0.601              1.960              3.776
 Vibration     5          0.602              1.954              3.591
 Vibration     6          0.603              1.952              3.530
 Vibration     7          0.606              1.942              3.296
 Vibration     8          0.609              1.931              3.071
 Vibration     9          0.613              1.920              2.902
 Vibration    10          0.616              1.910              2.756
 Vibration    11          0.620              1.898              2.616
 Vibration    12          0.624              1.884              2.475
 Vibration    13          0.631              1.862              2.294
 Vibration    14          0.634              1.851              2.212
 Vibration    15          0.640              1.834              2.095
 Vibration    16          0.655              1.785              1.830
 Vibration    17          0.666              1.752              1.688
 Vibration    18          0.679              1.713              1.543
 Vibration    19          0.693              1.671              1.410
 Vibration    20          0.723              1.585              1.189
 Vibration    21          0.747              1.521              1.055
 Vibration    22          0.747              1.520              1.052
 Vibration    23          0.771              1.457              0.940
 Vibration    24          0.775              1.445              0.921
 Vibration    25          0.792              1.402              0.854
 Vibration    26          0.834              1.299              0.716
 Vibration    27          0.863              1.233              0.639
 Vibration    28          0.878              1.198              0.602
 Vibration    29          0.887              1.179              0.582
 Vibration    30          0.901              1.149              0.554
 Vibration    31          0.925              1.099              0.507
 Vibration    32          0.932              1.084              0.494
 Vibration    33          0.935              1.078              0.489
 Vibration    34          0.964              1.020              0.440

                           ! Non-Optimized Parameters !
 Normal termination of Gaussian 16 at Sun Dec 13 14:00:25 2020.

 ----------------------------------------------------------------------
 # B3LYP/6-311++G(d,p) empiricaldispersion=gd3bj scf=xqc pop=npa geom=c
 heck
 ----------------------------------------------------------------------

 ----------------------------------------
 CID_134101105_JID_10440_Energie_neutraal
 ----------------------------------------
 Structure from the checkpoint file:  "JID_10440.chk"
 Charge =  0 Multiplicity = 1

 SCF Done:  E(RB3LYP) =  -1657.96043546     A.U. after   18 cycles
 Normal termination of Gaussian 16 at Sun Dec 13 14:10:11 2020.

 ----------------------------------------------------------------------
 # B3LYP/6-311++G(d,p) empiricaldispersion=gd3bj scf=xqc pop=npa geom=c
 heck
 ----------------------------------------------------------------------

 --------------------------------------
 CID_134101105_JID_10440_Energie_kation
 --------------------------------------
 Structure from the checkpoint file:  "JID_10440.chk"
 Charge =  1 Multiplicity = 2

 SCF Done:  E(UB3LYP) =  -1657.66248272     A.U. after   31 cycles
 Normal termination of Gaussian 16 at Sun Dec 13 14:32:28 2020.
 Gaussian 16:  ES64L-G16RevA.03 25-Dec-2016

 ----------------------------------------------------------------------
 # B3LYP/6-311++G(d,p) empiricaldispersion=gd3bj scf=xqc pop=npa geom=c
 heck
 ----------------------------------------------------------------------

 -------------------------------------
 CID_134101105_JID_10440_Energie_anion
 -------------------------------------
 Structure from the checkpoint file:  "JID_10440.chk"
 Charge = -1 Multiplicity = 2

                         Standard orientation:
 ---------------------------------------------------------------------
 Center     Atomic      Atomic             Coordinates (Angstroms)
 Number     Number       Type             X           Y           Z
 ---------------------------------------------------------------------
      1          6           0       -0.834153    1.542497    2.666267
      2          6           0       -0.858474    0.422064    1.670093
      3          6           0        0.167673   -0.485808    1.623084
      4          6           0        0.238999   -1.468341    0.620055
      5          7           0       -0.716328   -1.525381   -0.332653
      6          6           0       -1.861774   -0.738088   -0.243454
      7          6           0       -2.934532   -0.929042   -1.134869
      8          6           0       -4.054670   -0.123398   -1.050551
      9          6           0       -4.139523    0.892231   -0.082780
     10          6           0       -3.101629    1.075503    0.806810
     11          6           0       -1.947815    0.263328    0.759071
     12          6           0       -0.464737   -2.267600   -1.583188
     13         16           0        1.474605   -2.716956    0.645059
     14          6           0        2.925773   -1.787099    1.257975
     15          6           0        1.973187    2.923654    0.610972
     16          8           0        2.052619    1.527671    0.338814
     17         16           0        1.505808    1.114954   -1.216376
     18          8           0        0.037276    1.311386   -1.148863
     19          8           0        2.225781    2.006214   -2.133201
     20          8           0        1.909805   -0.314257   -1.244770
     21          1           0        0.064771    1.494619    3.284265
     22          1           0       -1.710463    1.524684    3.324238
     23          1           0       -0.832413    2.502446    2.138161
     24          1           0        0.977593   -0.422494    2.334999
     25          1           0       -2.899700   -1.714414   -1.877814
     26          1           0       -4.876794   -0.284204   -1.740905
     27          1           0       -5.019526    1.525250   -0.034111
     28          1           0       -3.164128    1.855493    1.556526
     29          1           0       -0.922506   -3.260085   -1.551789
     30          1           0       -0.868142   -1.680453   -2.405575
     31          1           0        0.611923   -2.332829   -1.715888
     32          1           0        2.997531   -0.866070    0.676283
     33          1           0        2.866223   -1.602444    2.332224
     34          1           0        3.782683   -2.432142    1.050557
     35          1           0        2.300682    3.058173    1.646400
     36          1           0        0.942564    3.285486    0.501395
     37          1           0        2.623586    3.491174   -0.062071
 ---------------------------------------------------------------------

 SCF Done:  E(UB3LYP) =  -1658.01399109     A.U. after   23 cycles

 The electronic state is 2-A.
 Alpha  occ. eigenvalues --  -88.92317 -88.73609 -19.00844 -18.95597 -18.94993
 Alpha  occ. eigenvalues --  -18.94776 -14.24670 -10.11106 -10.10469 -10.09666
 Alpha  occ. eigenvalues --  -10.08730 -10.08191 -10.06490 -10.05865 -10.05850
 Alpha  occ. eigenvalues --  -10.05666 -10.05492 -10.05249 -10.05218 -10.04832
 Alpha  occ. eigenvalues --   -7.97979  -7.82261  -5.94390  -5.94169  -5.94142
 Alpha  occ. eigenvalues --   -5.78654  -5.78263  -5.77666  -0.99264  -0.88045
 Alpha  occ. eigenvalues --   -0.87333  -0.84255  -0.83281  -0.74360  -0.71424
 Alpha  occ. eigenvalues --   -0.68599  -0.63721  -0.62837  -0.62427  -0.57674
 Alpha  occ. eigenvalues --   -0.57377  -0.55690  -0.51895  -0.49559  -0.46419
 Alpha  occ. eigenvalues --   -0.44966  -0.42579  -0.41278  -0.38126  -0.37838
 Alpha  occ. eigenvalues --   -0.35870  -0.35292  -0.34257  -0.33793  -0.33289
 Alpha  occ. eigenvalues --   -0.32832  -0.32646  -0.32381  -0.31685  -0.30484
 Alpha  occ. eigenvalues --   -0.30194  -0.29540  -0.29157  -0.28218  -0.27632
 Alpha  occ. eigenvalues --   -0.27532  -0.26715  -0.25215  -0.24450  -0.23342
 Alpha  occ. eigenvalues --   -0.22373  -0.20956  -0.19437  -0.19088  -0.18865
 Alpha  occ. eigenvalues --   -0.17935  -0.16929  -0.16008  -0.15007  -0.13485
 Alpha  occ. eigenvalues --   -0.12586  -0.11346  -0.11105   0.00048
 Alpha virt. eigenvalues --    0.07492   0.07928   0.08430   0.09055   0.09497
 Alpha virt. eigenvalues --    0.09700   0.10251   0.11004   0.11319   0.11822
 Alpha virt. eigenvalues --    0.12178   0.12552   0.12716   0.13768   0.14043

  Beta  occ. eigenvalues --  -88.92317 -88.73590 -19.00846 -18.95597 -18.94975
  Beta  occ. eigenvalues --  -18.94773 -14.24305 -10.10600 -10.10465 -10.09666
  Beta  occ. eigenvalues --  -10.08738 -10.08174 -10.06607 -10.05891 -10.05737
  Beta  occ. eigenvalues --  -10.05674 -10.05400 -10.05043 -10.04981 -10.04651
  Beta  occ. eigenvalues --   -7.97979  -7.82244  -5.94390  -5.94169  -5.94143
  Beta  occ. eigenvalues --   -5.78649  -5.78260  -5.77593  -0.99258  -0.88039
  Beta  occ. eigenvalues --   -0.86695  -0.84238  -0.83263  -0.74066  -0.70861
  Beta  occ. eigenvalues --   -0.68250  -0.63507  -0.62513  -0.62211  -0.57668
  Beta  occ. eigenvalues --   -0.57280  -0.55524  -0.51651  -0.49248  -0.46030
  Beta  occ. eigenvalues --   -0.44956  -0.42209  -0.41074  -0.37913  -0.37679
  Beta  occ. eigenvalues --   -0.35279  -0.35068  -0.34238  -0.33749  -0.33175
  Beta  occ. eigenvalues --   -0.32713  -0.32459  -0.32290  -0.31337  -0.30304
  Beta  occ. eigenvalues --   -0.30059  -0.29471  -0.28965  -0.28154  -0.27546
  Beta  occ. eigenvalues --   -0.27169  -0.26392  -0.25196  -0.24168  -0.22779
  Beta  occ. eigenvalues --   -0.21880  -0.20661  -0.19371  -0.18841  -0.18620
  Beta  occ. eigenvalues --   -0.17870  -0.16069  -0.15505  -0.14669  -0.13440
  Beta  occ. eigenvalues --   -0.11445  -0.10973  -0.10604
  Beta virt. eigenvalues --    0.06336   0.07498   0.07931   0.08446   0.09072
  Beta virt. eigenvalues --    0.09673   0.09821   0.10256   0.11169   0.11824
  Beta virt. eigenvalues --    0.12139   0.12478   0.12607   0.12769   0.13838

 Mulliken charges and spin densities:
               1          2
     1  C   -0.494440  -0.029469
     2  C    1.233455   0.352215
     3  C   -0.744850  -0.129101
     4  C   -0.146717   0.316674
     5  N    0.627773   0.110859
     6  C    0.078628   0.030017
     7  C   -0.648107   0.045495
     8  C   -0.232483   0.106903
     9  C   -0.551762  -0.012204
    10  C   -0.490370   0.156366
    11  C    0.712689  -0.073203
    12  C   -0.499645  -0.015890
    13  S   -0.547103   0.078157
    14  C   -0.637676  -0.005305
    15  C   -0.303419   0.002267
    16  O   -0.230375  -0.000955
    17  S    0.161883  -0.000225
    18  O   -0.251179  -0.001822
    19  O   -0.131937  -0.000552
    20  O   -0.397500  -0.002066
    21  H    0.122365   0.001591
    22  H    0.113296   0.025305
    23  H    0.150205   0.025993
    24  H    0.153781   0.008959
    25  H    0.120270  -0.005893
    26  H    0.127947  -0.008050
    27  H    0.116916   0.000741
    28  H    0.127714  -0.011734
    29  H    0.163830   0.011273
    30  H    0.123133   0.010999
    31  H    0.170693   0.000570
    32  H    0.282255   0.003887
    33  H    0.140364  -0.001375
    34  H    0.150536   0.009961
    35  H    0.113707   0.000279
    36  H    0.168352  -0.000482
    37  H    0.147772  -0.000183
 Sum of Mulliken charges =  -1.00000   1.00000

 Dipole moment (field-independent basis, Debye):
    X=             -1.8801    Y=             -2.0421    Z=              4.3985  Tot=              5.2012
 Quadrupole moment (field-independent basis, Debye-Ang):
   XX=           -163.7821   YY=           -152.1213   ZZ=           -151.5292
   XY=             -3.6640   XZ=             14.1313   YZ=             15.3962

 Summary of Natural Population Analysis:

                                       Natural Population
                Natural  -----------------------------------------------
    Atom  No    Charge         Core      Valence    Rydberg      Total
 -----------------------------------------------------------------------
      C    1   -0.30182      0.99965     2.29748    0.00469     3.30182
      C    2    0.14268      0.99948     1.84862    0.00922     2.85732
      C    3   -0.15622      0.99945     2.14755    0.00922     3.15622
      C    4    0.17114      0.99948     1.81119    0.01819     2.82886
      N    5   -0.16530      0.99957     2.65111    0.01462     3.66530
      C    6    0.18930      0.99947     1.79745    0.01378     2.81070
      C    7   -0.12815      0.99959     2.11213    0.01643     3.12815
      C    8   -0.06610      0.99958     2.05741    0.00911     3.06610
      C    9   -0.11830      0.99957     2.10912    0.00961     3.11830
      C   10   -0.04516      0.99954     2.03751    0.00811     3.04516
      C   11   -0.07728      0.99951     2.06088    0.01689     3.07728
      C   12   -0.18687      0.99964     2.17996    0.00727     3.18687
      S   13    0.13282      4.99950     2.84831    0.01938     7.86718
      C   14   -0.34760      0.99962     2.34262    0.00536     3.34760
      C   15   -0.10856      0.99964     2.09858    0.01034     3.10856
      O   16   -0.38635      0.99991     3.37524    0.01120     4.38635
      S   17    1.22523      4.99954     1.66247    0.11275     6.77477
      O   18   -0.48656      0.99990     3.47811    0.00855     4.48656
      O   19   -0.48234      0.99990     3.47752    0.00492     4.48234
      O   20   -0.49443      0.99990     3.48641    0.00812     4.49443
      H   21    0.09982      0.00000     0.39955    0.00063     0.40018
      H   22    0.10263      0.00000     0.39633    0.00104     0.39737
      H   23    0.11069      0.00000     0.38832    0.00099     0.38931
      H   24    0.10184      0.00000     0.39669    0.00147     0.39816
      H   25    0.09836      0.00000     0.40025    0.00138     0.40164
      H   26    0.09127      0.00000     0.40774    0.00099     0.40873
      H   27    0.09308      0.00000     0.40593    0.00099     0.40692
      H   28    0.09445      0.00000     0.40424    0.00131     0.40555
      H   29    0.08941      0.00000     0.40963    0.00096     0.41059
      H   30    0.10454      0.00000     0.39433    0.00113     0.39546
      H   31    0.12327      0.00000     0.37522    0.00151     0.37673
      H   32    0.13391      0.00000     0.36479    0.00130     0.36609
      H   33    0.09340      0.00000     0.40549    0.00111     0.40660
      H   34    0.10088      0.00000     0.39823    0.00089     0.39912
      H   35    0.08105      0.00000     0.41800    0.00096     0.41895
      H   36    0.08623      0.00000     0.41228    0.00149     0.41377
      H   37    0.08728      0.00000     0.41125    0.00147     0.41272
 =======================================================================
   * Total *    0.00222     27.99244    54.66795    0.33739    82.99778

 Normal termination of Gaussian 16 at Sun Dec 13 14:48:48 2020.
