 Gaussian 16, Revision A.03,

 -----------------------------------------------------------
 # opt freq B3LYP/6-31G(d) empiricaldispersion=gd3bj scf=xqc
 -----------------------------------------------------------

 -------------------------------
 CID_138567477_JID_1088_neutraal
 -------------------------------
 Symbolic Z-matrix:
 Charge =  0 Multiplicity = 1

 SCF Done:  E(RB3LYP) =  -476.940119442     A.U. after   14 cycles
 SCF Done:  E(RB3LYP) =  -476.945003121     A.U. after   13 cycles
 SCF Done:  E(RB3LYP) =  -476.945587392     A.U. after   13 cycles
 SCF Done:  E(RB3LYP) =  -476.947391388     A.U. after   12 cycles
 SCF Done:  E(RB3LYP) =  -476.948133390     A.U. after   11 cycles
 SCF Done:  E(RB3LYP) =  -476.948319335     A.U. after   11 cycles
 SCF Done:  E(RB3LYP) =  -476.948379325     A.U. after   11 cycles
 SCF Done:  E(RB3LYP) =  -476.948404619     A.U. after   10 cycles
 SCF Done:  E(RB3LYP) =  -476.948413681     A.U. after   10 cycles
 SCF Done:  E(RB3LYP) =  -476.948418989     A.U. after    9 cycles
 SCF Done:  E(RB3LYP) =  -476.948432856     A.U. after    8 cycles
 SCF Done:  E(RB3LYP) =  -476.948433283     A.U. after    8 cycles
 SCF Done:  E(RB3LYP) =  -476.948433500     A.U. after    8 cycles
 SCF Done:  E(RB3LYP) =  -476.948433668     A.U. after    8 cycles
 SCF Done:  E(RB3LYP) =  -476.948433709     A.U. after    7 cycles
 Optimization completed.
    -- Stationary point found.

 1\1\GINC-NODE124\FOpt\RB3LYP\6-31G(d)\C8H13N3\VSC10255\08-Dec-2020\0\\
 # opt freq B3LYP/6-31G(d) empiricaldispersion=gd3bj scf=xqc\\CID_13856
 7477_JID_1088_neutraal\\0,1\C,0.9043884738,-0.0789362372,0.0574569892\
 C,0.4245657603,1.3523889845,0.1579894371\C,-0.2848361344,1.9587800411,
 -0.8640429512\C,-0.5608659427,1.2492655659,-2.1003957553\C,-1.29915330
 94,1.7492854075,-3.1031314195\C,-1.927165648,3.1042972856,-3.018634286
 9\N,-1.4577871527,3.8393279241,-1.8519072241\C,-0.7837627633,3.3387518
 204,-0.7578037979\N,-0.5683739736,4.0553597277,0.3116858721\C,-1.08191

 Normal termination of Gaussian 16 at Tue Dec  8 19:18:01 2020.

 --------------------------------------------------------------------
 #N Geom=AllCheck Guess=TCheck SCRF=Check GenChk RB3LYP/6-31G(d) Freq
 --------------------------------------------------------------------

 Structure from the checkpoint file:  "JID_1088.chk"
 -------------------------------
 CID_138567477_JID_1088_neutraal
 -------------------------------
 Charge =  0 Multiplicity = 1

 SCF Done:  E(RB3LYP) =  -476.948433709     A.U. after    1 cycles

  Exact polarizability: 145.463  17.622 135.387  -0.841   0.190  54.794
 Approx polarizability: 218.700  54.937 214.777  -1.670  -0.059  81.875

                      1                      2                      3
                      A                      A                      A
 Frequencies --     44.4717                80.5966                98.3127
 Red. masses --      2.2516                 1.5604                 3.3225
 Frc consts  --      0.0026                 0.0060                 0.0189
 IR Inten    --      4.7725                 5.2011                 7.6315

                      4                      5                      6
                      A                      A                      A
 Frequencies --    102.0497               171.1810               218.0186
 Red. masses --      1.8636                 3.7378                 1.2189
 Frc consts  --      0.0114                 0.0645                 0.0341
 IR Inten    --     14.3186                 0.8949                11.5305

                      7                      8                      9
                      A                      A                      A
 Frequencies --    229.0848               255.8908               283.6628
 Red. masses --      2.3636                 1.5191                 3.1180
 Frc consts  --      0.0731                 0.0586                 0.1478
 IR Inten    --     16.1158               110.0236                 0.6035

                     10                     11                     12
                      A                      A                      A
 Frequencies --    290.1432               392.1655               405.5138
 Red. masses --      1.9893                 3.7006                 2.0155
 Frc consts  --      0.0987                 0.3353                 0.1953
 IR Inten    --     57.0421                 5.2754                44.3185

                     13                     14                     15
                      A                      A                      A
 Frequencies --    416.9646               481.9523               527.7286
 Red. masses --      1.9100                 2.2265                 3.3496
 Frc consts  --      0.1957                 0.3047                 0.5496
 IR Inten    --     49.6868                 1.2407                 5.9139

                     16                     17                     18
                      A                      A                      A
 Frequencies --    544.2339               579.8612               607.5357
 Red. masses --      4.7064                 3.0414                 4.3798
 Frc consts  --      0.8213                 0.6025                 0.9525
 IR Inten    --      5.6577                 9.8779                 3.7947

                     19                     20                     21
                      A                      A                      A
 Frequencies --    691.5214               711.7093               760.0304
 Red. masses --      1.7269                 4.3539                 2.6693
 Frc consts  --      0.4865                 1.2994                 0.9085
 IR Inten    --     27.4230                 9.8911                 6.8517

                     22                     23                     24
                      A                      A                      A
 Frequencies --    805.3916               835.5870               945.4449
 Red. masses --      1.2698                 4.8776                 2.7665
 Frc consts  --      0.4853                 2.0065                 1.4570
 IR Inten    --     58.6699                 2.2872                23.8301

                     25                     26                     27
                      A                      A                      A
 Frequencies --    970.1564               979.2336              1040.1487
 Red. masses --      1.2822                 2.5941                 1.5847
 Frc consts  --      0.7110                 1.4656                 1.0102
 IR Inten    --      0.8338                 9.3840                19.1352

                     28                     29                     30
                      A                      A                      A
 Frequencies --   1051.7910              1062.2539              1068.9386
 Red. masses --      1.4531                 1.6352                 3.5188
 Frc consts  --      0.9471                 1.0871                 2.3689
 IR Inten    --     18.5264                 1.5763                 2.7115

                     31                     32                     33
                      A                      A                      A
 Frequencies --   1108.5110              1121.6666              1173.2455
 Red. masses --      2.5050                 1.3369                 1.5271
 Frc consts  --      1.8136                 0.9910                 1.2385
 IR Inten    --     28.6414                 0.2273                 2.2321

                     34                     35                     36
                      A                      A                      A
 Frequencies --   1215.8326              1230.5629              1248.7013
 Red. masses --      1.2649                 1.9560                 1.0618
 Frc consts  --      1.1017                 1.7452                 0.9755
 IR Inten    --     15.5349                15.5940                 1.1781

                     37                     38                     39
                      A                      A                      A
 Frequencies --   1285.3805              1345.2345              1413.9878
 Red. masses --      2.0801                 2.7032                 1.8573
 Frc consts  --      2.0249                 2.8822                 2.1879
 IR Inten    --     16.2137                49.8433                33.7237

                     40                     41                     42
                      A                      A                      A
 Frequencies --   1434.6277              1446.1904              1458.3523
 Red. masses --      1.5314                 1.6240                 2.0214
 Frc consts  --      1.8570                 2.0012                 2.5330
 IR Inten    --     16.8625                32.2728                22.7764

                     43                     44                     45
                      A                      A                      A
 Frequencies --   1472.2289              1511.1055              1515.5893
 Red. masses --      1.4264                 1.0459                 1.4462
 Frc consts  --      1.8216                 1.4071                 1.9573
 IR Inten    --     65.6297                 7.8436                28.9903

                     46                     47                     48
                      A                      A                      A
 Frequencies --   1532.0048              1533.5532              1541.9704
 Red. masses --      1.2163                 1.0457                 1.1905
 Frc consts  --      1.6819                 1.4490                 1.6678
 IR Inten    --     41.2065                 2.8577                31.1070

                     49                     50                     51
                      A                      A                      A
 Frequencies --   1551.0181              1571.2736              1670.6878
 Red. masses --      1.2038                 1.6110                 2.1950
 Frc consts  --      1.7062                 2.3434                 3.6097
 IR Inten    --     39.8963                39.3842               208.7185

                     52                     53                     54
                      A                      A                      A
 Frequencies --   1690.5558              1728.1094              2934.3851
 Red. masses --      4.7736                 6.1048                 1.0782
 Frc consts  --      8.0381                10.7414                 5.4700
 IR Inten    --    454.3609               193.7050               109.3075

                     55                     56                     57
                      A                      A                      A
 Frequencies --   2946.3600              2984.7205              2988.4534
 Red. masses --      1.0459                 1.0980                 1.0826
 Frc consts  --      5.3493                 5.7630                 5.6967
 IR Inten    --    115.1956                61.5865                99.7702

                     58                     59                     60
                      A                      A                      A
 Frequencies --   3058.2193              3107.9679              3120.0359
 Red. masses --      1.0366                 1.0906                 1.1010
 Frc consts  --      5.7120                 6.2071                 6.3145
 IR Inten    --     21.2843                46.3250                14.5975

                     61                     62                     63
                      A                      A                      A
 Frequencies --   3132.0705              3188.3167              3208.6990
 Red. masses --      1.1029                 1.0844                 1.0956
 Frc consts  --      6.3744                 6.4949                 6.6460
 IR Inten    --     16.3658                 4.4413                28.9977

                     64                     65                     66
                      A                      A                      A
 Frequencies --   3269.2408              3647.7722              3673.3122
 Red. masses --      1.0667                 1.0749                 1.0858
 Frc consts  --      6.7171                 8.4269                 8.6322
 IR Inten    --    204.3676                14.3993                56.3692

 - Thermochemistry -
 -------------------
 Temperature   298.150 Kelvin.  Pressure   1.00000 Atm.
 Atom     1 has atomic number  6 and mass  12.00000

 Molecular mass:   151.11095 amu.
 Principal axes and moments of inertia in atomic units:
                           1         2         3
     Eigenvalues --  1323.989741662.680222950.38432
           X            0.99757  -0.06967  -0.00009
           Y            0.06967   0.99757   0.00051
           Z            0.00005  -0.00051   1.00000
 This molecule is an asymmetric top.
 Rotational symmetry number  1.
 Warning -- assumption of classical behavior for rotation
           may cause significant error
 Rotational temperatures (Kelvin)      0.06542     0.05209     0.02936
 Rotational constants (GHZ):           1.36311     1.08544     0.61170
 Zero-point vibrational energy     542575.4 (Joules/Mol)
                                  129.67863 (Kcal/Mol)
 Warning -- explicit consideration of  18 degrees of freedom as
           vibrations may cause significant error
 Vibrational temperatures:     63.98   115.96   141.45   146.83   246.29
          (Kelvin)            313.68   329.60   368.17   408.13   417.45
                              564.24   583.44   599.92   693.42   759.28
                              783.03   834.29   874.11   994.95  1023.99
                             1093.51  1158.78  1202.22  1360.28  1395.84
                             1408.90  1496.54  1513.29  1528.35  1537.96
                             1594.90  1613.83  1688.04  1749.31  1770.51
                             1796.60  1849.38  1935.49  2034.41  2064.11
                             2080.75  2098.24  2118.21  2174.14  2180.59
                             2204.21  2206.44  2218.55  2231.57  2260.71
                             2403.75  2432.33  2486.36  4221.93  4239.15
                             4294.35  4299.72  4400.10  4471.67  4489.04
                             4506.35  4587.28  4616.60  4703.71  5248.33
                             5285.08

 Zero-point correction=                           0.206656 (Hartree/Particle)
 Thermal correction to Energy=                    0.218366
 Thermal correction to Enthalpy=                  0.219310
 Thermal correction to Gibbs Free Energy=         0.168974
 Sum of electronic and zero-point Energies=           -476.741778
 Sum of electronic and thermal Energies=              -476.730068
 Sum of electronic and thermal Enthalpies=            -476.729123
 Sum of electronic and thermal Free Energies=         -476.779460

                     E (Thermal)             CV                S
                      KCal/Mol        Cal/Mol-Kelvin    Cal/Mol-Kelvin
 Total                  137.027             43.305            105.942
 Electronic               0.000              0.000              0.000
 Translational            0.889              2.981             40.949
 Rotational               0.889              2.981             30.253
 Vibrational            135.249             37.343             34.740
 Vibration     1          0.595              1.980              5.049
 Vibration     2          0.600              1.962              3.876
 Vibration     3          0.604              1.950              3.487
 Vibration     4          0.604              1.948              3.415
 Vibration     5          0.626              1.878              2.422
 Vibration     6          0.646              1.814              1.975
 Vibration     7          0.652              1.797              1.886
 Vibration     8          0.666              1.753              1.690
 Vibration     9          0.682              1.704              1.511
 Vibration    10          0.686              1.692              1.473
 Vibration    11          0.760              1.487              0.992
 Vibration    12          0.770              1.458              0.943
 Vibration    13          0.780              1.433              0.902
 Vibration    14          0.838              1.290              0.705
 Vibration    15          0.883              1.189              0.592
 Vibration    16          0.899              1.152              0.556
 Vibration    17          0.937              1.075              0.486
 Vibration    18          0.966              1.016              0.437

                           ! Non-Optimized Parameters !

 1\1\GINC-NODE124\Freq\RB3LYP\6-31G(d)\C8H13N3\VSC10255\08-Dec-2020\0\\
 #N Geom=AllCheck Guess=TCheck SCRF=Check GenChk RB3LYP/6-31G(d) Freq\\
 CID_138567477_JID_1088_neutraal\\0,1\C,0.9043884738,-0.0789362372,0.05
 74569892\C,0.4245657603,1.3523889845,0.1579894371\C,-0.2848361344,1.95
 87800411,-0.8640429512\C,-0.5608659427,1.2492655659,-2.1003957553\C,-1
 .2991533094,1.7492854075,-3.1031314195\C,-1.927165648,3.1042972856,-3.
 0186342869\N,-1.4577871527,3.8393279241,-1.8519072241\C,-0.7837627633,
 3.3387518204,-0.7578037979\N,-0.5683739736,4.0553597277,0.3116858721\C

 Normal termination of Gaussian 16 at Tue Dec  8 19:22:58 2020.

 ----------------------------------------------------------------------
 # B3LYP/6-311++G(d,p) empiricaldispersion=gd3bj scf=xqc pop=npa geom=c
 heck
 ----------------------------------------------------------------------

 ---------------------------------------
 CID_138567477_JID_1088_Energie_neutraal
 ---------------------------------------
 Structure from the checkpoint file:  "JID_1088.chk"
 Charge =  0 Multiplicity = 1

 SCF Done:  E(RB3LYP) =  -477.089552925     A.U. after   15 cycles
 Normal termination of Gaussian 16 at Tue Dec  8 19:25:13 2020.

 ----------------------------------------------------------------------
 # B3LYP/6-311++G(d,p) empiricaldispersion=gd3bj scf=xqc pop=npa geom=c
 heck
 ----------------------------------------------------------------------

 -------------------------------------
 CID_138567477_JID_1088_Energie_kation
 -------------------------------------
 Structure from the checkpoint file:  "JID_1088.chk"
 Charge =  1 Multiplicity = 2

 SCF Done:  E(UB3LYP) =  -476.845330687     A.U. after   20 cycles
 Normal termination of Gaussian 16 at Tue Dec  8 19:29:24 2020.
 Gaussian 16:  ES64L-G16RevA.03 25-Dec-2016

 ------------------------------------
 CID_138567477_JID_1088_Energie_anion
 ------------------------------------
 Structure from the checkpoint file:  "JID_1088.chk"
 Charge = -1 Multiplicity = 2

                         Standard orientation:
 ---------------------------------------------------------------------
 Center     Atomic      Atomic             Coordinates (Angstroms)
 Number     Number       Type             X           Y           Z
 ---------------------------------------------------------------------
      1          6           0        3.105416   -0.487000    0.037842
      2          6           0        1.812337    0.297814    0.005533
      3          6           0        0.578174   -0.328001   -0.021101
      4          6           0        0.479413   -1.776015   -0.061979
      5          6           0       -0.680158   -2.449992   -0.020511
      6          6           0       -1.995801   -1.747046    0.091504
      7          7           0       -1.847819   -0.306803   -0.068614
      8          6           0       -0.682947    0.429692   -0.017663
      9          7           0       -0.687803    1.734788    0.002998
     10          6           0       -1.958803    2.424317    0.003331
     11          7           0        1.950160    1.643581   -0.027235
     12          1           0        3.130064   -1.188651    0.877026
     13          1           0        3.963487    0.185070    0.135115
     14          1           0        3.243527   -1.065914   -0.881988
     15          1           0        1.401816   -2.344305   -0.133919
     16          1           0       -0.701240   -3.535090   -0.049202
     17          1           0       -2.469585   -1.976271    1.064569
     18          1           0       -2.695062   -2.117280   -0.675459
     19          1           0       -2.701804    0.224111    0.000394
     20          1           0       -2.555459    2.224999   -0.904696
     21          1           0       -2.592621    2.168663    0.872845
     22          1           0       -1.783215    3.503479    0.042736
     23          1           0        2.842805    2.062505    0.180041
     24          1           0        1.069732    2.175104    0.020746
 ---------------------------------------------------------------------

 SCF Done:  E(UB3LYP) =  -477.074731898     A.U. after   33 cycles
 SCF Done:  E(UB3LYP) =  -477.074731898     a.u. after    1 cycles

 The electronic state is 2-A.
 Alpha  occ. eigenvalues --  -14.22045 -14.20825 -14.16498 -10.13224 -10.11744
 Alpha  occ. eigenvalues --  -10.10349 -10.08100 -10.07002 -10.06357 -10.05598
 Alpha  occ. eigenvalues --  -10.05229  -0.85574  -0.81682  -0.76600  -0.69607
 Alpha  occ. eigenvalues --   -0.65259  -0.62878  -0.57436  -0.56206  -0.49482
 Alpha  occ. eigenvalues --   -0.47623  -0.42906  -0.41206  -0.39022  -0.37341
 Alpha  occ. eigenvalues --   -0.35220  -0.34788  -0.33765  -0.32768  -0.31971
 Alpha  occ. eigenvalues --   -0.30065  -0.29022  -0.28100  -0.27571  -0.25191
 Alpha  occ. eigenvalues --   -0.23485  -0.21499  -0.18254  -0.14456  -0.11568
 Alpha  occ. eigenvalues --   -0.07529   0.04443
 Alpha virt. eigenvalues --    0.06059   0.07218   0.08434   0.08703   0.08983
 Alpha virt. eigenvalues --    0.09682   0.10847   0.11120   0.11194   0.11933
 Alpha virt. eigenvalues --    0.12014   0.12884   0.13999   0.14075   0.15093

  Beta  occ. eigenvalues --  -14.22025 -14.20798 -14.16487 -10.13225 -10.11739
  Beta  occ. eigenvalues --  -10.10319 -10.08073 -10.06957 -10.06347 -10.05590
  Beta  occ. eigenvalues --  -10.05227  -0.85547  -0.81645  -0.76573  -0.69579
  Beta  occ. eigenvalues --   -0.65218  -0.62827  -0.57379  -0.56154  -0.49434
  Beta  occ. eigenvalues --   -0.47583  -0.42858  -0.41147  -0.38990  -0.37288
  Beta  occ. eigenvalues --   -0.35191  -0.34750  -0.33723  -0.32727  -0.31943
  Beta  occ. eigenvalues --   -0.30025  -0.28972  -0.28065  -0.27535  -0.25168
  Beta  occ. eigenvalues --   -0.23454  -0.21468  -0.18238  -0.14394  -0.11546
  Beta  occ. eigenvalues --   -0.07509
  Beta virt. eigenvalues --    0.06758   0.07482   0.07833   0.08728   0.09358
  Beta virt. eigenvalues --    0.09618   0.10160   0.11370   0.11492   0.11706
  Beta virt. eigenvalues --    0.12043   0.12336   0.13174   0.14323   0.14557

 Mulliken charges and spin densities:
               1          2
     1  C    1.580580  -2.286707
     2  C   -2.139891   1.859638
     3  C    1.880487   0.241783
     4  C    0.283877  -0.826201
     5  C    0.176900  -0.485509
     6  C    1.833229  -2.314124
     7  N   -0.503607   0.305014
     8  C   -1.535441   0.564795
     9  N   -0.290622   0.047546
    10  C    0.593225  -1.053971
    11  N   -0.473647   0.098911
    12  H   -0.148056   0.318461
    13  H   -0.844061   0.985597
    14  H   -0.075362   0.243380
    15  H    0.035072   0.085542
    16  H   -0.402381   0.576203
    17  H   -0.322600   0.479284
    18  H   -0.322804   0.467678
    19  H   -0.184387   0.469862
    20  H   -0.137812   0.286779
    21  H   -0.236334   0.376125
    22  H   -0.012436   0.150655
    23  H   -0.098184   0.355384
    24  H    0.344256   0.053874
 Sum of Mulliken charges =  -1.00000   1.00000

 Dipole moment (field-independent basis, Debye):
    X=             -0.5998    Y=              0.4135    Z=             -0.6116  Tot=              0.9512
 Quadrupole moment (field-independent basis, Debye-Ang):
   XX=           -139.2848   YY=           -109.2805   ZZ=            -94.0493
   XY=             -5.3230   XZ=             -0.7193   YZ=              0.2007

 Summary of Natural Population Analysis:

                                       Natural Population
                Natural  -----------------------------------------------
    Atom  No    Charge         Core      Valence    Rydberg      Total
 -----------------------------------------------------------------------
      C    1   -0.30508      0.99964     2.29908    0.00637     3.30508
      C    2    0.13883      0.99953     1.84863    0.01301     2.86117
      C    3   -0.12640      0.99943     2.11645    0.01051     3.12640
      C    4   -0.09118      0.99952     2.08216    0.00950     3.09118
      C    5   -0.11803      0.99955     2.10783    0.01065     3.11803
      C    6   -0.09143      0.99961     2.08062    0.01121     3.09143
      N    7   -0.31479      0.99967     2.80515    0.00997     3.81479
      C    8    0.23952      0.99955     1.74537    0.01555     2.76048
      N    9   -0.32184      0.99965     2.80966    0.01253     3.82184
      C   10   -0.19312      0.99964     2.18439    0.00909     3.19312
      N   11   -0.38570      0.99968     2.87572    0.01030     3.88570
      H   12    0.10928      0.00000     0.38936    0.00135     0.39072
      H   13    0.10480      0.00000     0.39271    0.00249     0.39520
      H   14    0.10840      0.00000     0.39038    0.00122     0.39160
      H   15    0.10022      0.00000     0.39842    0.00135     0.39978
      H   16    0.09741      0.00000     0.40157    0.00102     0.40259
      H   17    0.09037      0.00000     0.40749    0.00214     0.40963
      H   18    0.09418      0.00000     0.40381    0.00202     0.40582
      H   19    0.19391      0.00000     0.30169    0.00440     0.30609
      H   20    0.08539      0.00000     0.41289    0.00172     0.41461
      H   21    0.08445      0.00000     0.41355    0.00200     0.41555
      H   22    0.09394      0.00000     0.40489    0.00117     0.40606
      H   23    0.18828      0.00000     0.30937    0.00235     0.31172
      H   24    0.21860      0.00000     0.27895    0.00246     0.28140
 =======================================================================
   * Total *    0.00000     10.99547    29.86014    0.14439    41.00000

 Normal termination of Gaussian 16 at Tue Dec  8 19:36:19 2020.
