 Gaussian 16, Revision A.03,

 -----------------------------------------------------------
 # opt freq B3LYP/6-31G(d) empiricaldispersion=gd3bj scf=xqc
 -----------------------------------------------------------

 -------------------------------
 CID_103250855_JID_5410_neutraal
 -------------------------------
 Symbolic Z-matrix:
 Charge =  0 Multiplicity = 1

 SCF Done:  E(RB3LYP) =  -727.151310587     A.U. after   14 cycles
 SCF Done:  E(RB3LYP) =  -727.155969594     A.U. after   12 cycles
 SCF Done:  E(RB3LYP) =  -727.156592740     A.U. after   12 cycles
 SCF Done:  E(RB3LYP) =  -727.156701603     A.U. after   12 cycles
 SCF Done:  E(RB3LYP) =  -727.156935784     A.U. after   11 cycles
 SCF Done:  E(RB3LYP) =  -727.156996584     A.U. after   12 cycles
 SCF Done:  E(RB3LYP) =  -727.157129598     A.U. after   10 cycles
 SCF Done:  E(RB3LYP) =  -727.157202143     A.U. after   12 cycles
 SCF Done:  E(RB3LYP) =  -727.157262193     A.U. after   12 cycles
 SCF Done:  E(RB3LYP) =  -727.157320609     A.U. after   12 cycles
 SCF Done:  E(RB3LYP) =  -727.157783842     A.U. after   11 cycles
 SCF Done:  E(RB3LYP) =  -727.157797740     A.U. after   10 cycles
 SCF Done:  E(RB3LYP) =  -727.157798622     A.U. after    8 cycles
 SCF Done:  E(RB3LYP) =  -727.157798684     A.U. after    7 cycles
 SCF Done:  E(RB3LYP) =  -727.157798668     A.U. after    7 cycles
 Optimization completed.
    -- Stationary point found.
 Normal termination of Gaussian 16 at Thu Dec 10 16:10:46 2020.

 --------------------------------------------------------------------
 #N Geom=AllCheck Guess=TCheck SCRF=Check GenChk RB3LYP/6-31G(d) Freq
 --------------------------------------------------------------------

 Structure from the checkpoint file:  "JID_5410.chk"
 -------------------------------
 CID_103250855_JID_5410_neutraal
 -------------------------------
 Charge =  0 Multiplicity = 1

 SCF Done:  E(RB3LYP) =  -727.157798668     A.U. after    1 cycles

  Exact polarizability: 160.774  -2.542 109.761   2.103   1.804  98.712
 Approx polarizability: 194.491  -5.100 164.090   3.514   9.878 158.447

                      1                      2                      3
                      A                      A                      A
 Frequencies --     16.8791                30.0955                32.9071
 Red. masses --      4.9461                 7.4591                 3.7418
 Frc consts  --      0.0008                 0.0040                 0.0024
 IR Inten    --      0.6591                 0.2184                 1.0307

                      4                      5                      6
                      A                      A                      A
 Frequencies --     43.0667                68.5326                84.8052
 Red. masses --      5.6875                 5.3254                 5.4632
 Frc consts  --      0.0062                 0.0147                 0.0231
 IR Inten    --      1.3271                 2.3020                 0.1768

                      7                      8                      9
                      A                      A                      A
 Frequencies --    142.6788               153.3516               181.1237
 Red. masses --      3.2277                 3.0148                 2.8804
 Frc consts  --      0.0387                 0.0418                 0.0557
 IR Inten    --      2.1380                 1.9891                 0.7768

                     10                     11                     12
                      A                      A                      A
 Frequencies --    234.2428               265.7509               308.3127
 Red. masses --      2.4425                 3.2456                 2.1879
 Frc consts  --      0.0790                 0.1350                 0.1225
 IR Inten    --      2.2239                 1.4576                 3.0948

                     13                     14                     15
                      A                      A                      A
 Frequencies --    340.5658               375.4739               411.0923
 Red. masses --      2.7759                 2.8497                 2.9637
 Frc consts  --      0.1897                 0.2367                 0.2951
 IR Inten    --      4.4407                 3.0715                10.0360

                     16                     17                     18
                      A                      A                      A
 Frequencies --    425.1449               453.5715               492.8677
 Red. masses --      3.2074                 2.0624                 2.5631
 Frc consts  --      0.3416                 0.2500                 0.3668
 IR Inten    --      2.7775                 7.8840                17.6501

                     19                     20                     21
                      A                      A                      A
 Frequencies --    503.5078               524.1599               540.0139
 Red. masses --      2.1979                 1.7757                 2.4368
 Frc consts  --      0.3283                 0.2874                 0.4187
 IR Inten    --     14.4822                22.2136                12.1699

                     22                     23                     24
                      A                      A                      A
 Frequencies --    565.7194               625.0343               649.6924
 Red. masses --      2.5255                 3.2755                 1.7013
 Frc consts  --      0.4762                 0.7539                 0.4231
 IR Inten    --     22.5233                14.4843                38.8045

                     25                     26                     27
                      A                      A                      A
 Frequencies --    663.6344               687.3109               701.6443
 Red. masses --      1.7151                 1.3751                 2.4654
 Frc consts  --      0.4450                 0.3827                 0.7151
 IR Inten    --    104.1167                90.1800                33.2386

                     28                     29                     30
                      A                      A                      A
 Frequencies --    750.6063               782.9363               820.2070
 Red. masses --      1.7628                 3.9783                 2.5247
 Frc consts  --      0.5852                 1.4368                 1.0007
 IR Inten    --     26.2584                 2.5215                 8.9261

                     31                     32                     33
                      A                      A                      A
 Frequencies --    836.7363               857.3060               918.4639
 Red. masses --      2.2152                 2.0141                 2.2057
 Frc consts  --      0.9138                 0.8722                 1.0963
 IR Inten    --      9.9791                 7.1543                 1.1272

                     34                     35                     36
                      A                      A                      A
 Frequencies --    936.1165               964.4204               976.8182
 Red. masses --      1.7911                 1.8557                 1.8926
 Frc consts  --      0.9248                 1.0169                 1.0640
 IR Inten    --      5.1805                 6.1408                 0.8591

                     37                     38                     39
                      A                      A                      A
 Frequencies --    999.2693              1008.8564              1066.3262
 Red. masses --      2.0562                 1.7766                 2.0833
 Frc consts  --      1.2097                 1.0654                 1.3956
 IR Inten    --     18.9440                 9.4443                 0.3182

                     40                     41                     42
                      A                      A                      A
 Frequencies --   1089.0811              1104.7224              1114.4383
 Red. masses --      2.4037                 2.0187                 2.9814
 Frc consts  --      1.6798                 1.4515                 2.1816
 IR Inten    --     13.5763                30.5536                41.8922

                     43                     44                     45
                      A                      A                      A
 Frequencies --   1135.0809              1145.0446              1157.6011
 Red. masses --      2.0999                 2.2981                 1.9332
 Frc consts  --      1.5940                 1.7753                 1.5263
 IR Inten    --     10.8792                 2.0361               216.2185

                     46                     47                     48
                      A                      A                      A
 Frequencies --   1180.6970              1206.3139              1222.4894
 Red. masses --      2.0110                 1.5941                 1.3361
 Frc consts  --      1.6517                 1.3668                 1.1765
 IR Inten    --     43.1193                10.4915                22.9369

                     49                     50                     51
                      A                      A                      A
 Frequencies --   1236.2948              1246.2962              1273.9907
 Red. masses --      1.4745                 1.4656                 1.2407
 Frc consts  --      1.3278                 1.3412                 1.1865
 IR Inten    --     77.5529                34.2847                33.6315

                     52                     53                     54
                      A                      A                      A
 Frequencies --   1311.1803              1320.1127              1327.5761
 Red. masses --      1.3004                 1.5143                 1.3935
 Frc consts  --      1.3172                 1.5549                 1.4470
 IR Inten    --      8.1692                33.4061                 6.6363

                     55                     56                     57
                      A                      A                      A
 Frequencies --   1336.6672              1361.7921              1365.0457
 Red. masses --      1.3038                 1.3956                 1.3210
 Frc consts  --      1.3725                 1.5249                 1.4503
 IR Inten    --      7.1275                 1.6550                 9.8720

                     58                     59                     60
                      A                      A                      A
 Frequencies --   1381.0313              1395.7645              1402.4635
 Red. masses --      1.4264                 1.3667                 1.7143
 Frc consts  --      1.6028                 1.5687                 1.9866
 IR Inten    --     41.2893                 7.8657                53.7373

                     61                     62                     63
                      A                      A                      A
 Frequencies --   1406.6687              1421.3096              1431.5778
 Red. masses --      1.5606                 1.3775                 1.4071
 Frc consts  --      1.8194                 1.6396                 1.6991
 IR Inten    --     11.1726                 8.4544                 2.7352

                     64                     65                     66
                      A                      A                      A
 Frequencies --   1439.2353              1489.6135              1492.6388
 Red. masses --      1.9065                 1.0943                 1.2075
 Frc consts  --      2.3268                 1.4306                 1.5850
 IR Inten    --     60.1064                10.0279                18.4762

                     67                     68                     69
                      A                      A                      A
 Frequencies --   1504.2123              1514.6360              1516.4264
 Red. masses --      1.4377                 1.1062                 1.0899
 Frc consts  --      1.9167                 1.4952                 1.4767
 IR Inten    --     18.8323                14.0136                 4.2071

                     70                     71                     72
                      A                      A                      A
 Frequencies --   1523.6349              1529.0338              1531.3919
 Red. masses --      1.1493                 1.1948                 1.1676
 Frc consts  --      1.5720                 1.6458                 1.6134
 IR Inten    --     17.8136                16.5173                15.5572

                     73                     74                     75
                      A                      A                      A
 Frequencies --   1549.5620              1798.2778              1844.9582
 Red. masses --      1.1304                 8.3470                 9.4445
 Frc consts  --      1.5993                15.9035                18.9411
 IR Inten    --      8.8033               409.3135               226.3674

                     76                     77                     78
                      A                      A                      A
 Frequencies --   2973.0932              3027.5292              3040.1524
 Red. masses --      1.0737                 1.0722                 1.0630
 Frc consts  --      5.5919                 5.7904                 5.7889
 IR Inten    --     67.3259                10.9160                37.6896

                     79                     80                     81
                      A                      A                      A
 Frequencies --   3045.0779              3049.3881              3050.8690
 Red. masses --      1.0750                 1.0669                 1.0736
 Frc consts  --      5.8732                 5.8452                 5.8876
 IR Inten    --      4.0256                25.7160                47.3504

                     82                     83                     84
                      A                      A                      A
 Frequencies --   3052.5043              3060.7308              3079.5713
 Red. masses --      1.0663                 1.0664                 1.0978
 Frc consts  --      5.8540                 5.8863                 6.1341
 IR Inten    --      4.4597                12.9944                46.1487

                     85                     86                     87
                      A                      A                      A
 Frequencies --   3091.9382              3097.3600              3107.3243
 Red. masses --      1.0975                 1.0990                 1.0925
 Frc consts  --      6.1816                 6.2118                 6.2150
 IR Inten    --     25.0131                52.3077                42.2233

                     88                     89                     90
                      A                      A                      A
 Frequencies --   3109.5711              3110.0009              3120.9530
 Red. masses --      1.0938                 1.0953                 1.0938
 Frc consts  --      6.2312                 6.2415                 6.2773
 IR Inten    --     33.2604                10.0479                15.1576

                     91                     92                     93
                      A                      A                      A
 Frequencies --   3514.3519              3585.7927              3682.6997
 Red. masses --      1.0735                 1.0759                 1.0639
 Frc consts  --      7.8114                 8.1504                 8.5016
 IR Inten    --      0.6254                14.4812                48.8128

 - Thermochemistry -
 -------------------
 Temperature   298.150 Kelvin.  Pressure   1.00000 Atm.
 Atom     1 has atomic number  6 and mass  12.00000

 Molecular mass:   214.13174 amu.
 Principal axes and moments of inertia in atomic units:
                           1         2         3
     Eigenvalues --   993.399939177.741349621.57561
           X            0.99998   0.00569  -0.00138
           Y           -0.00572   0.99982  -0.01794
           Z            0.00128   0.01795   0.99984
 This molecule is an asymmetric top.
 Rotational symmetry number  1.
 Warning -- assumption of classical behavior for rotation
           may cause significant error
 Rotational temperatures (Kelvin)      0.08719     0.00944     0.00900
 Rotational constants (GHZ):           1.81673     0.19664     0.18757
 Zero-point vibrational energy     756907.3 (Joules/Mol)
                                  180.90518 (Kcal/Mol)
 Warning -- explicit consideration of  22 degrees of freedom as
           vibrations may cause significant error
 Vibrational temperatures:     24.29    43.30    47.35    61.96    98.60
          (Kelvin)            122.02   205.28   220.64   260.60   337.02
                              382.36   443.59   490.00   540.22   591.47
                              611.69   652.59   709.13   724.44   754.15
                              776.96   813.94   899.29   934.76   954.82
                              988.89  1009.51  1079.96  1126.47  1180.09
                             1203.88  1233.47  1321.46  1346.86  1387.59
                             1405.42  1437.73  1451.52  1534.21  1566.94
                             1589.45  1603.43  1633.13  1647.46  1665.53
                             1698.76  1735.62  1758.89  1778.75  1793.14
                             1832.99  1886.50  1899.35  1910.09  1923.17
                             1959.32  1964.00  1987.00  2008.19  2017.83
                             2023.88  2044.95  2059.72  2070.74  2143.22
                             2147.57  2164.23  2179.22  2181.80  2192.17
                             2199.94  2203.33  2229.47  2587.32  2654.48
                             4277.62  4355.94  4374.10  4381.19  4387.39
                             4389.52  4391.87  4403.71  4430.82  4448.61
                             4456.41  4470.75  4473.98  4474.60  4490.36
                             5056.37  5159.16  5298.58

 Zero-point correction=                           0.288291 (Hartree/Particle)
 Thermal correction to Energy=                    0.303722
 Thermal correction to Enthalpy=                  0.304667
 Thermal correction to Gibbs Free Energy=         0.242342
 Sum of electronic and zero-point Energies=           -726.869508
 Sum of electronic and thermal Energies=              -726.854076
 Sum of electronic and thermal Enthalpies=            -726.853132
 Sum of electronic and thermal Free Energies=         -726.915457

                     E (Thermal)             CV                S
                      KCal/Mol        Cal/Mol-Kelvin    Cal/Mol-Kelvin
 Total                  190.589             57.341            131.174
 Electronic               0.000              0.000              0.000
 Translational            0.889              2.981             41.988
 Rotational               0.889              2.981             32.839
 Vibrational            188.811             51.380             56.347
 Vibration     1          0.593              1.986              6.971
 Vibration     2          0.594              1.984              5.823
 Vibration     3          0.594              1.983              5.646
 Vibration     4          0.595              1.980              5.113
 Vibration     5          0.598              1.969              4.195
 Vibration     6          0.601              1.960              3.776
 Vibration     7          0.616              1.911              2.768
 Vibration     8          0.619              1.899              2.630
 Vibration     9          0.630              1.865              2.317
 Vibration    10          0.654              1.788              1.846
 Vibration    11          0.672              1.736              1.624
 Vibration    12          0.698              1.658              1.371
 Vibration    13          0.720              1.594              1.209
 Vibration    14          0.746              1.522              1.057
 Vibration    15          0.775              1.446              0.923
 Vibration    16          0.787              1.416              0.875
 Vibration    17          0.812              1.353              0.785
 Vibration    18          0.849              1.266              0.676
 Vibration    19          0.859              1.242              0.649
 Vibration    20          0.879              1.197              0.600
 Vibration    21          0.895              1.162              0.565
 Vibration    22          0.922              1.105              0.513

 Optimization completed.
    -- Stationary point found.
 Normal termination of Gaussian 16 at Thu Dec 10 16:20:14 2020.

 ----------------------------------------------------------------------
 # B3LYP/6-311++G(d,p) empiricaldispersion=gd3bj scf=xqc pop=npa geom=c
 heck
 ----------------------------------------------------------------------

 ---------------------------------------
 CID_103250855_JID_5410_Energie_neutraal
 ---------------------------------------
 Structure from the checkpoint file:  "JID_5410.chk"
 Charge =  0 Multiplicity = 1

 SCF Done:  E(RB3LYP) =  -727.385229395     A.U. after   14 cycles
 Normal termination of Gaussian 16 at Thu Dec 10 16:24:36 2020.

 ----------------------------------------------------------------------
 # B3LYP/6-311++G(d,p) empiricaldispersion=gd3bj scf=xqc pop=npa geom=c
 heck
 ----------------------------------------------------------------------

 -------------------------------------
 CID_103250855_JID_5410_Energie_kation
 -------------------------------------
 Structure from the checkpoint file:  "JID_5410.chk"
 Charge =  1 Multiplicity = 2

 SCF Done:  E(UB3LYP) =  -727.078708427     A.U. after   27 cycles
 Normal termination of Gaussian 16 at Thu Dec 10 16:39:55 2020.
 Gaussian 16:  ES64L-G16RevA.03 25-Dec-2016

 ----------------------------------------------------------------------
 # B3LYP/6-311++G(d,p) empiricaldispersion=gd3bj scf=xqc pop=npa geom=c
 heck
 ----------------------------------------------------------------------

 ------------------------------------
 CID_103250855_JID_5410_Energie_anion
 ------------------------------------
 Structure from the checkpoint file:  "JID_5410.chk"
 Charge = -1 Multiplicity = 2

                         Standard orientation:
 ---------------------------------------------------------------------
 Center     Atomic      Atomic             Coordinates (Angstroms)
 Number     Number       Type             X           Y           Z
 ---------------------------------------------------------------------
      1          6           0        2.633247    1.510253    0.355126
      2          6           0        4.013233    1.001015   -0.069398
      3          6           0        4.206582   -0.503344    0.074229
      4          8           0        5.315970   -1.018875    0.116084
      5          7           0        3.063702   -1.261780    0.080721
      6          6           0        1.692889   -0.793012    0.243113
      7          6           0        1.517966    0.654117   -0.255752
      8          7           0        0.214851    1.236859    0.037769
      9          6           0       -0.882086    1.016063   -0.900214
     10          6           0       -1.475618   -0.400590   -1.024731
     11          6           0       -1.981853   -1.005754    0.292223
     12          6           0       -3.102458   -0.208027    0.966456
     13          6           0       -4.385889   -0.193355    0.164731
     14          8           0       -4.664701   -0.938793   -0.748707
     15          8           0       -5.238437    0.763026    0.609212
     16          1           0        2.540134    1.479587    1.450590
     17          1           0        2.490762    2.552768    0.055390
     18          1           0        4.820118    1.483610    0.488809
     19          1           0        4.188260    1.234594   -1.128832
     20          1           0        3.243171   -2.252375    0.194492
     21          1           0        1.393565   -0.826749    1.304896
     22          1           0        1.029985   -1.472118   -0.300002
     23          1           0        1.635468    0.659669   -1.347770
     24          1           0       -0.063261    1.047819    0.997309
     25          1           0       -1.679206    1.718915   -0.625606
     26          1           0       -0.532280    1.337294   -1.889101
     27          1           0       -2.304708   -0.365054   -1.741444
     28          1           0       -0.728979   -1.076080   -1.459806
     29          1           0       -2.344860   -2.020599    0.099922
     30          1           0       -1.152334   -1.098109    1.004199
     31          1           0       -3.347624   -0.645682    1.943736
     32          1           0       -2.813371    0.828140    1.172841
     33          1           0       -6.043443    0.681761    0.063531
 ---------------------------------------------------------------------

 SCF Done:  E(UB3LYP) =  -727.378893779     A.U. after   33 cycles
 SCF Done:  E(UB3LYP) =  -727.378893779     a.u. after    1 cycles

 The electronic state is 2-A.
 Alpha  occ. eigenvalues --  -19.07596 -19.02291 -18.99666 -14.24822 -14.21015
 Alpha  occ. eigenvalues --  -10.21293 -10.18332 -10.12144 -10.11985 -10.10521
 Alpha  occ. eigenvalues --  -10.09425 -10.09010 -10.08564 -10.07731 -10.07279
 Alpha  occ. eigenvalues --   -1.01684  -0.94842  -0.92812  -0.84380  -0.81749
 Alpha  occ. eigenvalues --   -0.71968  -0.70377  -0.66228  -0.63725  -0.58225
 Alpha  occ. eigenvalues --   -0.56753  -0.53359  -0.51549  -0.48142  -0.47153
 Alpha  occ. eigenvalues --   -0.41824  -0.41187  -0.40164  -0.39573  -0.39217
 Alpha  occ. eigenvalues --   -0.38141  -0.37127  -0.36592  -0.34919  -0.34288
 Alpha  occ. eigenvalues --   -0.34120  -0.32746  -0.32014  -0.31211  -0.30247
 Alpha  occ. eigenvalues --   -0.29545  -0.27888  -0.26877  -0.26594  -0.25667
 Alpha  occ. eigenvalues --   -0.25225  -0.24208  -0.23928  -0.23282  -0.19129
 Alpha  occ. eigenvalues --   -0.16999  -0.16547  -0.13631   0.03793
 Alpha virt. eigenvalues --    0.05597   0.06319   0.06916   0.07773   0.08109
 Alpha virt. eigenvalues --    0.08766   0.09514   0.09683   0.10011   0.10311
 Alpha virt. eigenvalues --    0.10943   0.11400   0.12134   0.12407   0.13189

  Beta  occ. eigenvalues --  -19.07549 -19.02276 -18.99650 -14.24811 -14.20999
  Beta  occ. eigenvalues --  -10.21279 -10.18322 -10.12138 -10.11952 -10.10511
  Beta  occ. eigenvalues --  -10.09418 -10.08970 -10.08547 -10.07709 -10.07271
  Beta  occ. eigenvalues --   -1.01616  -0.94814  -0.92756  -0.84351  -0.81721
  Beta  occ. eigenvalues --   -0.71933  -0.70338  -0.66184  -0.63665  -0.58164
  Beta  occ. eigenvalues --   -0.56698  -0.53308  -0.51479  -0.48097  -0.47074
  Beta  occ. eigenvalues --   -0.41767  -0.41142  -0.40111  -0.39542  -0.39182
  Beta  occ. eigenvalues --   -0.38079  -0.37092  -0.36557  -0.34888  -0.34246
  Beta  occ. eigenvalues --   -0.34082  -0.32701  -0.31972  -0.31174  -0.30203
  Beta  occ. eigenvalues --   -0.29506  -0.27849  -0.26827  -0.26556  -0.25630
  Beta  occ. eigenvalues --   -0.25191  -0.24170  -0.23895  -0.23229  -0.19094
  Beta  occ. eigenvalues --   -0.16972  -0.16514  -0.13612
  Beta virt. eigenvalues --    0.05928   0.06714   0.07081   0.07352   0.08292
  Beta virt. eigenvalues --    0.08381   0.08884   0.09742   0.09888   0.10200
  Beta virt. eigenvalues --    0.10766   0.11123   0.11797   0.12224   0.12462

 Mulliken charges and spin densities:
               1          2
     1  C    0.194223  -0.115861
     2  C    0.094127  -0.483649
     3  C   -0.047833   0.084227
     4  O   -0.388176   0.017222
     5  N   -0.244409   0.115257
     6  C    1.319214  -1.746506
     7  C   -1.368463   0.541146
     8  N    0.052721   0.067774
     9  C    0.230615  -0.750844
    10  C   -0.404254   0.492414
    11  C    0.115171  -0.533080
    12  C    0.762071  -0.915343
    13  C    0.204223  -0.406755
    14  O   -0.288837   0.011957
    15  O   -0.203241   0.073689
    16  H   -0.116031   0.244303
    17  H    0.017554   0.174176
    18  H    0.169838   0.033044
    19  H    0.016614   0.151513
    20  H    0.062428   0.235153
    21  H   -0.429284   0.628629
    22  H   -0.031957   0.207854
    23  H    0.056170   0.107689
    24  H    0.174127   0.089648
    25  H   -0.051676   0.244480
    26  H    0.109760   0.021218
    27  H    0.123388   0.061210
    28  H   -0.070110   0.210666
    29  H   -0.092390   0.282368
    30  H    0.016655   0.175466
    31  H   -0.617873   0.827217
    32  H   -0.019075   0.224424
    33  H   -0.345291   0.629295
 Sum of Mulliken charges =  -1.00000   1.00000

 Dipole moment (field-independent basis, Debye):
    X=              3.4788    Y=              2.3075    Z=             -3.1404  Tot=              5.2239
 Quadrupole moment (field-independent basis, Debye-Ang):
   XX=           -219.3731   YY=           -125.7127   ZZ=           -123.7881
   XY=              8.3844   XZ=              3.0591   YZ=              0.5283

 Summary of Natural Population Analysis:

                                       Natural Population
                Natural  -----------------------------------------------
    Atom  No    Charge         Core      Valence    Rydberg      Total
 -----------------------------------------------------------------------
      C    1   -0.19117      0.99961     2.18328    0.00828     3.19117
      C    2   -0.23271      0.99959     2.22528    0.00784     3.23271
      C    3    0.34659      0.99967     1.63179    0.02196     2.65341
      O    4   -0.32754      0.99988     3.32154    0.00612     4.32754
      N    5   -0.31960      0.99967     2.81012    0.00980     3.81960
      C    6   -0.09144      0.99959     2.08002    0.01184     3.09144
      C    7   -0.01073      0.99958     1.99932    0.01184     3.01073
      N    8   -0.34446      0.99973     2.83272    0.01200     3.84446
      C    9   -0.08459      0.99962     2.07442    0.01056     3.08459
      C   10   -0.20166      0.99962     2.19522    0.00682     3.20166
      C   11   -0.19625      0.99963     2.18591    0.01071     3.19625
      C   12   -0.24255      0.99957     2.23349    0.00948     3.24255
      C   13    0.40939      0.99972     1.56533    0.02556     2.59061
      O   14   -0.30988      0.99987     3.30374    0.00628     4.30988
      O   15   -0.34453      0.99988     3.33803    0.00663     4.34453
      H   16    0.09745      0.00000     0.40112    0.00144     0.40255
      H   17    0.10577      0.00000     0.39283    0.00140     0.39423
      H   18    0.11102      0.00000     0.38782    0.00116     0.38898
      H   19    0.10801      0.00000     0.39070    0.00128     0.39199
      H   20    0.19545      0.00000     0.30196    0.00259     0.30455
      H   21    0.09112      0.00000     0.40628    0.00260     0.40888
      H   22    0.10062      0.00000     0.39763    0.00175     0.39938
      H   23    0.09161      0.00000     0.40665    0.00173     0.40839
      H   24    0.17613      0.00000     0.32048    0.00339     0.32387
      H   25    0.09327      0.00000     0.40556    0.00117     0.40673
      H   26    0.09151      0.00000     0.40744    0.00104     0.40849
      H   27    0.10498      0.00000     0.39380    0.00122     0.39502
      H   28    0.09441      0.00000     0.40430    0.00130     0.40559
      H   29    0.10646      0.00000     0.39227    0.00127     0.39354
      H   30    0.09930      0.00000     0.39874    0.00197     0.40070
      H   31    0.12224      0.00000     0.37523    0.00252     0.37776
      H   32    0.10990      0.00000     0.38854    0.00156     0.39010
      H   33    0.24188      0.00000     0.24716    0.01096     0.25812
 =======================================================================
   * Total *    0.00000     14.99521    42.79872    0.20607    58.00000

 Normal termination of Gaussian 16 at Thu Dec 10 16:58:29 2020.
