 Gaussian 16, Revision A.03,

 -----------------------------------------------------------
 # opt freq B3LYP/6-31G(d) empiricaldispersion=gd3bj scf=xqc
 -----------------------------------------------------------

 -------------------------------
 CID_154445947_JID_9224_neutraal
 -------------------------------
 Symbolic Z-matrix:
 Charge =  0 Multiplicity = 1

 SCF Done:  E(RB3LYP) =  -970.027888767     A.U. after   15 cycles
 SCF Done:  E(RB3LYP) =  -970.008815618     A.U. after   15 cycles
 SCF Done:  E(RB3LYP) =  -970.029758854     A.U. after   14 cycles
 SCF Done:  E(RB3LYP) =  -970.034335723     A.U. after   13 cycles
 SCF Done:  E(RB3LYP) =  -970.036583904     A.U. after   13 cycles
 SCF Done:  E(RB3LYP) =  -970.037332069     A.U. after   13 cycles
 SCF Done:  E(RB3LYP) =  -970.036854244     A.U. after   13 cycles
 SCF Done:  E(RB3LYP) =  -970.038171201     A.U. after   13 cycles
 SCF Done:  E(RB3LYP) =  -970.039430654     A.U. after   12 cycles
 SCF Done:  E(RB3LYP) =  -970.039714808     A.U. after   13 cycles
 SCF Done:  E(RB3LYP) =  -970.041101629     A.U. after    9 cycles
 SCF Done:  E(RB3LYP) =  -970.041104097     A.U. after    9 cycles
 SCF Done:  E(RB3LYP) =  -970.041105092     A.U. after    9 cycles
 SCF Done:  E(RB3LYP) =  -970.041105433     A.U. after    7 cycles
 SCF Done:  E(RB3LYP) =  -970.041105705     A.U. after    8 cycles
 Optimization completed.
    -- Stationary point found.
 Normal termination of Gaussian 16 at Sun Dec 13 20:30:11 2020.

 --------------------------------------------------------------------
 #N Geom=AllCheck Guess=TCheck SCRF=Check GenChk RB3LYP/6-31G(d) Freq
 --------------------------------------------------------------------

 Structure from the checkpoint file:  "JID_9224.chk"
 -------------------------------
 CID_154445947_JID_9224_neutraal
 -------------------------------
 Charge =  0 Multiplicity = 1

 SCF Done:  E(RB3LYP) =  -970.041105705     A.U. after    1 cycles

  Exact polarizability: 191.785  -5.021 183.260  -7.377   0.755  75.551
 Approx polarizability: 288.800 -34.658 302.299 -18.537   7.486 132.737

                      1                      2                      3
                      A                      A                      A
 Frequencies --     41.1997                70.2887                78.1132
 Red. masses --      4.8809                 6.8229                 2.7070
 Frc consts  --      0.0049                 0.0199                 0.0097
 IR Inten    --      0.3114                 0.5706                 2.6678

                      4                      5                      6
                      A                      A                      A
 Frequencies --     90.1084                92.3752               108.2537
 Red. masses --      1.4937                 3.4990                 5.0857
 Frc consts  --      0.0071                 0.0176                 0.0351
 IR Inten    --      1.0481                 1.5722                 2.7397

                      7                      8                      9
                      A                      A                      A
 Frequencies --    116.4649               140.8462               161.6039
 Red. masses --      3.6792                 8.8874                 1.4389
 Frc consts  --      0.0294                 0.1039                 0.0221
 IR Inten    --      1.4779                 2.7703                 0.9363

                     10                     11                     12
                      A                      A                      A
 Frequencies --    173.4648               229.2040               245.7418
 Red. masses --      2.8418                 8.2826                 7.0604
 Frc consts  --      0.0504                 0.2564                 0.2512
 IR Inten    --      2.6373                 0.6292                 4.8295

                     13                     14                     15
                      A                      A                      A
 Frequencies --    286.7314               304.0865               311.5887
 Red. masses --      4.3182                 6.4305                 5.3524
 Frc consts  --      0.2092                 0.3503                 0.3062
 IR Inten    --      2.6154                 5.9600                 4.3210

                     16                     17                     18
                      A                      A                      A
 Frequencies --    352.5736               361.0760               368.5610
 Red. masses --      4.2395                 6.8595                 6.9651
 Frc consts  --      0.3105                 0.5269                 0.5574
 IR Inten    --      1.5672                 5.7133                 4.4249

                     19                     20                     21
                      A                      A                      A
 Frequencies --    378.4118               428.2327               465.3569
 Red. masses --      5.8314                 4.9280                 6.2621
 Frc consts  --      0.4920                 0.5325                 0.7990
 IR Inten    --      3.2536                 6.6377                 0.3066

                     22                     23                     24
                      A                      A                      A
 Frequencies --    502.3787               523.7435               536.5803
 Red. masses --      1.2253                 5.0605                 3.8878
 Frc consts  --      0.1822                 0.8179                 0.6595
 IR Inten    --     78.3420                 4.6080                 4.5255

                     25                     26                     27
                      A                      A                      A
 Frequencies --    572.0335               584.6484               595.8476
 Red. masses --      5.1434                 3.1929                 3.4137
 Frc consts  --      0.9916                 0.6430                 0.7141
 IR Inten    --      5.2089                 0.9014                14.7312

                     28                     29                     30
                      A                      A                      A
 Frequencies --    601.2499               617.1834               635.9582
 Red. masses --      3.6285                 4.3950                 5.8134
 Frc consts  --      0.7728                 0.9864                 1.3853
 IR Inten    --      8.3053                 1.9550                 6.6558

                     31                     32                     33
                      A                      A                      A
 Frequencies --    651.7152               673.3819               693.0134
 Red. masses --      1.2977                 3.9929                 3.8624
 Frc consts  --      0.3247                 1.0667                 1.0929
 IR Inten    --     31.1070                27.3884                14.6643

                     34                     35                     36
                      A                      A                      A
 Frequencies --    716.6455               743.3294               754.9277
 Red. masses --      2.0325                 4.8207                 2.8737
 Frc consts  --      0.6150                 1.5694                 0.9649
 IR Inten    --     76.6464                 9.5411                13.4179

                     37                     38                     39
                      A                      A                      A
 Frequencies --    793.3766               824.4108               836.0099
 Red. masses --      1.3941                 1.7402                 3.0302
 Frc consts  --      0.5170                 0.6969                 1.2478
 IR Inten    --     29.5734                 0.5656                 6.4605

                     40                     41                     42
                      A                      A                      A
 Frequencies --    900.8905               926.0171               976.7919
 Red. masses --      6.1191                 6.8448                 4.9758
 Frc consts  --      2.9260                 3.4582                 2.7971
 IR Inten    --      1.1681                22.8531                63.5595

                     43                     44                     45
                      A                      A                      A
 Frequencies --   1023.4354              1040.2942              1073.9788
 Red. masses --      1.9554                 2.0302                 1.7480
 Frc consts  --      1.2067                 1.2945                 1.1879
 IR Inten    --     21.4287                47.7022                 8.7943

                     46                     47                     48
                      A                      A                      A
 Frequencies --   1078.5858              1080.3344              1085.9995
 Red. masses --      1.8478                 1.5697                 2.2545
 Frc consts  --      1.2665                 1.0794                 1.5666
 IR Inten    --     18.5513                43.5458                18.0253

                     49                     50                     51
                      A                      A                      A
 Frequencies --   1112.6328              1210.3045              1238.0804
 Red. masses --      3.6215                 2.0328                 2.2283
 Frc consts  --      2.6415                 1.7544                 2.0124
 IR Inten    --     19.8205                39.8671               133.4630

                     52                     53                     54
                      A                      A                      A
 Frequencies --   1259.7566              1274.5341              1294.0750
 Red. masses --      3.7873                 2.4993                 3.8964
 Frc consts  --      3.5412                 2.3921                 3.8445
 IR Inten    --    198.7770                36.6928               482.1546

                     55                     56                     57
                      A                      A                      A
 Frequencies --   1299.9041              1340.1876              1385.9966
 Red. masses --      2.1462                 4.1531                 2.8935
 Frc consts  --      2.1367                 4.3950                 3.2749
 IR Inten    --    198.9782               172.8082                34.2413

                     58                     59                     60
                      A                      A                      A
 Frequencies --   1389.8969              1421.4201              1422.9156
 Red. masses --      2.6838                 1.3679                 1.3517
 Frc consts  --      3.0546                 1.6283                 1.6125
 IR Inten    --    385.1051                81.2675                22.2004

                     61                     62                     63
                      A                      A                      A
 Frequencies --   1437.8111              1485.9886              1497.3545
 Red. masses --      2.4910                 3.5053                 1.0522
 Frc consts  --      3.0341                 4.5604                 1.3900
 IR Inten    --     58.5418                17.1144                26.6402

                     64                     65                     66
                      A                      A                      A
 Frequencies --   1502.9630              1506.4589              1509.0068
 Red. masses --      1.0599                 1.0527                 1.0540
 Frc consts  --      1.4106                 1.4076                 1.4141
 IR Inten    --      7.1331                18.2023                 1.9484

                     67                     68                     69
                      A                      A                      A
 Frequencies --   1525.4868              1535.7750              1606.0142
 Red. masses --      4.7975                 5.2030                 8.5035
 Frc consts  --      6.5778                 7.2304                12.9225
 IR Inten    --      6.8371                76.9576                 2.2203

                     70                     71                     72
                      A                      A                      A
 Frequencies --   1617.9109              1744.7399              1794.5369
 Red. masses --      6.8490                 7.3671                 9.8571
 Frc consts  --     10.5630                13.2132                18.7026
 IR Inten    --     66.3230                 9.5902               206.1913

                     73                     74                     75
                      A                      A                      A
 Frequencies --   1839.3295              3072.3063              3078.6362
 Red. masses --     11.3764                 1.0378                 1.0369
 Frc consts  --     22.6763                 5.7713                 5.7901
 IR Inten    --    181.2179                 1.8372                 1.2242

                     76                     77                     78
                      A                      A                      A
 Frequencies --   3137.1804              3152.3154              3182.2601
 Red. masses --      1.0989                 1.0981                 1.1041
 Frc consts  --      6.3724                 6.4289                 6.5877
 IR Inten    --      6.6149                 3.0970                 6.4876

                     79                     80                     81
                      A                      A                      A
 Frequencies --   3185.2207              3263.2358              3272.0320
 Red. masses --      1.1059                 1.0929                 1.0920
 Frc consts  --      6.6106                 6.8570                 6.8881
 IR Inten    --      5.9642                 1.4005                 1.8164

                     82                     83                     84
                      A                      A                      A
 Frequencies --   3293.4835              3412.4863              3659.9593
 Red. masses --      1.1019                 1.0667                 1.0645
 Frc consts  --      7.0423                 7.3184                 8.4013
 IR Inten    --      0.4560               398.8941               107.2003

 - Thermochemistry -
 -------------------
 Temperature   298.150 Kelvin.  Pressure   1.00000 Atm.
 Atom     1 has atomic number  6 and mass  12.00000

 Molecular mass:   265.05864 amu.
 Principal axes and moments of inertia in atomic units:
                           1         2         3
     Eigenvalues --  3354.722694864.640887800.82243
           X            0.99929   0.03711  -0.00690
           Y           -0.03714   0.99930  -0.00448
           Z            0.00672   0.00473   0.99997
 This molecule is an asymmetric top.
 Rotational symmetry number  1.
 Warning -- assumption of classical behavior for rotation
           may cause significant error
 Rotational temperatures (Kelvin)      0.02582     0.01780     0.01110
 Rotational constants (GHZ):           0.53797     0.37099     0.23135
 Zero-point vibrational energy     585029.2 (Joules/Mol)
                                  139.82533 (Kcal/Mol)
 Warning -- explicit consideration of  29 degrees of freedom as
           vibrations may cause significant error
 Vibrational temperatures:     59.28   101.13   112.39   129.65   132.91
          (Kelvin)            155.75   167.57   202.65   232.51   249.58
                              329.77   353.57   412.54   437.51   448.31
                              507.27   519.51   530.28   544.45   616.13
                              669.54   722.81   753.55   772.02   823.03
                              841.18   857.29   865.06   887.99   915.00
                              937.67   968.85   997.09  1031.09  1069.49
                             1086.17  1141.49  1186.14  1202.83  1296.18
                             1332.33  1405.39  1472.50  1496.75  1545.22
                             1551.84  1554.36  1562.51  1600.83  1741.36
                             1781.32  1812.51  1833.77  1861.89  1870.27
                             1928.23  1994.14  1999.75  2045.11  2047.26
                             2068.69  2138.01  2154.36  2162.43  2167.46
                             2171.12  2194.84  2209.64  2310.70  2327.81
                             2510.29  2581.94  2646.38  4420.36  4429.47
                             4513.70  4535.48  4578.56  4582.82  4695.07
                             4707.72  4738.59  4909.81  5265.87

 Zero-point correction=                           0.222826 (Hartree/Particle)
 Thermal correction to Energy=                    0.240057
 Thermal correction to Enthalpy=                  0.241001
 Thermal correction to Gibbs Free Energy=         0.177973
 Sum of electronic and zero-point Energies=           -969.818280
 Sum of electronic and thermal Energies=              -969.801049
 Sum of electronic and thermal Enthalpies=            -969.800105
 Sum of electronic and thermal Free Energies=         -969.863133

                     E (Thermal)             CV                S
                      KCal/Mol        Cal/Mol-Kelvin    Cal/Mol-Kelvin
 Total                  150.638             65.264            132.654
 Electronic               0.000              0.000              0.000
 Translational            0.889              2.981             42.624
 Rotational               0.889              2.981             33.209
 Vibrational            148.860             59.303             56.821
 Vibration     1          0.594              1.981              5.201
 Vibration     2          0.598              1.968              4.145
 Vibration     3          0.599              1.964              3.938
 Vibration     4          0.602              1.956              3.658
 Vibration     5          0.602              1.955              3.609
 Vibration     6          0.606              1.943              3.300
 Vibration     7          0.608              1.936              3.158
 Vibration     8          0.615              1.912              2.792
 Vibration     9          0.622              1.889              2.531
 Vibration    10          0.627              1.875              2.398
 Vibration    11          0.652              1.796              1.885
 Vibration    12          0.660              1.770              1.761
 Vibration    13          0.684              1.698              1.493
 Vibration    14          0.695              1.666              1.394
 Vibration    15          0.700              1.652              1.354
 Vibration    16          0.729              1.570              1.155
 Vibration    17          0.735              1.552              1.117
 Vibration    18          0.741              1.537              1.086
 Vibration    19          0.749              1.516              1.046
 Vibration    20          0.790              1.409              0.864
 Vibration    21          0.823              1.327              0.751
 Vibration    22          0.858              1.245              0.652
 Vibration    23          0.879              1.197              0.601
 Vibration    24          0.892              1.169              0.573
 Vibration    25          0.928              1.092              0.500
 Vibration    26          0.942              1.065              0.477
 Vibration    27          0.954              1.041              0.457
 Vibration    28          0.959              1.029              0.448
 Vibration    29          0.977              0.996              0.421

 Optimization completed.
    -- Stationary point found.
 Normal termination of Gaussian 16 at Sun Dec 13 20:46:15 2020.

 ----------------------------------------------------------------------
 # B3LYP/6-311++G(d,p) empiricaldispersion=gd3bj scf=xqc pop=npa geom=c
 heck
 ----------------------------------------------------------------------

 ---------------------------------------
 CID_154445947_JID_9224_Energie_neutraal
 ---------------------------------------
 Structure from the checkpoint file:  "JID_9224.chk"
 Charge =  0 Multiplicity = 1

 SCF Done:  E(RB3LYP) =  -970.328356303     A.U. after   16 cycles
 Normal termination of Gaussian 16 at Sun Dec 13 20:52:46 2020.

 ----------------------------------------------------------------------
 # B3LYP/6-311++G(d,p) empiricaldispersion=gd3bj scf=xqc pop=npa geom=c
 heck
 ----------------------------------------------------------------------

 -------------------------------------
 CID_154445947_JID_9224_Energie_kation
 -------------------------------------
 Structure from the checkpoint file:  "JID_9224.chk"
 Charge =  1 Multiplicity = 2

 SCF Done:  E(UB3LYP) =  -970.071763822     A.U. after   23 cycles
 Normal termination of Gaussian 16 at Sun Dec 13 21:06:08 2020.
 Gaussian 16:  ES64L-G16RevA.03 25-Dec-2016

 ----------------------------------------------------------------------
 # B3LYP/6-311++G(d,p) empiricaldispersion=gd3bj scf=xqc pop=npa geom=c
 heck
 ----------------------------------------------------------------------

 ------------------------------------
 CID_154445947_JID_9224_Energie_anion
 ------------------------------------
 Structure from the checkpoint file:  "JID_9224.chk"
 Charge = -1 Multiplicity = 2

                         Standard orientation:
 ---------------------------------------------------------------------
 Center     Atomic      Atomic             Coordinates (Angstroms)
 Number     Number       Type             X           Y           Z
 ---------------------------------------------------------------------
      1          6           0        4.187473   -0.436489   -0.193631
      2          6           0        2.781683   -0.632549    0.317774
      3          8           0        2.310802   -0.119645    1.305169
      4          8           0        2.101020   -1.455410   -0.527554
      5          6           0        0.791054   -1.809409   -0.232637
      6          6           0       -0.334383   -0.983824   -0.184763
      7          6           0       -0.591958    0.408558   -0.318285
      8          6           0       -1.867964    0.897765   -0.211690
      9          6           0       -2.950415   -0.017824    0.042119
     10          6           0       -2.723224   -1.352707    0.161010
     11          7           0       -1.431566   -1.833970    0.044512
     12          6           0       -0.994968   -3.135233    0.132195
     13          6           0        0.378688   -3.139871   -0.038174
     14          8           0       -4.202961    0.494978    0.157987
     15          8           0       -2.248950    2.201223   -0.341232
     16          8           0        0.533469    1.174250   -0.630775
     17          6           0        0.817779    2.331375    0.007774
     18          8           0        0.037638    2.924788    0.730573
     19          6           0        2.223734    2.775835   -0.271752
     20          1           0        4.769458    0.120705    0.541114
     21          1           0        4.159332    0.116771   -1.138729
     22          1           0        4.659511   -1.402131   -0.396152
     23          1           0       -3.506101   -2.072632    0.355320
     24          1           0       -1.694245   -3.937097    0.311521
     25          1           0        1.024140   -4.006338   -0.028408
     26          1           0       -4.101945    1.462353    0.077606
     27          1           0       -1.555612    2.741317    0.110050
     28          1           0        2.870454    2.299136    0.472963
     29          1           0        2.548358    2.461549   -1.265789
     30          1           0        2.294483    3.858919   -0.164053
 ---------------------------------------------------------------------

 SCF Done:  E(UB3LYP) =  -970.322006178     A.U. after   33 cycles
 SCF Done:  E(UB3LYP) =  -970.322006178     a.u. after    1 cycles

 The electronic state is 2-A.
 Alpha  occ. eigenvalues --  -19.07524 -19.06817 -19.04725 -19.03822 -19.00942
 Alpha  occ. eigenvalues --  -19.00743 -14.27181 -10.20018 -10.19404 -10.12212
 Alpha  occ. eigenvalues --  -10.12109 -10.11622 -10.10589 -10.10121 -10.08608
 Alpha  occ. eigenvalues --  -10.08553 -10.07521 -10.07398 -10.05906  -1.01401
 Alpha  occ. eigenvalues --   -1.00451  -0.97049  -0.93899  -0.92629  -0.92284
 Alpha  occ. eigenvalues --   -0.89508  -0.72677  -0.70346  -0.66108  -0.64855
 Alpha  occ. eigenvalues --   -0.62876  -0.59767  -0.56026  -0.53692  -0.50709
 Alpha  occ. eigenvalues --   -0.48161  -0.46287  -0.45298  -0.42776  -0.40096
 Alpha  occ. eigenvalues --   -0.39421  -0.38918  -0.38292  -0.37898  -0.37087
 Alpha  occ. eigenvalues --   -0.36557  -0.35081  -0.34436  -0.32907  -0.31881
 Alpha  occ. eigenvalues --   -0.31681  -0.31233  -0.30946  -0.30433  -0.29607
 Alpha  occ. eigenvalues --   -0.28883  -0.28466  -0.28107  -0.27149  -0.26439
 Alpha  occ. eigenvalues --   -0.24501  -0.22796  -0.21607  -0.18597  -0.18393
 Alpha  occ. eigenvalues --   -0.17595  -0.16629  -0.11310  -0.07445   0.04720
 Alpha virt. eigenvalues --    0.06401   0.07797   0.08004   0.08803   0.08968
 Alpha virt. eigenvalues --    0.09471   0.10036   0.10516   0.11281   0.11953
 Alpha virt. eigenvalues --    0.12041   0.12462   0.13448   0.13981   0.14252

  Beta  occ. eigenvalues --  -19.07573 -19.06810 -19.04727 -19.03781 -19.00814
  Beta  occ. eigenvalues --  -19.00735 -14.27091 -10.20009 -10.19159 -10.12215
  Beta  occ. eigenvalues --  -10.11943 -10.11444 -10.10572 -10.10143 -10.08578
  Beta  occ. eigenvalues --  -10.08385 -10.07468 -10.07395 -10.05881  -1.01265
  Beta  occ. eigenvalues --   -1.00422  -0.96989  -0.93828  -0.92447  -0.92257
  Beta  occ. eigenvalues --   -0.89343  -0.72506  -0.70112  -0.65973  -0.64705
  Beta  occ. eigenvalues --   -0.62750  -0.59624  -0.55761  -0.53623  -0.50618
  Beta  occ. eigenvalues --   -0.48065  -0.46206  -0.45127  -0.42633  -0.40009
  Beta  occ. eigenvalues --   -0.39263  -0.38747  -0.38016  -0.37780  -0.37007
  Beta  occ. eigenvalues --   -0.36378  -0.34942  -0.34008  -0.32749  -0.31809
  Beta  occ. eigenvalues --   -0.31573  -0.31170  -0.30862  -0.30305  -0.29471
  Beta  occ. eigenvalues --   -0.28772  -0.28344  -0.27972  -0.27087  -0.26240
  Beta  occ. eigenvalues --   -0.24284  -0.22376  -0.21559  -0.18484  -0.18143
  Beta  occ. eigenvalues --   -0.17435  -0.16203  -0.10811  -0.06864
  Beta virt. eigenvalues --    0.07169   0.07793   0.08216   0.08808   0.09052
  Beta virt. eigenvalues --    0.09570   0.09644   0.10873   0.11062   0.11502
  Beta virt. eigenvalues --    0.12057   0.12342   0.12532   0.13583   0.14039

 Mulliken charges and spin densities:
               1          2
     1  C    1.489110  -1.976629
     2  C   -1.076782   1.041181
     3  O   -0.201673   0.002709
     4  O   -0.058752   0.009774
     5  C   -0.065240  -0.084621
     6  C   -0.281051   0.172227
     7  C    0.093030   0.075270
     8  C   -0.140729  -0.173061
     9  C   -0.450030  -0.150741
    10  C    0.523838   0.240895
    11  N    0.305033   0.000935
    12  C    0.055208   0.012819
    13  C    0.000608  -0.042955
    14  O   -0.284062   0.003434
    15  O   -0.395599   0.007072
    16  O   -0.082800  -0.009214
    17  C   -0.419660   0.576761
    18  O   -0.306158   0.029797
    19  C    0.159810  -0.753744
    20  H   -0.241276   0.423851
    21  H   -0.278566   0.471316
    22  H   -0.360894   0.523944
    23  H    0.161841  -0.003364
    24  H    0.118977   0.013302
    25  H    0.075325   0.082576
    26  H    0.284208  -0.002928
    27  H    0.311692   0.012959
    28  H   -0.059773   0.285418
    29  H    0.015412   0.152978
    30  H    0.108954   0.058039
 Sum of Mulliken charges =  -1.00000   1.00000

 Dipole moment (field-independent basis, Debye):
    X=             -4.6156    Y=             -0.8364    Z=             -1.1831  Tot=              4.8376
 Quadrupole moment (field-independent basis, Debye-Ang):
   XX=           -176.5386   YY=           -133.4310   ZZ=           -131.4510
   XY=              1.0997   XZ=             -0.9509   YZ=             -3.4629

 Summary of Natural Population Analysis:

                                       Natural Population
                Natural  -----------------------------------------------
    Atom  No    Charge         Core      Valence    Rydberg      Total
 -----------------------------------------------------------------------
      C    1   -0.33404      0.99962     2.32867    0.00575     3.33404
      C    2    0.41004      0.99970     1.56529    0.02496     2.58996
      O    3   -0.29827      0.99987     3.29245    0.00596     4.29827
      O    4   -0.27362      0.99984     3.26459    0.00919     4.27362
      C    5    0.09873      0.99927     1.88755    0.01444     2.90127
      C    6    0.04404      0.99946     1.94546    0.01103     2.95596
      C    7    0.13833      0.99927     1.85137    0.01104     2.86167
      C    8    0.14133      0.99935     1.84704    0.01229     2.85867
      C    9    0.12431      0.99940     1.86415    0.01214     2.87569
      C   10    0.01534      0.99952     1.97472    0.01042     2.98466
      N   11   -0.15980      0.99963     2.65260    0.00757     3.65980
      C   12   -0.04367      0.99960     2.03220    0.01187     3.04367
      C   13   -0.14156      0.99953     2.13232    0.00970     3.14156
      O   14   -0.34802      0.99988     3.34143    0.00672     4.34802
      O   15   -0.37056      0.99987     3.36366    0.00703     4.37056
      O   16   -0.27365      0.99984     3.26499    0.00882     4.27365
      C   17    0.45146      0.99971     1.52426    0.02457     2.54854
      O   18   -0.31939      0.99985     3.31398    0.00557     4.31939
      C   19   -0.33717      0.99962     2.33244    0.00511     3.33717
      H   20    0.11120      0.00000     0.38733    0.00147     0.38880
      H   21    0.11500      0.00000     0.38343    0.00157     0.38500
      H   22    0.11228      0.00000     0.38633    0.00139     0.38772
      H   23    0.09660      0.00000     0.40247    0.00093     0.40340
      H   24    0.09622      0.00000     0.40271    0.00107     0.40378
      H   25    0.10486      0.00000     0.39436    0.00078     0.39514
      H   26    0.24310      0.00000     0.25433    0.00257     0.25690
      H   27    0.25423      0.00000     0.24224    0.00353     0.24577
      H   28    0.12668      0.00000     0.37172    0.00160     0.37332
      H   29    0.10910      0.00000     0.38987    0.00103     0.39090
      H   30    0.10689      0.00000     0.39240    0.00070     0.39311
 =======================================================================
   * Total *    0.00000     18.99280    49.78637    0.22082    69.00000

 Normal termination of Gaussian 16 at Sun Dec 13 21:25:07 2020.
