 Gaussian 16, Revision A.03,

 -----------------------------------------------------------
 # opt freq B3LYP/6-31G(d) empiricaldispersion=gd3bj scf=xqc
 -----------------------------------------------------------

 -------------------------------
 CID_152210572_JID_3972_neutraal
 -------------------------------
 Symbolic Z-matrix:
 Charge =  0 Multiplicity = 1

 SCF Done:  E(RB3LYP) =  -628.564205737     A.U. after   15 cycles
 SCF Done:  E(RB3LYP) =  -628.568980431     A.U. after   13 cycles
 SCF Done:  E(RB3LYP) =  -628.569219979     A.U. after   14 cycles
 SCF Done:  E(RB3LYP) =  -628.570474518     A.U. after   14 cycles
 SCF Done:  E(RB3LYP) =  -628.570897474     A.U. after   12 cycles
 SCF Done:  E(RB3LYP) =  -628.570946359     A.U. after   11 cycles
 SCF Done:  E(RB3LYP) =  -628.571027186     A.U. after   11 cycles
 SCF Done:  E(RB3LYP) =  -628.571038154     A.U. after   11 cycles
 SCF Done:  E(RB3LYP) =  -628.571039710     A.U. after    8 cycles
 SCF Done:  E(RB3LYP) =  -628.571040318     A.U. after    8 cycles
 SCF Done:  E(RB3LYP) =  -628.571040446     A.U. after    7 cycles
 Optimization completed.
    -- Stationary point found.
 Normal termination of Gaussian 16 at Mon Dec 14 13:08:47 2020.

 --------------------------------------------------------------------
 #N Geom=AllCheck Guess=TCheck SCRF=Check GenChk RB3LYP/6-31G(d) Freq
 --------------------------------------------------------------------

 Structure from the checkpoint file:  "JID_3972.chk"
 -------------------------------
 CID_152210572_JID_3972_neutraal
 -------------------------------
 Charge =  0 Multiplicity = 1

 SCF Done:  E(RB3LYP) =  -628.571040446     A.U. after    1 cycles

  Exact polarizability: 110.340  -5.390 117.788   0.072   6.970  90.738
 Approx polarizability: 136.148 -14.254 210.310  -5.433  23.238 143.620

                      1                      2                      3
                      A                      A                      A
 Frequencies --     47.0662                83.1900               101.2195
 Red. masses --      5.3105                 5.7288                 5.6120
 Frc consts  --      0.0069                 0.0234                 0.0339
 IR Inten    --      0.2955                 0.1178                 0.2437

                      4                      5                      6
                      A                      A                      A
 Frequencies --    139.8453               148.2336               170.4758
 Red. masses --      4.5014                 3.7120                 3.2956
 Frc consts  --      0.0519                 0.0481                 0.0564
 IR Inten    --      0.1649                 0.7079                 0.3890

                      7                      8                      9
                      A                      A                      A
 Frequencies --    233.6202               266.8315               302.7072
 Red. masses --      3.9042                 3.0408                 2.8815
 Frc consts  --      0.1255                 0.1276                 0.1556
 IR Inten    --      1.6035                 0.4016                 3.3403

                     10                     11                     12
                      A                      A                      A
 Frequencies --    309.7530               340.1102               373.9797
 Red. masses --      3.0399                 2.6389                 1.2430
 Frc consts  --      0.1718                 0.1798                 0.1024
 IR Inten    --      4.3212                 2.2972                94.3999

                     13                     14                     15
                      A                      A                      A
 Frequencies --    400.0619               410.6514               427.4408
 Red. masses --      1.8845                 1.9605                 1.7030
 Frc consts  --      0.1777                 0.1948                 0.1833
 IR Inten    --      8.8101                 5.8703                28.2677

                     16                     17                     18
                      A                      A                      A
 Frequencies --    482.5151               499.3463               514.3687
 Red. masses --      3.3952                 1.8883                 2.0603
 Frc consts  --      0.4657                 0.2774                 0.3212
 IR Inten    --      1.9577                27.7719                 9.1556

                     19                     20                     21
                      A                      A                      A
 Frequencies --    570.8428               585.4117               604.7770
 Red. masses --     12.2171                 2.8354                 4.0299
 Frc consts  --      2.3456                 0.5725                 0.8684
 IR Inten    --      3.7027                87.1564                12.1577

                     22                     23                     24
                      A                      A                      A
 Frequencies --    665.4706               759.5254               800.5214
 Red. masses --      3.4468                 4.0380                 1.5340
 Frc consts  --      0.8993                 1.3725                 0.5792
 IR Inten    --      7.7232                 4.8618                 1.7196

                     25                     26                     27
                      A                      A                      A
 Frequencies --    830.0115               866.0175               869.1403
 Red. masses --      3.3350                 1.7906                 2.4482
 Frc consts  --      1.3537                 0.7912                 1.0896
 IR Inten    --      4.7410                 2.3658                 3.8762

                     28                     29                     30
                      A                      A                      A
 Frequencies --    914.5822               943.0059               957.0108
 Red. masses --      2.5071                 2.0902                 1.5194
 Frc consts  --      1.2356                 1.0951                 0.8199
 IR Inten    --      4.0741                 2.6382                 2.1532

                     31                     32                     33
                      A                      A                      A
 Frequencies --    984.3655              1012.3751              1055.5886
 Red. masses --      2.4245                 1.9003                 1.8670
 Frc consts  --      1.3842                 1.1475                 1.2257
 IR Inten    --     11.6440                20.6369                 0.5285

                     34                     35                     36
                      A                      A                      A
 Frequencies --   1069.5336              1086.6958              1099.2919
 Red. masses --      3.7377                 2.1458                 2.1226
 Frc consts  --      2.5191                 1.4930                 1.5113
 IR Inten    --    163.6910                25.1271                10.3454

                     37                     38                     39
                      A                      A                      A
 Frequencies --   1112.0367              1135.7709              1168.5087
 Red. masses --      1.6040                 3.0950                 1.5721
 Frc consts  --      1.1686                 2.3523                 1.2647
 IR Inten    --     35.3003                53.4958                 4.1004

                     40                     41                     42
                      A                      A                      A
 Frequencies --   1183.5182              1215.8371              1254.8603
 Red. masses --      1.4698                 1.6245                 1.4260
 Frc consts  --      1.2130                 1.4149                 1.3230
 IR Inten    --      5.4032                47.4276                 6.6402

                     43                     44                     45
                      A                      A                      A
 Frequencies --   1290.9726              1299.8859              1316.0698
 Red. masses --      1.3543                 1.3478                 1.2542
 Frc consts  --      1.3298                 1.3418                 1.2798
 IR Inten    --     21.8079                19.4122                11.8242

                     46                     47                     48
                      A                      A                      A
 Frequencies --   1325.1768              1351.4554              1357.0165
 Red. masses --      1.3034                 2.2994                 2.3415
 Frc consts  --      1.3486                 2.4744                 2.5405
 IR Inten    --      0.4564                76.5158                65.6667

                     49                     50                     51
                      A                      A                      A
 Frequencies --   1373.8614              1386.5523              1395.6628
 Red. masses --      1.3885                 1.4880                 1.4426
 Frc consts  --      1.5441                 1.6855                 1.6556
 IR Inten    --      0.8820                 1.9633                 1.6165

                     52                     53                     54
                      A                      A                      A
 Frequencies --   1404.0683              1409.5906              1417.5337
 Red. masses --      1.4428                 1.4884                 1.4429
 Frc consts  --      1.6759                 1.7424                 1.7082
 IR Inten    --      0.5655                 4.4447                 0.8650

                     55                     56                     57
                      A                      A                      A
 Frequencies --   1451.5449              1480.0274              1491.8725
 Red. masses --      1.2519                 1.4330                 1.1154
 Frc consts  --      1.5540                 1.8494                 1.4626
 IR Inten    --     18.2588                66.1086                 5.7045

                     58                     59                     60
                      A                      A                      A
 Frequencies --   1506.8694              1515.1247              1518.3106
 Red. masses --      1.0913                 1.0901                 1.0965
 Frc consts  --      1.4599                 1.4744                 1.4892
 IR Inten    --      1.4493                 1.3782                 6.9857

                     61                     62                     63
                      A                      A                      A
 Frequencies --   1523.9892              1536.7578              2267.0539
 Red. masses --      1.0785                 1.0995                13.8803
 Frc consts  --      1.4758                 1.5299                42.0312
 IR Inten    --     10.5638                 1.1183               478.5450

                     64                     65                     66
                      A                      A                      A
 Frequencies --   3021.4314              3036.7734              3041.5853
 Red. masses --      1.0680                 1.0650                 1.0633
 Frc consts  --      5.7445                 5.7869                 5.7956
 IR Inten    --     27.3152                 5.2332                19.5499

                     67                     68                     69
                      A                      A                      A
 Frequencies --   3048.8686              3050.9221              3051.5091
 Red. masses --      1.0629                 1.0632                 1.0655
 Frc consts  --      5.8211                 5.8310                 5.8455
 IR Inten    --     16.0954                24.0590                29.4256

                     70                     71                     72
                      A                      A                      A
 Frequencies --   3059.7977              3078.5318              3085.2170
 Red. masses --      1.0803                 1.0927                 1.0993
 Frc consts  --      5.9592                 6.1017                 6.1651
 IR Inten    --     41.1533                57.5428                61.0028

                     73                     74                     75
                      A                      A                      A
 Frequencies --   3087.2038              3092.0627              3096.4794
 Red. masses --      1.0997                 1.1021                 1.1042
 Frc consts  --      6.1750                 6.2082                 6.2376
 IR Inten    --      4.9772                 2.9165                52.8313

                     76                     77                     78
                      A                      A                      A
 Frequencies --   3105.5058              3708.5746              3738.8406
 Red. masses --      1.1017                 1.0651                 1.0657
 Frc consts  --      6.2603                 8.6309                 8.7775
 IR Inten    --     60.0400                13.6099                26.7815

 - Thermochemistry -
 -------------------
 Temperature   298.150 Kelvin.  Pressure   1.00000 Atm.
 Atom     1 has atomic number  6 and mass  12.00000

 Molecular mass:   185.11643 amu.
 Principal axes and moments of inertia in atomic units:
                           1         2         3
     Eigenvalues --  1481.631783058.035543697.18801
           X            0.99994  -0.00972   0.00514
           Y            0.00949   0.99906   0.04236
           Z           -0.00555  -0.04231   0.99909
 This molecule is an asymmetric top.
 Rotational symmetry number  1.
 Warning -- assumption of classical behavior for rotation
           may cause significant error
 Rotational temperatures (Kelvin)      0.05846     0.02832     0.02343
 Rotational constants (GHZ):           1.21808     0.59016     0.48814
 Zero-point vibrational energy     633535.2 (Joules/Mol)
                                  151.41855 (Kcal/Mol)
 Warning -- explicit consideration of  21 degrees of freedom as
           vibrations may cause significant error
 Vibrational temperatures:     67.72   119.69   145.63   201.21   213.28
          (Kelvin)            245.28   336.13   383.91   435.53   445.67
                              489.34   538.07   575.60   590.84   614.99
                              694.23   718.45   740.06   821.32   842.28
                              870.14   957.46  1092.79  1151.77  1194.20
                             1246.01  1250.50  1315.88  1356.78  1376.93
                             1416.28  1456.58  1518.76  1538.82  1563.51
                             1581.64  1599.97  1634.12  1681.22  1702.82
                             1749.32  1805.46  1857.42  1870.25  1893.53
                             1906.63  1944.44  1952.44  1976.68  1994.94
                             2008.05  2020.14  2028.09  2039.51  2088.45
                             2129.43  2146.47  2168.05  2179.93  2184.51
                             2192.68  2211.05  3261.78  4347.17  4369.24
                             4376.16  4386.64  4389.60  4390.44  4402.37
                             4429.32  4438.94  4441.80  4448.79  4455.14
                             4468.13  5335.81  5379.36

 Zero-point correction=                           0.241301 (Hartree/Particle)
 Thermal correction to Energy=                    0.254036
 Thermal correction to Enthalpy=                  0.254980
 Thermal correction to Gibbs Free Energy=         0.202582
 Sum of electronic and zero-point Energies=           -628.329740
 Sum of electronic and thermal Energies=              -628.317005
 Sum of electronic and thermal Enthalpies=            -628.316061
 Sum of electronic and thermal Free Energies=         -628.368459

                     E (Thermal)             CV                S
                      KCal/Mol        Cal/Mol-Kelvin    Cal/Mol-Kelvin
 Total                  159.410             49.444            110.281
 Electronic               0.000              0.000              0.000
 Translational            0.889              2.981             41.554
 Rotational               0.889              2.981             31.194
 Vibrational            157.632             43.482             37.533
 Vibration     1          0.595              1.979              4.937
 Vibration     2          0.600              1.961              3.814
 Vibration     3          0.604              1.948              3.431
 Vibration     4          0.615              1.913              2.806
 Vibration     5          0.618              1.905              2.695
 Vibration     6          0.626              1.879              2.430
 Vibration     7          0.654              1.789              1.851
 Vibration     8          0.672              1.734              1.617
 Vibration     9          0.694              1.669              1.402
 Vibration    10          0.699              1.655              1.364
 Vibration    11          0.720              1.595              1.212
 Vibration    12          0.745              1.526              1.063
 Vibration    13          0.766              1.470              0.962
 Vibration    14          0.775              1.447              0.924
 Vibration    15          0.789              1.411              0.867
 Vibration    16          0.839              1.289              0.703
 Vibration    17          0.855              1.251              0.660
 Vibration    18          0.869              1.218              0.623
 Vibration    19          0.927              1.094              0.503
 Vibration    20          0.942              1.063              0.475
 Vibration    21          0.963              1.022              0.442

 Optimization completed.
    -- Stationary point found.
 Normal termination of Gaussian 16 at Mon Dec 14 13:16:12 2020.

 ----------------------------------------------------------------------
 # B3LYP/6-311++G(d,p) empiricaldispersion=gd3bj scf=xqc pop=npa geom=c
 heck
 ----------------------------------------------------------------------

 ---------------------------------------
 CID_152210572_JID_3972_Energie_neutraal
 ---------------------------------------
 Structure from the checkpoint file:  "JID_3972.chk"
 Charge =  0 Multiplicity = 1

 SCF Done:  E(RB3LYP) =  -628.765810420     A.U. after   15 cycles
 Normal termination of Gaussian 16 at Mon Dec 14 13:19:07 2020.

 ----------------------------------------------------------------------
 # B3LYP/6-311++G(d,p) empiricaldispersion=gd3bj scf=xqc pop=npa geom=c
 heck
 ----------------------------------------------------------------------

 -------------------------------------
 CID_152210572_JID_3972_Energie_kation
 -------------------------------------
 Structure from the checkpoint file:  "JID_3972.chk"
 Charge =  1 Multiplicity = 2

 SCF Done:  E(UB3LYP) =  -628.439644443     A.U. after   25 cycles
 Normal termination of Gaussian 16 at Mon Dec 14 13:25:49 2020.
 Gaussian 16:  ES64L-G16RevA.03 25-Dec-2016

 ----------------------------------------------------------------------
 # B3LYP/6-311++G(d,p) empiricaldispersion=gd3bj scf=xqc pop=npa geom=c
 heck
 ----------------------------------------------------------------------

 ------------------------------------
 CID_152210572_JID_3972_Energie_anion
 ------------------------------------
 Structure from the checkpoint file:  "JID_3972.chk"
 Charge = -1 Multiplicity = 2

                         Standard orientation:
 ---------------------------------------------------------------------
 Center     Atomic      Atomic             Coordinates (Angstroms)
 Number     Number       Type             X           Y           Z
 ---------------------------------------------------------------------
      1          6           0        3.076020   -0.497353    0.646898
      2          6           0        2.707009   -0.757630   -0.818169
      3          6           0        1.290914   -1.328960   -0.933988
      4          6           0        0.227249   -0.422009   -0.281056
      5          6           0        0.621758   -0.115864    1.176663
      6          6           0        2.051502    0.427607    1.314038
      7          6           0       -1.147344   -1.120193   -0.383132
      8          6           0       -2.287882   -0.556484    0.457874
      9          8           0       -2.479280    0.788539    0.081064
     10          8           0       -3.471218   -1.310977    0.304313
     11          7           0        0.217961    0.814096   -1.133456
     12          7           0       -0.052178    1.886626   -0.596454
     13          7           0       -0.261656    2.941609   -0.211307
     14          1           0        4.080167   -0.062497    0.718087
     15          1           0        3.107378   -1.454373    1.188732
     16          1           0        2.760236    0.180548   -1.383898
     17          1           0        3.422284   -1.450468   -1.277293
     18          1           0        1.249088   -2.307822   -0.437880
     19          1           0        1.020951   -1.485997   -1.984788
     20          1           0        0.529948   -1.050837    1.746185
     21          1           0       -0.092196    0.590828    1.614462
     22          1           0        2.285723    0.557615    2.377338
     23          1           0        2.112028    1.424985    0.860527
     24          1           0       -1.455770   -1.107303   -1.436433
     25          1           0       -1.031134   -2.168961   -0.087988
     26          1           0       -2.062754   -0.637855    1.528499
     27          1           0       -3.181773    1.151233    0.644269
     28          1           0       -3.704435   -1.270590   -0.639092
 ---------------------------------------------------------------------

 SCF Done:  E(UB3LYP) =  -628.752873892     A.U. after   33 cycles
 SCF Done:  E(UB3LYP) =  -628.752873892     a.u. after    1 cycles

 The electronic state is 2-A.
 Alpha  occ. eigenvalues --  -19.03169 -19.02872 -14.36120 -14.25961 -14.24013
 Alpha  occ. eigenvalues --  -10.16873 -10.12531 -10.07089 -10.06671 -10.06621
 Alpha  occ. eigenvalues --  -10.06352 -10.06288 -10.06175  -1.02224  -0.96896
 Alpha  occ. eigenvalues --   -0.90015  -0.86562  -0.74196  -0.68251  -0.64673
 Alpha  occ. eigenvalues --   -0.61734  -0.54625  -0.51705  -0.51291  -0.47708
 Alpha  occ. eigenvalues --   -0.45508  -0.40522  -0.40223  -0.39188  -0.38314
 Alpha  occ. eigenvalues --   -0.36966  -0.34650  -0.34232  -0.33090  -0.32646
 Alpha  occ. eigenvalues --   -0.31995  -0.30064  -0.28872  -0.28095  -0.27492
 Alpha  occ. eigenvalues --   -0.26859  -0.24732  -0.23387  -0.22624  -0.22183
 Alpha  occ. eigenvalues --   -0.20924  -0.20521  -0.18998  -0.17934  -0.14066
 Alpha  occ. eigenvalues --    0.04626
 Alpha virt. eigenvalues --    0.06670   0.06932   0.07808   0.08420   0.08713
 Alpha virt. eigenvalues --    0.09780   0.10592   0.10757   0.11323   0.11759
 Alpha virt. eigenvalues --    0.12481   0.12952   0.13783   0.14130   0.14756

  Beta  occ. eigenvalues --  -19.03145 -19.02838 -14.36029 -14.25883 -14.24007
  Beta  occ. eigenvalues --  -10.16854 -10.12502 -10.07079 -10.06649 -10.06608
  Beta  occ. eigenvalues --  -10.06339 -10.06279 -10.06153  -1.02071  -0.96842
  Beta  occ. eigenvalues --   -0.89949  -0.86497  -0.74149  -0.68205  -0.64642
  Beta  occ. eigenvalues --   -0.61671  -0.54555  -0.51628  -0.51227  -0.47647
  Beta  occ. eigenvalues --   -0.45428  -0.40452  -0.39958  -0.39097  -0.38233
  Beta  occ. eigenvalues --   -0.36907  -0.34618  -0.34079  -0.32966  -0.32588
  Beta  occ. eigenvalues --   -0.31952  -0.30003  -0.28813  -0.28060  -0.27449
  Beta  occ. eigenvalues --   -0.26821  -0.24691  -0.23348  -0.22577  -0.22142
  Beta  occ. eigenvalues --   -0.20875  -0.20466  -0.18925  -0.17813  -0.14032
  Beta virt. eigenvalues --    0.07034   0.07492   0.07639   0.08586   0.09230
  Beta virt. eigenvalues --    0.09476   0.10090   0.11080   0.11325   0.11573
  Beta virt. eigenvalues --    0.12130   0.12740   0.13253   0.14118   0.14492

 Mulliken charges and spin densities:
               1          2
     1  C    0.982831  -1.294500
     2  C   -1.084632   0.587840
     3  C    0.445000  -0.707118
     4  C   -0.124272   0.802043
     5  C    0.167337  -0.701958
     6  C   -0.109678  -0.375036
     7  C   -0.584998  -0.089582
     8  C    1.442746  -1.743683
     9  O   -0.303321   0.048144
    10  O   -0.283692   0.087037
    11  N   -0.551183   0.204885
    12  N    0.555343   0.195205
    13  N    0.022601  -0.319441
    14  H   -0.266384   0.422293
    15  H   -0.129138   0.257996
    16  H    0.153759  -0.012663
    17  H   -0.190315   0.362105
    18  H   -0.320605   0.496491
    19  H    0.118394   0.034807
    20  H   -0.178360   0.368446
    21  H    0.019375   0.140102
    22  H   -0.347782   0.529144
    23  H    0.178203  -0.054170
    24  H    0.186959   0.029521
    25  H   -0.186956   0.371339
    26  H   -0.444816   0.675397
    27  H   -0.131146   0.402192
    28  H   -0.035269   0.283164
 Sum of Mulliken charges =  -1.00000   1.00000

 Dipole moment (field-independent basis, Debye):
    X=              0.6589    Y=              1.6352    Z=             -3.9816  Tot=              4.3544
 Quadrupole moment (field-independent basis, Debye-Ang):
   XX=           -137.2643   YY=           -123.9292   ZZ=           -112.4064
   XY=              5.5879   XZ=              0.6131   YZ=              3.0816

 Summary of Natural Population Analysis:

                                       Natural Population
                Natural  -----------------------------------------------
    Atom  No    Charge         Core      Valence    Rydberg      Total
 -----------------------------------------------------------------------
      C    1   -0.18871      0.99963     2.18081    0.00827     3.18871
      C    2   -0.19121      0.99962     2.18256    0.00902     3.19121
      C    3   -0.18947      0.99957     2.17888    0.01103     3.18947
      C    4    0.06362      0.99951     1.92183    0.01504     2.93638
      C    5   -0.20578      0.99957     2.19506    0.01114     3.20578
      C    6   -0.19011      0.99963     2.18093    0.00956     3.19011
      C    7   -0.21079      0.99954     2.19840    0.01285     3.21079
      C    8    0.21323      0.99961     1.76904    0.01812     2.78677
      O    9   -0.37510      0.99989     3.36778    0.00743     4.37510
      O   10   -0.36796      0.99990     3.36207    0.00599     4.36796
      N   11   -0.19229      0.99966     2.67852    0.01411     3.69229
      N   12    0.13244      0.99969     2.35172    0.01614     3.36756
      N   13   -0.05046      0.99982     2.53858    0.01207     3.55046
      H   14    0.09689      0.00000     0.40216    0.00094     0.40311
      H   15    0.09551      0.00000     0.40259    0.00190     0.40449
      H   16    0.09746      0.00000     0.40121    0.00133     0.40254
      H   17    0.09868      0.00000     0.40041    0.00091     0.40132
      H   18    0.10147      0.00000     0.39702    0.00151     0.39853
      H   19    0.10160      0.00000     0.39729    0.00111     0.39840
      H   20    0.10712      0.00000     0.39062    0.00226     0.39288
      H   21    0.10690      0.00000     0.39115    0.00195     0.39310
      H   22    0.10151      0.00000     0.39743    0.00106     0.39849
      H   23    0.09434      0.00000     0.40436    0.00131     0.40566
      H   24    0.10328      0.00000     0.39531    0.00141     0.39672
      H   25    0.11065      0.00000     0.38774    0.00161     0.38935
      H   26    0.07416      0.00000     0.42258    0.00326     0.42584
      H   27    0.23599      0.00000     0.25920    0.00481     0.26401
      H   28    0.22704      0.00000     0.26947    0.00349     0.27296
 =======================================================================
   * Total *    0.00002     12.99564    36.82473    0.17961    49.99998

 Normal termination of Gaussian 16 at Mon Dec 14 13:34:50 2020.
