 Gaussian 16, Revision A.03,

 -----------------------------------------------------------
 # opt freq B3LYP/6-31G(d) empiricaldispersion=gd3bj scf=xqc
 -----------------------------------------------------------

 -------------------------------
 CID_116989510_JID_7079_neutraal
 -------------------------------
 Symbolic Z-matrix:
 Charge =  0 Multiplicity = 1

 SCF Done:  E(RB3LYP) =  -781.081314780     A.U. after   15 cycles
 SCF Done:  E(RB3LYP) =  -781.088576719     A.U. after   12 cycles
 SCF Done:  E(RB3LYP) =  -781.089509382     A.U. after   12 cycles
 SCF Done:  E(RB3LYP) =  -781.088713264     A.U. after   13 cycles
 SCF Done:  E(RB3LYP) =  -781.089941956     A.U. after   12 cycles
 SCF Done:  E(RB3LYP) =  -781.090129489     A.U. after   11 cycles
 SCF Done:  E(RB3LYP) =  -781.090198678     A.U. after   11 cycles
 SCF Done:  E(RB3LYP) =  -781.090296895     A.U. after   12 cycles
 SCF Done:  E(RB3LYP) =  -781.090328966     A.U. after   12 cycles
 SCF Done:  E(RB3LYP) =  -781.090388563     A.U. after   11 cycles
 SCF Done:  E(RB3LYP) =  -781.090490340     A.U. after    9 cycles
 SCF Done:  E(RB3LYP) =  -781.090491487     A.U. after   10 cycles
 SCF Done:  E(RB3LYP) =  -781.090491826     A.U. after    9 cycles
 SCF Done:  E(RB3LYP) =  -781.090491832     A.U. after    7 cycles
 SCF Done:  E(RB3LYP) =  -781.090491833     A.U. after    7 cycles
 Optimization completed.
    -- Stationary point found.
 Normal termination of Gaussian 16 at Mon Dec 14 16:44:39 2020.

 --------------------------------------------------------------------
 #N Geom=AllCheck Guess=TCheck SCRF=Check GenChk RB3LYP/6-31G(d) Freq
 --------------------------------------------------------------------

 Structure from the checkpoint file:  "JID_7079.chk"
 -------------------------------
 CID_116989510_JID_7079_neutraal
 -------------------------------
 Charge =  0 Multiplicity = 1

 SCF Done:  E(RB3LYP) =  -781.090491833     A.U. after    1 cycles

  Exact polarizability: 200.554  -5.986 150.174 -11.916  -7.677  95.354
 Approx polarizability: 283.732 -10.444 244.047 -25.200 -20.153 152.241

                      1                      2                      3
                      A                      A                      A
 Frequencies --     13.8161                23.0155                62.1815
 Red. masses --      4.7192                 4.5550                 5.0649
 Frc consts  --      0.0005                 0.0014                 0.0115
 IR Inten    --      2.5091                 1.3965                 1.2136

                      4                      5                      6
                      A                      A                      A
 Frequencies --    116.8029               138.6396               151.7571
 Red. masses --      3.0072                 1.3627                 2.2457
 Frc consts  --      0.0242                 0.0154                 0.0305
 IR Inten    --      0.8700                 0.2495                 0.1698

                      7                      8                      9
                      A                      A                      A
 Frequencies --    165.5876               173.3738               190.1027
 Red. masses --      1.3751                 2.7867                 3.3965
 Frc consts  --      0.0222                 0.0494                 0.0723
 IR Inten    --      1.3475                 0.3825                 1.9300

                     10                     11                     12
                      A                      A                      A
 Frequencies --    220.7036               231.2126               248.1066
 Red. masses --      3.3203                 2.9895                 1.0933
 Frc consts  --      0.0953                 0.0942                 0.0397
 IR Inten    --      3.5962                 0.7499                 0.0319

                     13                     14                     15
                      A                      A                      A
 Frequencies --    270.1253               276.3505               296.8518
 Red. masses --      1.7025                 3.1002                 1.5893
 Frc consts  --      0.0732                 0.1395                 0.0825
 IR Inten    --      0.7273                 1.4090                 1.3016

                     16                     17                     18
                      A                      A                      A
 Frequencies --    325.0992               335.4356               365.1149
 Red. masses --      3.0406                 3.1953                 4.2299
 Frc consts  --      0.1893                 0.2118                 0.3322
 IR Inten    --      3.5911                 5.0884                 7.3096

                     19                     20                     21
                      A                      A                      A
 Frequencies --    396.5503               447.5909               516.6144
 Red. masses --      5.8460                 3.7876                 4.5369
 Frc consts  --      0.5416                 0.4471                 0.7134
 IR Inten    --      6.7421                 3.7130                 2.0914

                     22                     23                     24
                      A                      A                      A
 Frequencies --    526.6474               559.8233               562.2596
 Red. masses --      4.6824                 4.4414                 6.2943
 Frc consts  --      0.7652                 0.8201                 1.1724
 IR Inten    --      1.3187                 6.1035                 3.2890

                     25                     26                     27
                      A                      A                      A
 Frequencies --    596.4408               637.9806               681.2979
 Red. masses --      3.7877                 5.4050                 4.3130
 Frc consts  --      0.7939                 1.2962                 1.1795
 IR Inten    --      0.0794                 0.9510                 4.4431

                     28                     29                     30
                      A                      A                      A
 Frequencies --    740.7951               752.2823               779.0758
 Red. masses --      7.6189                 3.7507                 3.9323
 Frc consts  --      2.4634                 1.2506                 1.4062
 IR Inten    --     10.3043                 4.2100                 1.4833

                     31                     32                     33
                      A                      A                      A
 Frequencies --    790.0304               801.0312               852.0516
 Red. masses --      1.7702                 4.4150                 4.1661
 Frc consts  --      0.6510                 1.6691                 1.7820
 IR Inten    --     30.4159                12.2716                 8.5813

                     34                     35                     36
                      A                      A                      A
 Frequencies --    876.3198               881.3864               961.8976
 Red. masses --      4.1724                 1.3663                 2.8255
 Frc consts  --      1.8878                 0.6254                 1.5403
 IR Inten    --      2.4905                 0.2135                 4.1501

                     37                     38                     39
                      A                      A                      A
 Frequencies --    972.3099               978.6019               999.2347
 Red. masses --      1.4510                 1.2646                 1.9833
 Frc consts  --      0.8082                 0.7135                 1.1667
 IR Inten    --      0.9884                 0.2347                 3.6717

                     40                     41                     42
                      A                      A                      A
 Frequencies --   1023.6240              1030.1322              1053.8983
 Red. masses --      4.0653                 4.3743                 1.3947
 Frc consts  --      2.5097                 2.7349                 0.9127
 IR Inten    --     10.3358                 5.2027                 6.4578

                     43                     44                     45
                      A                      A                      A
 Frequencies --   1080.7450              1091.0867              1120.5718
 Red. masses --      1.5003                 2.1366                 2.0777
 Frc consts  --      1.0325                 1.4986                 1.5371
 IR Inten    --      3.9198                 1.5547                 3.1038

                     46                     47                     48
                      A                      A                      A
 Frequencies --   1183.8559              1186.1339              1188.0227
 Red. masses --      1.6202                 1.2943                 2.0914
 Frc consts  --      1.3378                 1.0729                 1.7391
 IR Inten    --     20.2053                 2.8612               231.9346

                     49                     50                     51
                      A                      A                      A
 Frequencies --   1203.6501              1221.1392              1231.9097
 Red. masses --      3.9560                 1.9875                 2.2674
 Frc consts  --      3.3768                 1.7461                 2.0274
 IR Inten    --     13.4959                44.8713                39.8433

                     52                     53                     54
                      A                      A                      A
 Frequencies --   1249.7858              1297.1248              1305.5854
 Red. masses --      4.9889                 1.8890                 4.2317
 Frc consts  --      4.5912                 1.8726                 4.2499
 IR Inten    --     45.1948                25.4496               194.3275

                     55                     56                     57
                      A                      A                      A
 Frequencies --   1323.5094              1360.8464              1419.0805
 Red. masses --      5.5843                 4.5911                 1.8765
 Frc consts  --      5.7634                 5.0094                 2.2264
 IR Inten    --     21.4523                67.4171                 8.9609

                     58                     59                     60
                      A                      A                      A
 Frequencies --   1425.0574              1443.3136              1447.2310
 Red. masses --      1.4339                 1.2998                 1.3043
 Frc consts  --      1.7156                 1.5954                 1.6095
 IR Inten    --      2.6745                13.3107                 0.6417

                     61                     62                     63
                      A                      A                      A
 Frequencies --   1459.0571              1486.7444              1492.2870
 Red. masses --      3.9387                 1.9516                 1.5054
 Frc consts  --      4.9402                 2.5417                 1.9751
 IR Inten    --      9.8048                38.8605                16.0008

                     64                     65                     66
                      A                      A                      A
 Frequencies --   1497.3145              1512.0686              1513.9191
 Red. masses --      1.0428                 1.0481                 1.0513
 Frc consts  --      1.3774                 1.4118                 1.4196
 IR Inten    --      8.2115                 5.7608                 7.4485

                     67                     68                     69
                      A                      A                      A
 Frequencies --   1516.2294              1522.0713              1523.7701
 Red. masses --      1.0757                 1.2304                 1.0464
 Frc consts  --      1.4570                 1.6794                 1.4314
 IR Inten    --      2.5558                 0.8222                 8.7226

                     70                     71                     72
                      A                      A                      A
 Frequencies --   1530.1313              1543.8323              1575.8488
 Red. masses --      1.0999                 1.1944                 4.2269
 Frc consts  --      1.5173                 1.6772                 6.1844
 IR Inten    --     11.1957                39.4258                73.9088

                     73                     74                     75
                      A                      A                      A
 Frequencies --   1605.3042              1697.3152              1816.3846
 Red. masses --      6.8284                 6.7779                11.5667
 Frc consts  --     10.3677                11.5046                22.4840
 IR Inten    --     44.5110                45.5806               173.9835

                     76                     77                     78
                      A                      A                      A
 Frequencies --   3061.6849              3064.0450              3069.1857
 Red. masses --      1.0362                 1.0367                 1.0376
 Frc consts  --      5.7232                 5.7347                 5.7588
 IR Inten    --     10.6502                12.2952                33.5437

                     79                     80                     81
                      A                      A                      A
 Frequencies --   3077.0364              3117.4696              3132.4106
 Red. masses --      1.0292                 1.1003                 1.1020
 Frc consts  --      5.7415                 6.3005                 6.3708
 IR Inten    --     35.7441                 5.7844                11.5731

                     82                     83                     84
                      A                      A                      A
 Frequencies --   3139.3749              3152.8250              3155.6299
 Red. masses --      1.1007                 1.1074                 1.1032
 Frc consts  --      6.3913                 6.4859                 6.4724
 IR Inten    --     44.8914                19.2454                13.5362

                     85                     86                     87
                      A                      A                      A
 Frequencies --   3164.6503              3167.3360              3183.1249
 Red. masses --      1.1019                 1.1024                 1.1074
 Frc consts  --      6.5022                 6.5162                 6.6112
 IR Inten    --     13.7103                 9.5146                18.6680

                     88                     89                     90
                      A                      A                      A
 Frequencies --   3207.5162              3227.0193              3242.6880
 Red. masses --      1.0884                 1.0927                 1.0948
 Frc consts  --      6.5976                 6.7045                 6.7823
 IR Inten    --      8.0221                 7.8685                 3.2062

 - Thermochemistry -
 -------------------
 Temperature   298.150 Kelvin.  Pressure   1.00000 Atm.
 Atom     1 has atomic number  6 and mass  12.00000

 Molecular mass:   233.11643 amu.
 Principal axes and moments of inertia in atomic units:
                           1         2         3
     Eigenvalues --  1841.982296330.283377144.56085
           X            0.99994   0.00794  -0.00689
           Y           -0.00788   0.99993   0.00840
           Z            0.00696  -0.00835   0.99994
 This molecule is an asymmetric top.
 Rotational symmetry number  1.
 Warning -- assumption of classical behavior for rotation
           may cause significant error
 Rotational temperatures (Kelvin)      0.04702     0.01368     0.01212
 Rotational constants (GHZ):           0.97978     0.28510     0.25260
 Zero-point vibrational energy     689378.5 (Joules/Mol)
                                  164.76540 (Kcal/Mol)
 Warning -- explicit consideration of  25 degrees of freedom as
           vibrations may cause significant error
 Vibrational temperatures:     19.88    33.11    89.47   168.05   199.47
          (Kelvin)            218.34   238.24   249.45   273.52   317.54
                              332.66   356.97   388.65   397.61   427.10
                              467.75   482.62   525.32   570.55   643.98
                              743.29   757.73   805.46   808.97   858.15
                              917.91   980.24  1065.84  1082.37  1120.92
                             1136.68  1152.51  1225.91  1260.83  1268.12
                             1383.96  1398.94  1407.99  1437.68  1472.77
                             1482.13  1516.32  1554.95  1569.83  1612.25
                             1703.30  1706.58  1709.30  1731.78  1756.95
                             1772.44  1798.16  1866.27  1878.45  1904.23
                             1957.95  2041.74  2050.34  2076.61  2082.24
                             2099.26  2139.09  2147.07  2154.30  2175.53
                             2178.19  2181.52  2189.92  2192.37  2201.52
                             2221.23  2267.29  2309.67  2442.06  2613.37
                             4405.08  4408.48  4415.87  4427.17  4485.34
                             4506.84  4516.86  4536.21  4540.25  4553.23
                             4557.09  4579.81  4614.90  4642.96  4665.50

 Zero-point correction=                           0.262570 (Hartree/Particle)
 Thermal correction to Energy=                    0.278775
 Thermal correction to Enthalpy=                  0.279719
 Thermal correction to Gibbs Free Energy=         0.217515
 Sum of electronic and zero-point Energies=           -780.827921
 Sum of electronic and thermal Energies=              -780.811717
 Sum of electronic and thermal Enthalpies=            -780.810773
 Sum of electronic and thermal Free Energies=         -780.872977

                     E (Thermal)             CV                S
                      KCal/Mol        Cal/Mol-Kelvin    Cal/Mol-Kelvin
 Total                  174.934             60.764            130.920
 Electronic               0.000              0.000              0.000
 Translational            0.889              2.981             42.241
 Rotational               0.889              2.981             32.788
 Vibrational            173.156             54.802             55.891
 Vibration     1          0.593              1.986              7.369
 Vibration     2          0.593              1.985              6.355
 Vibration     3          0.597              1.972              4.387
 Vibration     4          0.608              1.935              3.153
 Vibration     5          0.614              1.915              2.823
 Vibration     6          0.619              1.901              2.650
 Vibration     7          0.624              1.885              2.485
 Vibration     8          0.627              1.875              2.399
 Vibration     9          0.633              1.854              2.227
 Vibration    10          0.647              1.810              1.953
 Vibration    11          0.653              1.793              1.870
 Vibration    12          0.662              1.766              1.744
 Vibration    13          0.674              1.728              1.595
 Vibration    14          0.678              1.717              1.556
 Vibration    15          0.691              1.680              1.435
 Vibration    16          0.709              1.625              1.284
 Vibration    17          0.717              1.605              1.234
 Vibration    18          0.738              1.544              1.100
 Vibration    19          0.763              1.478              0.975
 Vibration    20          0.807              1.366              0.803
 Vibration    21          0.872              1.213              0.618
 Vibration    22          0.882              1.191              0.595
 Vibration    23          0.915              1.118              0.524
 Vibration    24          0.918              1.113              0.519
 Vibration    25          0.954              1.039              0.456

                           ! Non-Optimized Parameters !
 Normal termination of Gaussian 16 at Mon Dec 14 16:56:05 2020.

 ----------------------------------------------------------------------
 # B3LYP/6-311++G(d,p) empiricaldispersion=gd3bj scf=xqc pop=npa geom=c
 heck
 ----------------------------------------------------------------------

 ---------------------------------------
 CID_116989510_JID_7079_Energie_neutraal
 ---------------------------------------
 Structure from the checkpoint file:  "JID_7079.chk"
 Charge =  0 Multiplicity = 1

 SCF Done:  E(RB3LYP) =  -781.301148940     A.U. after   16 cycles
 Normal termination of Gaussian 16 at Mon Dec 14 17:01:40 2020.

 ----------------------------------------------------------------------
 # B3LYP/6-311++G(d,p) empiricaldispersion=gd3bj scf=xqc pop=npa geom=c
 heck
 ----------------------------------------------------------------------

 -------------------------------------
 CID_116989510_JID_7079_Energie_kation
 -------------------------------------
 Structure from the checkpoint file:  "JID_7079.chk"
 Charge =  1 Multiplicity = 2

 SCF Done:  E(UB3LYP) =  -780.997501259     A.U. after   25 cycles
 Normal termination of Gaussian 16 at Mon Dec 14 17:14:21 2020.
 Gaussian 16:  ES64L-G16RevA.03 25-Dec-2016

 ----------------------------------------------------------------------
 # B3LYP/6-311++G(d,p) empiricaldispersion=gd3bj scf=xqc pop=npa geom=c
 heck
 ----------------------------------------------------------------------

 ------------------------------------
 CID_116989510_JID_7079_Energie_anion
 ------------------------------------
 Structure from the checkpoint file:  "JID_7079.chk"
 Charge = -1 Multiplicity = 2

                         Standard orientation:
 ---------------------------------------------------------------------
 Center     Atomic      Atomic             Coordinates (Angstroms)
 Number     Number       Type             X           Y           Z
 ---------------------------------------------------------------------
      1          6           0        3.409518    1.977597   -0.633171
      2          6           0        3.117229    0.552480   -0.294675
      3          6           0        4.028352   -0.476200   -0.244507
      4          6           0        3.628985   -1.796794    0.086568
      5          6           0        2.314969   -2.093213    0.368516
      6          6           0        1.370327   -1.047848    0.320977
      7          7           0        0.052542   -0.998194    0.534911
      8          6           0       -0.251604    0.306400    0.322319
      9          7           0        0.771204    1.100550   -0.006814
     10          7           0        1.817312    0.230153   -0.008116
     11          6           0       -1.663862    0.821465    0.476285
     12          6           0       -2.092438    0.659048    1.946182
     13          6           0       -1.765738    2.293192    0.035927
     14          6           0       -2.521455   -0.008840   -0.494352
     15          8           0       -2.372198    0.003112   -1.696985
     16          8           0       -3.467820   -0.737223    0.127807
     17          6           0       -4.277038   -1.546542   -0.739597
     18          1           0        2.827170    2.293593   -1.505628
     19          1           0        4.473688    2.106508   -0.843062
     20          1           0        3.120871    2.638315    0.191707
     21          1           0        5.066880   -0.258488   -0.466453
     22          1           0        4.377944   -2.581956    0.114795
     23          1           0        1.980182   -3.091589    0.622695
     24          1           0       -1.449037    1.278364    2.580145
     25          1           0       -3.129101    0.979587    2.083020
     26          1           0       -2.002019   -0.380685    2.265678
     27          1           0       -1.485022    2.400992   -1.013258
     28          1           0       -2.792756    2.650027    0.167487
     29          1           0       -1.099366    2.912967    0.641361
     30          1           0       -4.808199   -0.921169   -1.461799
     31          1           0       -3.652808   -2.261967   -1.280660
     32          1           0       -4.979158   -2.063640   -0.085298
 ---------------------------------------------------------------------

 SCF Done:  E(UB3LYP) =  -781.294035848     A.U. after   33 cycles
 SCF Done:  E(UB3LYP) =  -781.294035848     a.u. after    1 cycles

 The electronic state is 2-A.
 Alpha  occ. eigenvalues --  -19.06529 -19.00139 -14.27006 -14.20566 -14.16636
 Alpha  occ. eigenvalues --  -10.19153 -10.12179 -10.10984 -10.10045 -10.09474
 Alpha  occ. eigenvalues --  -10.08411 -10.06409 -10.05733 -10.05457 -10.05187
 Alpha  occ. eigenvalues --  -10.04761 -10.03528  -1.00423  -0.95124  -0.91352
 Alpha  occ. eigenvalues --   -0.79464  -0.74627  -0.71407  -0.65879  -0.65027
 Alpha  occ. eigenvalues --   -0.62464  -0.58711  -0.58141  -0.54085  -0.50651
 Alpha  occ. eigenvalues --   -0.49902  -0.47704  -0.44553  -0.40119  -0.39492
 Alpha  occ. eigenvalues --   -0.38249  -0.37174  -0.36937  -0.35803  -0.35276
 Alpha  occ. eigenvalues --   -0.32973  -0.32889  -0.31310  -0.30610  -0.30131
 Alpha  occ. eigenvalues --   -0.29537  -0.29026  -0.28203  -0.27056  -0.26299
 Alpha  occ. eigenvalues --   -0.25545  -0.25089  -0.24194  -0.23726  -0.21683
 Alpha  occ. eigenvalues --   -0.20376  -0.19852  -0.19667  -0.17051  -0.15480
 Alpha  occ. eigenvalues --   -0.13214  -0.10470   0.04984
 Alpha virt. eigenvalues --    0.06322   0.07523   0.08059   0.08803   0.09334
 Alpha virt. eigenvalues --    0.09965   0.10354   0.10804   0.10989   0.11538
 Alpha virt. eigenvalues --    0.11600   0.12405   0.12650   0.13217   0.13669

  Beta  occ. eigenvalues --  -19.06520 -19.00126 -14.26832 -14.20613 -14.16564
  Beta  occ. eigenvalues --  -10.19144 -10.12150 -10.11033 -10.09976 -10.09480
  Beta  occ. eigenvalues --  -10.08000 -10.06442 -10.05726 -10.05442 -10.05263
  Beta  occ. eigenvalues --  -10.04563 -10.03243  -1.00405  -0.94915  -0.91329
  Beta  occ. eigenvalues --   -0.79183  -0.74479  -0.71302  -0.65419  -0.64805
  Beta  occ. eigenvalues --   -0.62412  -0.58577  -0.58034  -0.53989  -0.50479
  Beta  occ. eigenvalues --   -0.49646  -0.47457  -0.44520  -0.39965  -0.39363
  Beta  occ. eigenvalues --   -0.38179  -0.37105  -0.36770  -0.35371  -0.35024
  Beta  occ. eigenvalues --   -0.32869  -0.32792  -0.31090  -0.30333  -0.30092
  Beta  occ. eigenvalues --   -0.29480  -0.28913  -0.28177  -0.27027  -0.26154
  Beta  occ. eigenvalues --   -0.25426  -0.25038  -0.24127  -0.23670  -0.20891
  Beta  occ. eigenvalues --   -0.20274  -0.19617  -0.19060  -0.17010  -0.15421
  Beta  occ. eigenvalues --   -0.12634  -0.09123
  Beta virt. eigenvalues --    0.07095   0.07487   0.08224   0.08783   0.09614
  Beta virt. eigenvalues --    0.09935   0.10023   0.10628   0.10932   0.11173
  Beta virt. eigenvalues --    0.11561   0.11648   0.12371   0.12783   0.13207

 Mulliken charges and spin densities:
               1          2
     1  C   -0.636852  -0.119737
     2  C    0.140959   0.251700
     3  C   -0.252850   0.060064
     4  C   -0.206671   0.050812
     5  C   -0.401690   0.360185
     6  C    0.654763  -0.323893
     7  N   -0.009159   0.043616
     8  C   -0.205889  -0.777506
     9  N    0.176692   0.010841
    10  N    0.024549   0.029540
    11  C    0.069403   0.807459
    12  C   -0.161185  -0.472569
    13  C   -0.361772  -0.208115
    14  C   -0.838890   0.392162
    15  O   -0.229646   0.004935
    16  O   -0.013249   0.042272
    17  C    0.598760  -0.822190
    18  H    0.114520   0.060318
    19  H    0.114844   0.015506
    20  H    0.156011   0.009723
    21  H    0.090606   0.030075
    22  H    0.124506  -0.008005
    23  H    0.105382   0.010458
    24  H    0.137916   0.007385
    25  H   -0.145419   0.310258
    26  H    0.172237   0.019995
    27  H    0.162449   0.026047
    28  H   -0.018127   0.173483
    29  H    0.166216  -0.002507
    30  H   -0.153309   0.321325
    31  H    0.044579   0.132087
    32  H   -0.419683   0.564277
 Sum of Mulliken charges =  -1.00000   1.00000

 Dipole moment (field-independent basis, Debye):
    X=              3.3296    Y=              2.4051    Z=              0.6525  Tot=              4.1589
 Quadrupole moment (field-independent basis, Debye-Ang):
   XX=           -164.4632   YY=           -123.1928   ZZ=           -123.5215
   XY=             -2.4832   XZ=             -0.6148   YZ=              2.0403

 Summary of Natural Population Analysis:

                                       Natural Population
                Natural  -----------------------------------------------
    Atom  No    Charge         Core      Valence    Rydberg      Total
 -----------------------------------------------------------------------
      C    1   -0.30194      0.99965     2.29749    0.00481     3.30194
      C    2    0.17514      0.99954     1.81579    0.00953     2.82486
      C    3   -0.15191      0.99953     2.14377    0.00861     3.15191
      C    4   -0.05866      0.99959     2.04981    0.00927     3.05866
      C    5   -0.08058      0.99953     2.07173    0.00932     3.08058
      C    6    0.17926      0.99958     1.80606    0.01510     2.82074
      N    7   -0.27448      0.99967     2.76558    0.00923     3.77448
      C    8    0.20286      0.99960     1.77681    0.02073     2.79714
      N    9   -0.19403      0.99969     2.68387    0.01048     3.69403
      N   10   -0.07810      0.99957     2.56791    0.01063     3.57810
      C   11   -0.09583      0.99948     2.08405    0.01230     3.09583
      C   12   -0.28005      0.99964     2.27269    0.00772     3.28005
      C   13   -0.27789      0.99965     2.27243    0.00581     3.27789
      C   14    0.42650      0.99963     1.54575    0.02811     2.57350
      O   15   -0.30867      0.99987     3.30345    0.00535     4.30867
      O   16   -0.27587      0.99986     3.26652    0.00949     4.27587
      C   17   -0.10494      0.99959     2.09605    0.00930     3.10494
      H   18    0.11095      0.00000     0.38765    0.00140     0.38905
      H   19    0.09720      0.00000     0.40187    0.00094     0.40280
      H   20    0.10874      0.00000     0.39010    0.00115     0.39126
      H   21    0.09598      0.00000     0.40283    0.00119     0.40402
      H   22    0.09024      0.00000     0.40828    0.00148     0.40976
      H   23    0.10005      0.00000     0.39887    0.00108     0.39995
      H   24    0.09803      0.00000     0.40121    0.00077     0.40197
      H   25    0.09953      0.00000     0.39932    0.00115     0.40047
      H   26    0.11223      0.00000     0.38643    0.00134     0.38777
      H   27    0.11202      0.00000     0.38700    0.00098     0.38798
      H   28    0.09485      0.00000     0.40429    0.00085     0.40515
      H   29    0.10460      0.00000     0.39448    0.00092     0.39540
      H   30    0.09058      0.00000     0.40799    0.00143     0.40942
      H   31    0.09244      0.00000     0.40649    0.00107     0.40756
      H   32    0.09174      0.00000     0.40685    0.00141     0.40826
 =======================================================================
   * Total *   -0.00000     16.99367    44.80338    0.20295    62.00000

 Normal termination of Gaussian 16 at Mon Dec 14 17:31:40 2020.
