 Gaussian 16, Revision A.03,

 -----------------------------------------------------------
 # opt freq B3LYP/6-31G(d) empiricaldispersion=gd3bj scf=xqc
 -----------------------------------------------------------

 ------------------------------
 CID_80079935_JID_9179_neutraal
 ------------------------------
 Symbolic Z-matrix:
 Charge =  0 Multiplicity = 1

 SCF Done:  E(RB3LYP) =  -842.431029176     A.U. after   14 cycles
 SCF Done:  E(RB3LYP) =  -842.436318682     A.U. after   12 cycles
 SCF Done:  E(RB3LYP) =  -842.436854301     A.U. after   11 cycles
 SCF Done:  E(RB3LYP) =  -842.437039806     A.U. after   11 cycles
 SCF Done:  E(RB3LYP) =  -842.437099327     A.U. after   10 cycles
 SCF Done:  E(RB3LYP) =  -842.437137931     A.U. after   11 cycles
 SCF Done:  E(RB3LYP) =  -842.437152222     A.U. after   10 cycles
 SCF Done:  E(RB3LYP) =  -842.437172768     A.U. after   11 cycles
 SCF Done:  E(RB3LYP) =  -842.437191529     A.U. after   11 cycles
 SCF Done:  E(RB3LYP) =  -842.437199979     A.U. after   10 cycles
 SCF Done:  E(RB3LYP) =  -842.437288997     A.U. after    9 cycles
 SCF Done:  E(RB3LYP) =  -842.437291998     A.U. after   10 cycles
 SCF Done:  E(RB3LYP) =  -842.437292246     A.U. after    9 cycles
 SCF Done:  E(RB3LYP) =  -842.437292400     A.U. after    9 cycles
 SCF Done:  E(RB3LYP) =  -842.437292415     A.U. after    6 cycles
 Optimization completed.
    -- Stationary point found.
 Normal termination of Gaussian 16 at Mon Dec 14 17:04:53 2020.

 --------------------------------------------------------------------
 #N Geom=AllCheck Guess=TCheck SCRF=Check GenChk RB3LYP/6-31G(d) Freq
 --------------------------------------------------------------------

 Structure from the checkpoint file:  "JID_9179.chk"
 ------------------------------
 CID_80079935_JID_9179_neutraal
 ------------------------------
 Charge =  0 Multiplicity = 1

 SCF Done:  E(RB3LYP) =  -842.437292415     A.U. after    1 cycles

  Exact polarizability: 259.232 -10.085 181.612  -4.744   6.313 115.237
 Approx polarizability: 359.550 -11.946 296.167 -15.716  13.843 177.239

                      1                      2                      3
                      A                      A                      A
 Frequencies --     17.4289                28.3485                42.4140
 Red. masses --      4.0245                 3.7213                 1.0544
 Frc consts  --      0.0007                 0.0018                 0.0011
 IR Inten    --      0.5257                 0.3700                 0.2350

                      4                      5                      6
                      A                      A                      A
 Frequencies --     44.4956                79.2216                81.2467
 Red. masses --      3.9879                 3.2601                 3.2664
 Frc consts  --      0.0047                 0.0121                 0.0127
 IR Inten    --      0.6149                 4.4845                 4.3549

                      7                      8                      9
                      A                      A                      A
 Frequencies --    140.8713               141.9866               167.5736
 Red. masses --      3.3936                 3.4239                 3.9304
 Frc consts  --      0.0397                 0.0407                 0.0650
 IR Inten    --      1.2532                 0.8238                 3.2950

                     10                     11                     12
                      A                      A                      A
 Frequencies --    173.4009               186.4746               209.5168
 Red. masses --      1.1741                 4.0418                 3.5663
 Frc consts  --      0.0208                 0.0828                 0.0922
 IR Inten    --      0.3098                 6.0589                 2.4933

                     13                     14                     15
                      A                      A                      A
 Frequencies --    253.2358               257.5187               284.5519
 Red. masses --      1.4756                 2.7066                 2.0618
 Frc consts  --      0.0558                 0.1058                 0.0984
 IR Inten    --      1.0443                 0.3342                 9.6146

                     16                     17                     18
                      A                      A                      A
 Frequencies --    306.5835               319.1566               347.6692
 Red. masses --      2.0160                 3.6967                 3.6391
 Frc consts  --      0.1116                 0.2219                 0.2592
 IR Inten    --      9.3617                 3.0351                 8.3534

                     19                     20                     21
                      A                      A                      A
 Frequencies --    351.2036               374.3029               416.1669
 Red. masses --      2.1836                 4.7454                 4.0956
 Frc consts  --      0.1587                 0.3917                 0.4179
 IR Inten    --      3.4506                 1.2093                 1.4255

                     22                     23                     24
                      A                      A                      A
 Frequencies --    446.7641               454.0921               476.6675
 Red. masses --      3.7202                 3.4251                 4.7164
 Frc consts  --      0.4375                 0.4161                 0.6314
 IR Inten    --      1.0757                22.8531                11.7788

                     25                     26                     27
                      A                      A                      A
 Frequencies --    494.7463               540.5083               552.5889
 Red. masses --      3.1850                 5.5861                 5.1351
 Frc consts  --      0.4593                 0.9615                 0.9238
 IR Inten    --     20.0444                 1.1074                 9.6701

                     28                     29                     30
                      A                      A                      A
 Frequencies --    583.9373               591.2998               625.3619
 Red. masses --      4.4774                 3.6359                 2.7263
 Frc consts  --      0.8995                 0.7490                 0.6282
 IR Inten    --     12.2447                 6.3050                15.1777

                     31                     32                     33
                      A                      A                      A
 Frequencies --    649.4865               688.1455               718.2322
 Red. masses --      3.9608                 2.7707                 3.5327
 Frc consts  --      0.9844                 0.7730                 1.0737
 IR Inten    --      1.7848                35.0347                27.1806

                     34                     35                     36
                      A                      A                      A
 Frequencies --    731.9488               746.7046               767.0465
 Red. masses --      4.4980                 4.4369                 2.6143
 Frc consts  --      1.4198                 1.4576                 0.9062
 IR Inten    --     16.4312                 8.6120                18.2217

                     37                     38                     39
                      A                      A                      A
 Frequencies --    782.7488               812.2927               823.8577
 Red. masses --      1.6666                 1.5970                 1.6463
 Frc consts  --      0.6016                 0.6208                 0.6583
 IR Inten    --    154.1906                51.0002                65.7817

                     40                     41                     42
                      A                      A                      A
 Frequencies --    843.1881               876.9333               880.4216
 Red. masses --      3.5212                 1.4969                 1.8311
 Frc consts  --      1.4750                 0.6782                 0.8363
 IR Inten    --     31.9317                35.8285                37.6381

                     43                     44                     45
                      A                      A                      A
 Frequencies --    891.8182               911.1438               933.6707
 Red. masses --      1.4800                 1.2850                 1.3796
 Frc consts  --      0.6935                 0.6285                 0.7086
 IR Inten    --     18.0049                 1.9100                 1.6657

                     46                     47                     48
                      A                      A                      A
 Frequencies --    939.8289               981.7688              1042.2779
 Red. masses --      3.6852                 2.4338                 1.6720
 Frc consts  --      1.9179                 1.3822                 1.0702
 IR Inten    --      6.0753                 8.5475                 5.9846

                     49                     50                     51
                      A                      A                      A
 Frequencies --   1047.8134              1074.5003              1080.4803
 Red. masses --      4.1688                 1.4767                 3.4949
 Frc consts  --      2.6967                 1.0045                 2.4039
 IR Inten    --     55.2282                 6.0387                23.1291

                     52                     53                     54
                      A                      A                      A
 Frequencies --   1114.3760              1152.8573              1185.6839
 Red. masses --      1.6179                 2.0716                 1.2891
 Frc consts  --      1.1838                 1.6222                 1.0677
 IR Inten    --      5.0314                91.3655                25.0991

                     55                     56                     57
                      A                      A                      A
 Frequencies --   1187.2302              1188.7304              1192.3625
 Red. masses --      1.2713                 1.2737                 2.0100
 Frc consts  --      1.0558                 1.0604                 1.6837
 IR Inten    --      0.7350                 3.8875                30.5867

                     58                     59                     60
                      A                      A                      A
 Frequencies --   1194.2108              1219.8260              1235.4854
 Red. masses --      1.8085                 1.3733                 1.6622
 Frc consts  --      1.5196                 1.2040                 1.4949
 IR Inten    --     99.3124                18.5355               135.9614

                     61                     62                     63
                      A                      A                      A
 Frequencies --   1237.9321              1264.0510              1316.4644
 Red. masses --      1.7188                 2.1965                 2.5858
 Frc consts  --      1.5519                 2.0678                 2.6403
 IR Inten    --     18.4900                14.2541                81.1586

                     64                     65                     66
                      A                      A                      A
 Frequencies --   1319.2933              1321.5147              1340.3423
 Red. masses --      4.1257                 2.8267                 1.5723
 Frc consts  --      4.2309                 2.9085                 1.6643
 IR Inten    --     41.1984               234.6606                 6.4981

                     67                     68                     69
                      A                      A                      A
 Frequencies --   1374.9635              1401.6597              1442.6212
 Red. masses --      6.3511                 3.7741                 1.2497
 Frc consts  --      7.0743                 4.3687                 1.5324
 IR Inten    --     20.5538                13.8976                 0.9115

                     70                     71                     72
                      A                      A                      A
 Frequencies --   1456.1862              1483.4997              1495.4264
 Red. masses --      2.3056                 2.5922                 1.4000
 Frc consts  --      2.8805                 3.3612                 1.8446
 IR Inten    --     55.1728                 9.3864                53.5914

                     73                     74                     75
                      A                      A                      A
 Frequencies --   1509.1553              1512.0950              1516.6798
 Red. masses --      1.6716                 1.3845                 1.0527
 Frc consts  --      2.2432                 1.8651                 1.4267
 IR Inten    --     12.9239                 7.5873                 4.5639

                     76                     77                     78
                      A                      A                      A
 Frequencies --   1516.7401              1520.2101              1529.8783
 Red. masses --      1.0601                 1.0479                 1.1600
 Frc consts  --      1.4369                 1.4269                 1.5997
 IR Inten    --      1.6392                 5.2936                19.7246

                     79                     80                     81
                      A                      A                      A
 Frequencies --   1535.4247              1537.6296              1559.0625
 Red. masses --      1.0683                 1.0814                 2.8758
 Frc consts  --      1.4838                 1.5064                 4.1185
 IR Inten    --      4.1359                65.3882               209.5115

                     82                     83                     84
                      A                      A                      A
 Frequencies --   1573.4323              1639.8263              1650.6866
 Red. masses --      2.8221                 5.2059                 4.4148
 Frc consts  --      4.1165                 8.2478                 7.0874
 IR Inten    --    373.5553                16.1113                30.0821

                     85                     86                     87
                      A                      A                      A
 Frequencies --   1663.3054              1678.4264              1693.1970
 Red. masses --      2.2396                 5.0914                 1.9952
 Frc consts  --      3.6505                 8.4507                 3.3702
 IR Inten    --     17.2882                19.7938                92.9990

                     88                     89                     90
                      A                      A                      A
 Frequencies --   3021.4773              3031.6713              3036.0690
 Red. masses --      1.0351                 1.0323                 1.0396
 Frc consts  --      5.5674                 5.5899                 5.6461
 IR Inten    --     63.2703                42.6208                45.9799

                     91                     92                     93
                      A                      A                      A
 Frequencies --   3078.2246              3087.8495              3094.6017
 Red. masses --      1.1064                 1.0979                 1.1072
 Frc consts  --      6.1769                 6.1680                 6.2470
 IR Inten    --     45.6842                25.4528                34.2430

                     94                     95                     96
                      A                      A                      A
 Frequencies --   3120.1470              3153.9120              3156.8825
 Red. masses --      1.1010                 1.1022                 1.0993
 Frc consts  --      6.3149                 6.4598                 6.4548
 IR Inten    --     21.5352                31.3343                31.3117

                     97                     98                     99
                      A                      A                      A
 Frequencies --   3168.4215              3190.8960              3200.8343
 Red. masses --      1.0873                 1.0934                 1.0894
 Frc consts  --      6.4310                 6.5591                 6.5763
 IR Inten    --     21.6841                33.3412                 8.4797

                    100                    101                    102
                      A                      A                      A
 Frequencies --   3209.2264              3225.4759              3232.5313
 Red. masses --      1.0887                 1.0915                 1.0920
 Frc consts  --      6.6065                 6.6903                 6.7231
 IR Inten    --      7.6325                 2.0935                 9.9676

                    103                    104                    105
                      A                      A                      A
 Frequencies --   3494.5723              3530.1186              3605.6931
 Red. masses --      1.0507                 1.0739                 1.0936
 Frc consts  --      7.5599                 7.8846                 8.3773
 IR Inten    --      7.4366                34.8801                 9.2323

 - Thermochemistry -
 -------------------
 Temperature   298.150 Kelvin.  Pressure   1.00000 Atm.
 Atom     1 has atomic number  6 and mass  12.00000

 Molecular mass:   258.13683 amu.
 Principal axes and moments of inertia in atomic units:
                           1         2         3
     Eigenvalues --  2902.084298636.83034**********
           X            0.99998  -0.00612   0.00297
           Y            0.00612   0.99998  -0.00122
           Z           -0.00296   0.00124   0.99999
 This molecule is an asymmetric top.
 Rotational symmetry number  1.
 Warning -- assumption of classical behavior for rotation
           may cause significant error
 Rotational temperatures (Kelvin)      0.02985     0.01003     0.00853
 Rotational constants (GHZ):           0.62188     0.20896     0.17777
 Zero-point vibrational energy     811144.2 (Joules/Mol)
                                  193.86811 (Kcal/Mol)
 Warning -- explicit consideration of  29 degrees of freedom as
           vibrations may cause significant error
 Vibrational temperatures:     25.08    40.79    61.02    64.02   113.98
          (Kelvin)            116.90   202.68   204.29   241.10   249.49
                              268.30   301.45   364.35   370.51   409.41
                              441.11   459.20   500.22   505.30   538.54
                              598.77   642.79   653.34   685.82   711.83
                              777.67   795.05   840.16   850.75   899.76
                              934.47   990.09  1033.38  1053.11  1074.34
                             1103.61  1126.20  1168.71  1185.35  1213.16
                             1261.71  1266.73  1283.13  1310.93  1343.34
                             1352.20  1412.55  1499.61  1507.57  1545.97
                             1554.57  1603.34  1658.70  1705.93  1708.16
                             1710.32  1715.54  1718.20  1755.06  1777.59
                             1781.11  1818.69  1894.10  1898.17  1901.36
                             1928.45  1978.27  2016.68  2075.61  2095.13
                             2134.43  2151.59  2171.34  2175.57  2182.16
                             2182.25  2187.24  2201.15  2209.13  2212.31
                             2243.14  2263.82  2359.34  2374.97  2393.13
                             2414.88  2436.13  4347.23  4361.90  4368.23
                             4428.88  4442.73  4452.44  4489.20  4537.78
                             4542.05  4558.65  4590.99  4605.29  4617.36
                             4640.74  4650.89  5027.91  5079.05  5187.79

 Zero-point correction=                           0.308948 (Hartree/Particle)
 Thermal correction to Energy=                    0.327629
 Thermal correction to Enthalpy=                  0.328573
 Thermal correction to Gibbs Free Energy=         0.260227
 Sum of electronic and zero-point Energies=           -842.128344
 Sum of electronic and thermal Energies=              -842.109663
 Sum of electronic and thermal Enthalpies=            -842.108719
 Sum of electronic and thermal Free Energies=         -842.177065

                     E (Thermal)             CV                S
                      KCal/Mol        Cal/Mol-Kelvin    Cal/Mol-Kelvin
 Total                  205.590             70.564            143.847
 Electronic               0.000              0.000              0.000
 Translational            0.889              2.981             42.545
 Rotational               0.889              2.981             33.897
 Vibrational            203.813             64.603             67.405
 Vibration     1          0.593              1.986              6.907
 Vibration     2          0.593              1.984              5.942
 Vibration     3          0.595              1.980              5.143
 Vibration     4          0.595              1.980              5.048
 Vibration     5          0.600              1.963              3.910
 Vibration     6          0.600              1.962              3.861
 Vibration     7          0.615              1.912              2.792
 Vibration     8          0.615              1.911              2.777
 Vibration     9          0.624              1.882              2.463
 Vibration    10          0.627              1.875              2.398
 Vibration    11          0.632              1.858              2.263
 Vibration    12          0.642              1.826              2.048
 Vibration    13          0.664              1.757              1.708
 Vibration    14          0.667              1.750              1.679
 Vibration    15          0.683              1.702              1.506
 Vibration    16          0.697              1.661              1.381
 Vibration    17          0.705              1.637              1.314
 Vibration    18          0.725              1.580              1.177
 Vibration    19          0.728              1.573              1.161
 Vibration    20          0.745              1.525              1.062
 Vibration    21          0.779              1.435              0.905
 Vibration    22          0.806              1.368              0.806
 Vibration    23          0.813              1.352              0.783
 Vibration    24          0.833              1.302              0.719
 Vibration    25          0.850              1.262              0.671
 Vibration    26          0.896              1.160              0.564
 Vibration    27          0.908              1.134              0.539
 Vibration    28          0.941              1.066              0.478
 Vibration    29          0.949              1.050              0.465

                           ! Non-Optimized Parameters !
 Normal termination of Gaussian 16 at Mon Dec 14 17:24:18 2020.

 ----------------------------------------------------------------------
 # B3LYP/6-311++G(d,p) empiricaldispersion=gd3bj scf=xqc pop=npa geom=c
 heck
 ----------------------------------------------------------------------

 --------------------------------------
 CID_80079935_JID_9179_Energie_neutraal
 --------------------------------------
 Structure from the checkpoint file:  "JID_9179.chk"
 Charge =  0 Multiplicity = 1

 SCF Done:  E(RB3LYP) =  -842.672708905     A.U. after   16 cycles
 Normal termination of Gaussian 16 at Mon Dec 14 17:33:16 2020.

 ----------------------------------------------------------------------
 # B3LYP/6-311++G(d,p) empiricaldispersion=gd3bj scf=xqc pop=npa geom=c
 heck
 ----------------------------------------------------------------------

 ------------------------------------
 CID_80079935_JID_9179_Energie_kation
 ------------------------------------
 Structure from the checkpoint file:  "JID_9179.chk"
 Charge =  1 Multiplicity = 2

 SCF Done:  E(UB3LYP) =  -842.431056701     A.U. after   22 cycles
 Normal termination of Gaussian 16 at Mon Dec 14 17:51:04 2020.
 Gaussian 16:  ES64L-G16RevA.03 25-Dec-2016

 ----------------------------------------------------------------------
 # B3LYP/6-311++G(d,p) empiricaldispersion=gd3bj scf=xqc pop=npa geom=c
 heck
 ----------------------------------------------------------------------

 -----------------------------------
 CID_80079935_JID_9179_Energie_anion
 -----------------------------------
 Structure from the checkpoint file:  "JID_9179.chk"
 Charge = -1 Multiplicity = 2

                         Standard orientation:
 ---------------------------------------------------------------------
 Center     Atomic      Atomic             Coordinates (Angstroms)
 Number     Number       Type             X           Y           Z
 ---------------------------------------------------------------------
      1          6           0        2.943650    3.049149    1.278315
      2          6           0        2.984356    1.705409    0.590856
      3          6           0        1.792548    1.032769    0.287021
      4          6           0        1.798577   -0.198644   -0.367097
      5          6           0        3.030687   -0.787466   -0.737437
      6          6           0        4.215050   -0.125999   -0.419980
      7          6           0        4.194002    1.104996    0.240084
      8          7           0        2.999223   -2.054487   -1.353466
      9          7           0        0.637797   -0.935502   -0.685368
     10          6           0       -0.670550   -0.467673   -0.481686
     11          6           0       -1.583380   -1.283258    0.215779
     12          6           0       -2.907592   -0.907531    0.381319
     13          6           0       -3.357313    0.314869   -0.133801
     14          6           0       -2.463633    1.143817   -0.819805
     15          6           0       -1.138266    0.741247   -1.000544
     16          8           0       -4.676180    0.602403    0.087378
     17          6           0       -5.177953    1.822118   -0.428247
     18          8           0       -1.136345   -2.494633    0.714230
     19          6           0       -0.594969   -2.389505    2.034904
     20          1           0        2.619262    3.843818    0.593191
     21          1           0        2.243569    3.048537    2.122246
     22          1           0        3.930127    3.328947    1.661805
     23          1           0        0.842243    1.469228    0.577923
     24          1           0        5.164898   -0.577832   -0.698201
     25          1           0        5.131637    1.604072    0.470153
     26          1           0        2.279157   -2.110211   -2.070122
     27          1           0        3.896740   -2.325681   -1.740361
     28          1           0        0.726753   -1.923531   -0.465020
     29          1           0       -3.595882   -1.557020    0.910859
     30          1           0       -2.785616    2.091479   -1.234011
     31          1           0       -0.455986    1.374027   -1.558607
     32          1           0       -4.659680    2.687982    0.005718
     33          1           0       -5.090243    1.864579   -1.522260
     34          1           0       -6.232521    1.855982   -0.149100
     35          1           0        0.244193   -1.682800    2.064979
     36          1           0       -1.364727   -2.062239    2.745017
     37          1           0       -0.244141   -3.387364    2.306671
 ---------------------------------------------------------------------

 SCF Done:  E(UB3LYP) =  -842.660424868     A.U. after   33 cycles
 SCF Done:  E(UB3LYP) =  -842.660424868     a.u. after    1 cycles

 The electronic state is 2-A.
 Alpha  occ. eigenvalues --  -19.06528 -19.06293 -14.24291 -14.22539 -10.14671
 Alpha  occ. eigenvalues --  -10.14292 -10.14146 -10.13106 -10.12262 -10.12092
 Alpha  occ. eigenvalues --  -10.11672 -10.08885 -10.08630 -10.08606 -10.08598
 Alpha  occ. eigenvalues --  -10.08206 -10.07777 -10.07574 -10.07546  -0.98134
 Alpha  occ. eigenvalues --   -0.97804  -0.86558  -0.81848  -0.76353  -0.74987
 Alpha  occ. eigenvalues --   -0.67770  -0.67190  -0.66502  -0.64353  -0.60967
 Alpha  occ. eigenvalues --   -0.60751  -0.58614  -0.54136  -0.52615  -0.49917
 Alpha  occ. eigenvalues --   -0.49316  -0.45722  -0.44410  -0.43310  -0.42016
 Alpha  occ. eigenvalues --   -0.41108  -0.40429  -0.38816  -0.38160  -0.37827
 Alpha  occ. eigenvalues --   -0.36972  -0.35803  -0.35140  -0.34395  -0.33724
 Alpha  occ. eigenvalues --   -0.33380  -0.33120  -0.31963  -0.30941  -0.29854
 Alpha  occ. eigenvalues --   -0.29669  -0.28984  -0.27297  -0.26860  -0.25749
 Alpha  occ. eigenvalues --   -0.25238  -0.24728  -0.21914  -0.21005  -0.20248
 Alpha  occ. eigenvalues --   -0.16641  -0.15434  -0.12792  -0.09836   0.03874
 Alpha virt. eigenvalues --    0.05042   0.06147   0.06308   0.06797   0.07226
 Alpha virt. eigenvalues --    0.07799   0.08075   0.08458   0.08821   0.09152
 Alpha virt. eigenvalues --    0.09587   0.09774   0.09900   0.10420   0.10704

  Beta  occ. eigenvalues --  -19.06520 -19.06293 -14.24286 -14.22495 -10.14674
  Beta  occ. eigenvalues --  -10.14289 -10.14133 -10.13056 -10.12264 -10.12089
  Beta  occ. eigenvalues --  -10.11671 -10.08868 -10.08631 -10.08587 -10.08586
  Beta  occ. eigenvalues --  -10.08196 -10.07760 -10.07572 -10.07541  -0.98117
  Beta  occ. eigenvalues --   -0.97799  -0.86545  -0.81801  -0.76330  -0.74972
  Beta  occ. eigenvalues --   -0.67746  -0.67161  -0.66478  -0.64332  -0.60941
  Beta  occ. eigenvalues --   -0.60699  -0.58579  -0.54109  -0.52583  -0.49882
  Beta  occ. eigenvalues --   -0.49296  -0.45699  -0.44379  -0.43274  -0.41990
  Beta  occ. eigenvalues --   -0.41066  -0.40410  -0.38796  -0.38131  -0.37801
  Beta  occ. eigenvalues --   -0.36948  -0.35776  -0.35116  -0.34367  -0.33697
  Beta  occ. eigenvalues --   -0.33368  -0.33086  -0.31932  -0.30914  -0.29835
  Beta  occ. eigenvalues --   -0.29652  -0.28955  -0.27278  -0.26843  -0.25728
  Beta  occ. eigenvalues --   -0.25215  -0.24693  -0.21887  -0.20986  -0.20239
  Beta  occ. eigenvalues --   -0.16579  -0.15419  -0.12770  -0.09815
  Beta virt. eigenvalues --    0.05761   0.06387   0.06421   0.06731   0.06860
  Beta virt. eigenvalues --    0.07564   0.07936   0.08521   0.08611   0.09069
  Beta virt. eigenvalues --    0.09215   0.09801   0.10134   0.10259   0.10546

 Mulliken charges and spin densities:
               1          2
     1  C    0.228925  -0.814835
     2  C    0.305983   0.088809
     3  C   -0.610389   0.657013
     4  C   -0.880009   0.335536
     5  C    0.148724  -0.403142
     6  C    0.437337  -0.134006
     7  C    0.195805  -1.022727
     8  N   -0.470816   0.058456
     9  N    0.196881  -0.064910
    10  C    1.159656  -0.886716
    11  C   -0.768142   0.510597
    12  C   -0.229918   0.169744
    13  C   -0.665155  -0.007554
    14  C    0.016532   0.091180
    15  C    0.766912  -0.658554
    16  O   -0.216987   0.054977
    17  C    0.920558  -1.263729
    18  O   -0.159231  -0.001465
    19  C   -0.093091  -0.209477
    20  H    0.059500   0.098771
    21  H    0.003123   0.140759
    22  H    0.047051   0.096562
    23  H    0.357567  -0.201753
    24  H   -0.608594   0.767175
    25  H   -0.013657   0.124380
    26  H    0.044677   0.206447
    27  H   -0.290863   0.560990
    28  H    0.325369  -0.039713
    29  H    0.127240   0.075435
    30  H   -0.321494   0.535794
    31  H   -0.121535   0.319396
    32  H   -0.345068   0.505417
    33  H   -0.204822   0.356994
    34  H   -0.509880   0.684871
    35  H    0.101736   0.054121
    36  H    0.045650   0.083865
    37  H    0.020426   0.131291
 Sum of Mulliken charges =  -1.00000   1.00000

 Dipole moment (field-independent basis, Debye):
    X=              1.2089    Y=             -1.5251    Z=              3.4725  Tot=              3.9806
 Quadrupole moment (field-independent basis, Debye-Ang):
   XX=           -232.5916   YY=           -165.4566   ZZ=           -144.7998
   XY=             29.6979   XZ=              4.2222   YZ=             -3.7137

 Summary of Natural Population Analysis:

                                       Natural Population
                Natural  -----------------------------------------------
    Atom  No    Charge         Core      Valence    Rydberg      Total
 -----------------------------------------------------------------------
      C    1   -0.28965      0.99964     2.28521    0.00479     3.28965
      C    2   -0.02659      0.99953     2.01877    0.00829     3.02659
      C    3   -0.12101      0.99948     2.11439    0.00713     3.12101
      C    4    0.07358      0.99944     1.91563    0.01135     2.92642
      C    5    0.06889      0.99945     1.92015    0.01151     2.93111
      C    6   -0.11620      0.99953     2.10608    0.01059     3.11620
      C    7   -0.10909      0.99952     2.10050    0.00908     3.10909
      N    8   -0.40548      0.99972     2.89506    0.01070     3.90548
      N    9   -0.31541      0.99965     2.80472    0.01104     3.81541
      C   10    0.05096      0.99943     1.93785    0.01176     2.94904
      C   11    0.14576      0.99933     1.84263    0.01228     2.85424
      C   12   -0.13176      0.99947     2.12349    0.00880     3.13176
      C   13    0.15536      0.99939     1.83156    0.01369     2.84464
      C   14   -0.14032      0.99953     2.13210    0.00870     3.14032
      C   15   -0.09872      0.99954     2.09010    0.00908     3.09872
      O   16   -0.27426      0.99986     3.26450    0.00991     4.27426
      C   17   -0.10078      0.99960     2.09199    0.00919     3.10078
      O   18   -0.29495      0.99987     3.28596    0.00912     4.29495
      C   19   -0.09757      0.99959     2.09018    0.00780     3.09757
      H   20    0.10181      0.00000     0.39688    0.00131     0.39819
      H   21    0.10127      0.00000     0.39756    0.00117     0.39873
      H   22    0.09903      0.00000     0.40005    0.00091     0.40097
      H   23    0.10520      0.00000     0.39307    0.00173     0.39480
      H   24    0.10074      0.00000     0.39789    0.00137     0.39926
      H   25    0.09709      0.00000     0.40205    0.00086     0.40291
      H   26    0.18664      0.00000     0.31100    0.00236     0.31336
      H   27    0.18750      0.00000     0.30821    0.00429     0.31250
      H   28    0.19738      0.00000     0.29879    0.00383     0.30262
      H   29    0.10931      0.00000     0.38917    0.00152     0.39069
      H   30    0.10908      0.00000     0.38944    0.00148     0.39092
      H   31    0.10716      0.00000     0.39136    0.00148     0.39284
      H   32    0.08661      0.00000     0.41118    0.00220     0.41339
      H   33    0.08488      0.00000     0.41333    0.00179     0.41512
      H   34    0.09454      0.00000     0.40404    0.00142     0.40546
      H   35    0.08705      0.00000     0.41166    0.00130     0.41295
      H   36    0.08213      0.00000     0.41639    0.00148     0.41787
      H   37    0.08980      0.00000     0.40904    0.00116     0.41020
 =======================================================================
   * Total *   -0.00000     18.99157    49.79198    0.21645    69.00000

 Normal termination of Gaussian 16 at Mon Dec 14 18:17:44 2020.
