 Gaussian 16, Revision A.03,

 -----------------------------------------------------------
 # opt freq B3LYP/6-31G(d) empiricaldispersion=gd3bj scf=xqc
 -----------------------------------------------------------

 -------------------------------
 CID_100944892_JID_8900_neutraal
 -------------------------------
 Symbolic Z-matrix:
 Charge =  0 Multiplicity = 1

 SCF Done:  E(RB3LYP) =  -1165.85952595     A.U. after   16 cycles
 SCF Done:  E(RB3LYP) =  -1165.86389677     A.U. after   13 cycles
 SCF Done:  E(RB3LYP) =  -1165.86389938     A.U. after   13 cycles
 SCF Done:  E(RB3LYP) =  -1165.86395329     A.U. after   12 cycles
 SCF Done:  E(RB3LYP) =  -1165.86438635     A.U. after   12 cycles
 SCF Done:  E(RB3LYP) =  -1165.86439444     A.U. after    9 cycles
 SCF Done:  E(RB3LYP) =  -1165.86438936     A.U. after   10 cycles
 SCF Done:  E(RB3LYP) =  -1165.86439839     A.U. after    9 cycles
 SCF Done:  E(RB3LYP) =  -1165.86439919     A.U. after    8 cycles
 SCF Done:  E(RB3LYP) =  -1165.86439994     A.U. after    8 cycles
 SCF Done:  E(RB3LYP) =  -1165.86479581     A.U. after   12 cycles
 SCF Done:  E(RB3LYP) =  -1165.86481409     A.U. after   11 cycles
 SCF Done:  E(RB3LYP) =  -1165.86481433     A.U. after   11 cycles
 SCF Done:  E(RB3LYP) =  -1165.86481542     A.U. after   11 cycles
 SCF Done:  E(RB3LYP) =  -1165.86481535     A.U. after    9 cycles
 SCF Done:  E(RB3LYP) =  -1165.86481541     A.U. after    9 cycles
 Optimization completed on the basis of negligible forces.
    -- Stationary point found.
 Normal termination of Gaussian 16 at Fri Dec 11 23:23:28 2020.

 --------------------------------------------------------------------
 #N Geom=AllCheck Guess=TCheck SCRF=Check GenChk RB3LYP/6-31G(d) Freq
 --------------------------------------------------------------------

 Structure from the checkpoint file:  "JID_8900.chk"
 -------------------------------
 CID_100944892_JID_8900_neutraal
 -------------------------------
 Charge =  0 Multiplicity = 1

 SCF Done:  E(RB3LYP) =  -1165.86481541     A.U. after    1 cycles

  Exact polarizability: 256.059 -23.529 171.139  26.012   9.997 105.949
 Approx polarizability: 348.141 -33.388 313.155  52.465  32.130 168.371

                      1                      2                      3
                      A                      A                      A
 Frequencies --     10.3553                32.6654                44.3694
 Red. masses --      5.0068                 4.1645                 6.6533
 Frc consts  --      0.0003                 0.0026                 0.0077
 IR Inten    --      1.0900                 0.4872                 0.0537

                      4                      5                      6
                      A                      A                      A
 Frequencies --     55.7995                91.1848               104.2782
 Red. masses --      5.9169                 4.7780                 3.6421
 Frc consts  --      0.0109                 0.0234                 0.0233
 IR Inten    --      2.5156                 2.9831                 0.5195

                      7                      8                      9
                      A                      A                      A
 Frequencies --    131.2412               142.0358               150.4485
 Red. masses --      2.9038                 3.5808                 1.2836
 Frc consts  --      0.0295                 0.0426                 0.0171
 IR Inten    --      0.0991                 0.7323                 0.8327

                     10                     11                     12
                      A                      A                      A
 Frequencies --    164.5739               210.0170               223.7823
 Red. masses --      3.9384                 6.0732                 1.3155
 Frc consts  --      0.0628                 0.1578                 0.0388
 IR Inten    --      0.1969                 0.0605                 2.4202

                     13                     14                     15
                      A                      A                      A
 Frequencies --    275.4689               303.4673               319.6708
 Red. masses --      3.3974                 6.2883                 2.8946
 Frc consts  --      0.1519                 0.3412                 0.1743
 IR Inten    --      0.5474                 1.7836                 1.7738

                     16                     17                     18
                      A                      A                      A
 Frequencies --    332.6597               362.0100               390.6105
 Red. masses --      3.2647                 3.7141                 6.0674
 Frc consts  --      0.2129                 0.2868                 0.5454
 IR Inten    --     11.7841                 1.8298                20.3419

                     19                     20                     21
                      A                      A                      A
 Frequencies --    424.7671               446.3336               467.2876
 Red. masses --      3.5452                 4.2442                 3.9778
 Frc consts  --      0.3769                 0.4982                 0.5118
 IR Inten    --      2.6873                 0.2100                 5.7656

                     22                     23                     24
                      A                      A                      A
 Frequencies --    482.3711               496.7719               505.9301
 Red. masses --      5.0862                 4.7910                 4.6590
 Frc consts  --      0.6973                 0.6966                 0.7026
 IR Inten    --      5.4522                 3.5521                 0.7727

                     25                     26                     27
                      A                      A                      A
 Frequencies --    543.4867               547.5363               629.3866
 Red. masses --      8.4077                 4.2824                 4.4359
 Frc consts  --      1.4632                 0.7564                 1.0353
 IR Inten    --      3.9198                 2.9081                 4.8737

                     28                     29                     30
                      A                      A                      A
 Frequencies --    692.3583               699.3607               733.6468
 Red. masses --      5.8572                 5.3908                 6.5380
 Frc consts  --      1.6542                 1.5535                 2.0733
 IR Inten    --      9.3927                 2.3370                 4.9370

                     31                     32                     33
                      A                      A                      A
 Frequencies --    757.3850               771.0606               797.0305
 Red. masses --      1.5123                 4.2902                 1.4552
 Frc consts  --      0.5111                 1.5028                 0.5447
 IR Inten    --     52.7981                 2.0182                 6.4299

                     34                     35                     36
                      A                      A                      A
 Frequencies --    806.4017               853.6710               880.7560
 Red. masses --      3.1939                 2.3218                 1.3640
 Frc consts  --      1.2237                 0.9969                 0.6234
 IR Inten    --      1.0556                 4.5046                 0.2980

                     37                     38                     39
                      A                      A                      A
 Frequencies --    885.9936               932.4358               936.2841
 Red. masses --      4.0615                 3.2784                 4.0578
 Frc consts  --      1.8784                 1.6794                 2.0958
 IR Inten    --     27.6188                 6.9935                 2.4953

                     40                     41                     42
                      A                      A                      A
 Frequencies --    965.2560               966.9965               994.1027
 Red. masses --      1.3778                 1.8583                 1.2813
 Frc consts  --      0.7563                 1.0238                 0.7461
 IR Inten    --      0.3041                 1.3983                 0.0190

                     43                     44                     45
                      A                      A                      A
 Frequencies --   1035.5289              1052.1741              1054.5808
 Red. masses --      3.0209                 2.4122                 2.3898
 Frc consts  --      1.9086                 1.5734                 1.5659
 IR Inten    --    104.1819                15.7238                 8.7739

                     46                     47                     48
                      A                      A                      A
 Frequencies --   1073.5672              1090.8364              1114.0393
 Red. masses --      1.9373                 3.7940                 2.3716
 Frc consts  --      1.3156                 2.6599                 1.7342
 IR Inten    --     16.2363                20.1781               113.2260

                     49                     50                     51
                      A                      A                      A
 Frequencies --   1132.7031              1147.3301              1189.1697
 Red. masses --      1.9942                 1.6612                 1.5753
 Frc consts  --      1.5075                 1.2884                 1.3125
 IR Inten    --     38.6334                 1.0262               125.5829

                     52                     53                     54
                      A                      A                      A
 Frequencies --   1198.2195              1209.9352              1250.2105
 Red. masses --      1.3411                 1.7228                 2.5094
 Frc consts  --      1.1345                 1.4860                 2.3109
 IR Inten    --     24.7555                 6.6995                17.9699

                     55                     56                     57
                      A                      A                      A
 Frequencies --   1269.9128              1288.9327              1317.7334
 Red. masses --      2.9169                 2.1454                 1.8832
 Frc consts  --      2.7716                 2.1000                 1.9266
 IR Inten    --     25.4623               378.4474                82.9064

                     58                     59                     60
                      A                      A                      A
 Frequencies --   1326.0726              1345.0001              1370.0183
 Red. masses --      1.5686                 1.1444                 6.7584
 Frc consts  --      1.6251                 1.2198                 7.4739
 IR Inten    --     40.7472                24.5126                11.7649

                     61                     62                     63
                      A                      A                      A
 Frequencies --   1419.0605              1425.0415              1444.5745
 Red. masses --      1.2705                 1.2433                 1.3230
 Frc consts  --      1.5074                 1.4876                 1.6266
 IR Inten    --      4.6877                23.7647                 8.9908

                     64                     65                     66
                      A                      A                      A
 Frequencies --   1494.8861              1500.8724              1505.0761
 Red. masses --      1.1596                 2.3112                 2.2110
 Frc consts  --      1.5267                 3.0674                 2.9509
 IR Inten    --     32.9581                66.1911                 5.4754

                     67                     68                     69
                      A                      A                      A
 Frequencies --   1509.5485              1516.1783              1519.6241
 Red. masses --      1.1043                 1.0503                 1.0796
 Frc consts  --      1.4826                 1.4225                 1.4689
 IR Inten    --      5.1092                 8.8259                 4.1259

                     70                     71                     72
                      A                      A                      A
 Frequencies --   1529.6090              1538.1319              1630.9128
 Red. masses --      1.0483                 1.0574                 6.2416
 Frc consts  --      1.4452                 1.4739                 9.7816
 IR Inten    --      7.3443                 5.5101                20.5977

                     73                     74                     75
                      A                      A                      A
 Frequencies --   1649.9701              1671.0581              1758.8282
 Red. masses --      5.9810                 6.2691                12.1287
 Frc consts  --      9.5935                10.3143                22.1060
 IR Inten    --     73.7608               187.3429               162.2590

                     76                     77                     78
                      A                      A                      A
 Frequencies --   1825.0745              3035.8488              3062.5370
 Red. masses --     10.9544                 1.0463                 1.0361
 Frc consts  --     21.4981                 5.6815                 5.7255
 IR Inten    --    166.3018                24.4910                18.9602

                     79                     80                     81
                      A                      A                      A
 Frequencies --   3073.6279              3088.1751              3098.0137
 Red. masses --      1.0601                 1.0946                 1.0592
 Frc consts  --      5.9008                 6.1505                 5.9897
 IR Inten    --     15.7921                 9.2653                18.6257

                     82                     83                     84
                      A                      A                      A
 Frequencies --   3129.0308              3132.0764              3142.3375
 Red. masses --      1.1014                 1.1042                 1.1041
 Frc consts  --      6.3533                 6.3818                 6.4232
 IR Inten    --     22.9949                 3.9349                 5.5272

                     85                     86                     87
                      A                      A                      A
 Frequencies --   3162.2239              3191.3163              3204.6973
 Red. masses --      1.1083                 1.0862                 1.0891
 Frc consts  --      6.5299                 6.5178                 6.5901
 IR Inten    --     25.2359                 2.4314                 6.0654

                     88                     89                     90
                      A                      A                      A
 Frequencies --   3211.4019              3211.7560              3220.4014
 Red. masses --      1.0961                 1.0938                 1.0966
 Frc consts  --      6.6602                 6.6475                 6.7005
 IR Inten    --      6.6121                13.0628                21.2124

 - Thermochemistry -
 -------------------
 Temperature   298.150 Kelvin.  Pressure   1.00000 Atm.
 Atom     1 has atomic number  6 and mass  12.00000

 Molecular mass:   262.06637 amu.
 Principal axes and moments of inertia in atomic units:
                           1         2         3
     Eigenvalues --  2203.758018945.78314**********
           X            0.99998  -0.00435  -0.00398
           Y            0.00426   0.99973  -0.02282
           Z            0.00408   0.02280   0.99973
 This molecule is an asymmetric top.
 Rotational symmetry number  1.
 Warning -- assumption of classical behavior for rotation
           may cause significant error
 Rotational temperatures (Kelvin)      0.03930     0.00968     0.00861
 Rotational constants (GHZ):           0.81894     0.20174     0.17933
 Zero-point vibrational energy     663503.4 (Joules/Mol)
                                  158.58111 (Kcal/Mol)
 Warning -- explicit consideration of  26 degrees of freedom as
           vibrations may cause significant error
 Vibrational temperatures:     14.90    47.00    63.84    80.28   131.19
          (Kelvin)            150.03   188.83   204.36   216.46   236.79
                              302.17   321.97   396.34   436.62   459.93
                              478.62   520.85   562.00   611.15   642.17
                              672.32   694.02   714.74   727.92   781.96
                              787.78   905.55   996.15  1006.22  1055.55
                             1089.71  1109.38  1146.75  1160.23  1228.24
                             1267.21  1274.75  1341.57  1347.10  1388.79
                             1391.29  1430.29  1489.90  1513.84  1517.31
                             1544.62  1569.47  1602.85  1629.71  1650.75
                             1710.95  1723.97  1740.83  1798.77  1827.12
                             1854.49  1895.92  1907.92  1935.16  1971.15
                             2041.71  2050.32  2078.42  2150.81  2159.42
                             2165.47  2171.90  2181.44  2186.40  2200.77
                             2213.03  2346.52  2373.94  2404.28  2530.56
                             2625.88  4367.91  4406.31  4422.27  4443.20
                             4457.35  4501.98  4506.36  4521.12  4549.73
                             4591.59  4610.84  4620.49  4621.00  4633.44

 Zero-point correction=                           0.252715 (Hartree/Particle)
 Thermal correction to Energy=                    0.269944
 Thermal correction to Enthalpy=                  0.270888
 Thermal correction to Gibbs Free Energy=         0.204975
 Sum of electronic and zero-point Energies=          -1165.612100
 Sum of electronic and thermal Energies=             -1165.594871
 Sum of electronic and thermal Enthalpies=           -1165.593927
 Sum of electronic and thermal Free Energies=        -1165.659840

                     E (Thermal)             CV                S
                      KCal/Mol        Cal/Mol-Kelvin    Cal/Mol-Kelvin
 Total                  169.393             63.780            138.725
 Electronic               0.000              0.000              0.000
 Translational            0.889              2.981             42.590
 Rotational               0.889              2.981             33.650
 Vibrational            167.615             57.819             62.485
 Vibration     1          0.593              1.987              7.942
 Vibration     2          0.594              1.983              5.661
 Vibration     3          0.595              1.980              5.054
 Vibration     4          0.596              1.975              4.600
 Vibration     5          0.602              1.955              3.634
 Vibration     6          0.605              1.946              3.373
 Vibration     7          0.612              1.922              2.928
 Vibration     8          0.616              1.911              2.776
 Vibration     9          0.618              1.902              2.667
 Vibration    10          0.623              1.886              2.497
 Vibration    11          0.642              1.826              2.044
 Vibration    12          0.649              1.805              1.928
 Vibration    13          0.677              1.719              1.562
 Vibration    14          0.695              1.667              1.398
 Vibration    15          0.706              1.636              1.312
 Vibration    16          0.715              1.610              1.247
 Vibration    17          0.736              1.551              1.113
 Vibration    18          0.758              1.490              0.998
 Vibration    19          0.787              1.416              0.876
 Vibration    20          0.806              1.369              0.807
 Vibration    21          0.825              1.323              0.745
 Vibration    22          0.839              1.289              0.704
 Vibration    23          0.852              1.257              0.666
 Vibration    24          0.861              1.237              0.643
 Vibration    25          0.899              1.154              0.558
 Vibration    26          0.903              1.145              0.549

 Optimization completed on the basis of negligible forces.
    -- Stationary point found.
 Normal termination of Gaussian 16 at Fri Dec 11 23:34:01 2020.

 ----------------------------------------------------------------------
 # B3LYP/6-311++G(d,p) empiricaldispersion=gd3bj scf=xqc pop=npa geom=c
 heck
 ----------------------------------------------------------------------

 ---------------------------------------
 CID_100944892_JID_8900_Energie_neutraal
 ---------------------------------------
 Structure from the checkpoint file:  "JID_8900.chk"
 Charge =  0 Multiplicity = 1

 SCF Done:  E(RB3LYP) =  -1166.09959221     A.U. after   16 cycles
 Normal termination of Gaussian 16 at Fri Dec 11 23:38:45 2020.

 ----------------------------------------------------------------------
 # B3LYP/6-311++G(d,p) empiricaldispersion=gd3bj scf=xqc pop=npa geom=c
 heck
 ----------------------------------------------------------------------

 -------------------------------------
 CID_100944892_JID_8900_Energie_kation
 -------------------------------------
 Structure from the checkpoint file:  "JID_8900.chk"
 Charge =  1 Multiplicity = 2

 SCF Done:  E(UB3LYP) =  -1165.81616585     A.U. after   25 cycles
 Normal termination of Gaussian 16 at Fri Dec 11 23:48:37 2020.
 Gaussian 16:  ES64L-G16RevA.03 25-Dec-2016

 ----------------------------------------------------------------------
 # B3LYP/6-311++G(d,p) empiricaldispersion=gd3bj scf=xqc pop=npa geom=c
 heck
 ----------------------------------------------------------------------

 ------------------------------------
 CID_100944892_JID_8900_Energie_anion
 ------------------------------------
 Structure from the checkpoint file:  "JID_8900.chk"
 Charge = -1 Multiplicity = 2

                         Standard orientation:
 ---------------------------------------------------------------------
 Center     Atomic      Atomic             Coordinates (Angstroms)
 Number     Number       Type             X           Y           Z
 ---------------------------------------------------------------------
      1          6           0       -5.495222   -0.855079    0.995900
      2          6           0       -4.130725   -0.391100    1.477340
      3          8           0       -3.397196    0.269653    0.415625
      4          6           0       -2.726380   -0.533247   -0.437066
      5          8           0       -2.720237   -1.742048   -0.379864
      6          6           0       -1.961429    0.293132   -1.463706
      7          6           0       -0.904272    1.159439   -0.806490
      8          6           0        0.294863    0.632154   -0.470337
      9          6           0        1.463231    1.358431    0.142262
     10          8           0        1.478006    2.534880    0.486180
     11          6           0        2.613320    0.443551    0.259888
     12          6           0        3.870868    0.786684    0.761660
     13          6           0        4.865921   -0.183526    0.814946
     14          6           0        4.596929   -1.486862    0.369779
     15          6           0        3.343426   -1.839554   -0.130625
     16          6           0        2.353460   -0.858377   -0.183363
     17         16           0        0.695998   -1.093462   -0.760360
     18          6           0       -1.300319    2.584557   -0.551293
     19          1           0       -6.067316   -0.016921    0.585147
     20          1           0       -6.059696   -1.280541    1.833174
     21          1           0       -5.388032   -1.624456    0.226796
     22          1           0       -4.213289    0.369074    2.257059
     23          1           0       -3.532127   -1.227706    1.844865
     24          1           0       -1.521843   -0.407878   -2.178010
     25          1           0       -2.676765    0.931449   -1.993457
     26          1           0        4.039920    1.805001    1.098460
     27          1           0        5.850462    0.063028    1.200055
     28          1           0        5.378997   -2.239744    0.414038
     29          1           0        3.145992   -2.851417   -0.470808
     30          1           0       -1.534591    3.077096   -1.505475
     31          1           0       -2.222471    2.593853    0.043119
     32          1           0       -0.521814    3.143456   -0.038106
 ---------------------------------------------------------------------

 SCF Done:  E(UB3LYP) =  -1166.13482614     A.U. after   23 cycles

 The electronic state is 2-A.
 Alpha  occ. eigenvalues --  -88.72304 -19.06743 -19.00692 -18.92200 -10.19422
 Alpha  occ. eigenvalues --  -10.14328 -10.09128 -10.07329 -10.06860 -10.06748
 Alpha  occ. eigenvalues --  -10.05342 -10.04797 -10.04414 -10.04272 -10.04040
 Alpha  occ. eigenvalues --  -10.03636 -10.02833 -10.02781  -7.80926  -5.77257
 Alpha  occ. eigenvalues --   -5.76929  -5.76387  -1.00645  -0.91937  -0.86296
 Alpha  occ. eigenvalues --   -0.74062  -0.70911  -0.68893  -0.66349  -0.62296
 Alpha  occ. eigenvalues --   -0.60723  -0.58372  -0.56071  -0.53910  -0.50315
 Alpha  occ. eigenvalues --   -0.46710  -0.45620  -0.43571  -0.41137  -0.39714
 Alpha  occ. eigenvalues --   -0.37887  -0.37369  -0.35032  -0.34177  -0.33695
 Alpha  occ. eigenvalues --   -0.33358  -0.32371  -0.31019  -0.30403  -0.29302
 Alpha  occ. eigenvalues --   -0.28725  -0.28018  -0.27406  -0.27062  -0.26943
 Alpha  occ. eigenvalues --   -0.25773  -0.24987  -0.23399  -0.22492  -0.22311
 Alpha  occ. eigenvalues --   -0.21641  -0.21162  -0.19630  -0.18377  -0.17614
 Alpha  occ. eigenvalues --   -0.12956  -0.12453  -0.08793  -0.07557   0.02111
 Alpha virt. eigenvalues --    0.06161   0.08513   0.08574   0.08979   0.09716
 Alpha virt. eigenvalues --    0.10123   0.10676   0.11088   0.11209   0.11612
 Alpha virt. eigenvalues --    0.11929   0.12327   0.13065   0.13238   0.13596

  Beta  occ. eigenvalues --  -88.72314 -19.06730 -19.00675 -18.91626 -10.19360
  Beta  occ. eigenvalues --  -10.14328 -10.09127 -10.07031 -10.06895 -10.06623
  Beta  occ. eigenvalues --  -10.05423 -10.04848 -10.04489 -10.04042 -10.03581
  Beta  occ. eigenvalues --  -10.03464 -10.02824 -10.02813  -7.80934  -5.77265
  Beta  occ. eigenvalues --   -5.76936  -5.76410  -1.00606  -0.91902  -0.85270
  Beta  occ. eigenvalues --   -0.73805  -0.70639  -0.68771  -0.66061  -0.61995
  Beta  occ. eigenvalues --   -0.60569  -0.58268  -0.56038  -0.53553  -0.49838
  Beta  occ. eigenvalues --   -0.46666  -0.45458  -0.43159  -0.41017  -0.39543
  Beta  occ. eigenvalues --   -0.37792  -0.37258  -0.34910  -0.33961  -0.33522
  Beta  occ. eigenvalues --   -0.33155  -0.32303  -0.30925  -0.30339  -0.29073
  Beta  occ. eigenvalues --   -0.28495  -0.27670  -0.27190  -0.26818  -0.26131
  Beta  occ. eigenvalues --   -0.25621  -0.24760  -0.23281  -0.22279  -0.21475
  Beta  occ. eigenvalues --   -0.21096  -0.20663  -0.19551  -0.17685  -0.17315
  Beta  occ. eigenvalues --   -0.12002  -0.11371  -0.08311  -0.06528
  Beta virt. eigenvalues --    0.06132   0.08108   0.08502   0.08683   0.08961
  Beta virt. eigenvalues --    0.09741   0.10128   0.10880   0.11175   0.11406
  Beta virt. eigenvalues --    0.11649   0.12026   0.12347   0.13179   0.13536

 Mulliken charges and spin densities:
               1          2
     1  C   -0.382262   0.000394
     2  C   -0.146524  -0.003141
     3  O    0.038095   0.000076
     4  C   -0.378057   0.019650
     5  O   -0.215350   0.006116
     6  C   -0.191155  -0.066500
     7  C    0.428426   0.338533
     8  C    0.295657  -0.024574
     9  C   -0.014186   0.186082
    10  O   -0.371669   0.214953
    11  C    1.778506  -0.017005
    12  C    0.154940   0.174090
    13  C   -0.236146  -0.065076
    14  C   -0.299430   0.190188
    15  C   -0.380048  -0.042603
    16  C   -1.474690   0.075496
    17  S   -0.980529  -0.019158
    18  C   -0.648252  -0.019705
    19  H    0.134388   0.000803
    20  H    0.119565   0.001423
    21  H    0.172228   0.001267
    22  H    0.146458   0.000114
    23  H    0.171209  -0.000303
    24  H    0.179163   0.011410
    25  H    0.147880   0.022757
    26  H    0.145432  -0.010694
    27  H    0.113819   0.003794
    28  H    0.113073  -0.014131
    29  H    0.130182   0.001541
    30  H    0.097500   0.022953
    31  H    0.133048   0.013570
    32  H    0.218727  -0.002323
 Sum of Mulliken charges =  -1.00000   1.00000

 Dipole moment (field-independent basis, Debye):
    X=             -6.5559    Y=             -2.3963    Z=              0.3630  Tot=              6.9896
 Quadrupole moment (field-independent basis, Debye-Ang):
   XX=           -145.1367   YY=           -142.1756   ZZ=           -120.6371
   XY=             -7.2549   XZ=             -6.0605   YZ=             -3.4487

 Summary of Natural Population Analysis:

                                       Natural Population
                Natural  -----------------------------------------------
    Atom  No    Charge         Core      Valence    Rydberg      Total
 -----------------------------------------------------------------------
      C    1   -0.30001      0.99967     2.29637    0.00397     3.30001
      C    2   -0.01764      0.99959     2.00764    0.01041     3.01764
      O    3   -0.28517      0.99986     3.27544    0.00987     4.28517
      C    4    0.42076      0.99970     1.55411    0.02543     2.57924
      O    5   -0.31039      0.99987     3.30383    0.00669     4.31039
      C    6   -0.24649      0.99951     2.23819    0.00880     3.24649
      C    7    0.08563      0.99944     1.90590    0.00904     2.91437
      C    8   -0.14005      0.99932     2.12788    0.01285     3.14005
      C    9    0.28797      0.99952     1.69192    0.02059     2.71203
      O   10   -0.24645      0.99988     3.24076    0.00581     4.24645
      C   11   -0.07102      0.99941     2.06174    0.00986     3.07102
      C   12   -0.04390      0.99953     2.03518    0.00919     3.04390
      C   13   -0.13913      0.99958     2.13006    0.00949     3.13913
      C   14   -0.05437      0.99958     2.04543    0.00935     3.05437
      C   15   -0.13637      0.99950     2.12681    0.01006     3.13637
      C   16   -0.04310      0.99939     2.03361    0.01010     3.04310
      S   17    0.13462      4.99949     2.84516    0.02073     7.86538
      C   18   -0.30312      0.99958     2.29813    0.00542     3.30312
      H   19    0.09768      0.00000     0.40133    0.00099     0.40232
      H   20    0.09708      0.00000     0.40209    0.00083     0.40292
      H   21    0.10689      0.00000     0.39203    0.00107     0.39311
      H   22    0.08775      0.00000     0.41119    0.00106     0.41225
      H   23    0.09616      0.00000     0.40238    0.00146     0.40384
      H   24    0.11421      0.00000     0.38409    0.00170     0.38579
      H   25    0.10865      0.00000     0.39059    0.00076     0.39135
      H   26    0.10208      0.00000     0.39593    0.00198     0.39792
      H   27    0.09154      0.00000     0.40740    0.00107     0.40846
      H   28    0.08789      0.00000     0.41106    0.00104     0.41211
      H   29    0.09528      0.00000     0.40298    0.00174     0.40472
      H   30    0.09551      0.00000     0.40384    0.00064     0.40449
      H   31    0.10150      0.00000     0.39728    0.00122     0.39850
      H   32    0.12609      0.00000     0.37244    0.00148     0.37391
 =======================================================================
   * Total *    0.00009     21.99241    46.79278    0.21472    68.99991

 Normal termination of Gaussian 16 at Fri Dec 11 23:57:43 2020.
