 Gaussian 16, Revision A.03,

 -----------------------------------------------------------
 # opt freq B3LYP/6-31G(d) empiricaldispersion=gd3bj scf=xqc
 -----------------------------------------------------------

 -------------------------------
 CID_76148848_JID_10258_neutraal
 -------------------------------
 Symbolic Z-matrix:
 Charge =  0 Multiplicity = 1

 SCF Done:  E(RB3LYP) =  -1272.68915912     A.U. after   15 cycles
 SCF Done:  E(RB3LYP) =  -1272.69105700     A.U. after   13 cycles
 SCF Done:  E(RB3LYP) =  -1272.69676794     A.U. after   13 cycles
 SCF Done:  E(RB3LYP) =  -1272.69909240     A.U. after   13 cycles
 SCF Done:  E(RB3LYP) =  -1272.69934451     A.U. after   12 cycles
 SCF Done:  E(RB3LYP) =  -1272.69947675     A.U. after   11 cycles
 SCF Done:  E(RB3LYP) =  -1272.69965381     A.U. after   11 cycles
 SCF Done:  E(RB3LYP) =  -1272.69970144     A.U. after   11 cycles
 SCF Done:  E(RB3LYP) =  -1272.69972350     A.U. after   11 cycles
 SCF Done:  E(RB3LYP) =  -1272.69973142     A.U. after    9 cycles
 SCF Done:  E(RB3LYP) =  -1272.69973695     A.U. after    7 cycles
 SCF Done:  E(RB3LYP) =  -1272.69973708     A.U. after    7 cycles
 SCF Done:  E(RB3LYP) =  -1272.69973720     A.U. after    7 cycles
 SCF Done:  E(RB3LYP) =  -1272.69973726     A.U. after    7 cycles
 SCF Done:  E(RB3LYP) =  -1272.69973729     A.U. after    7 cycles
 Optimization completed.
    -- Stationary point found.
 Normal termination of Gaussian 16 at Sat Dec 12 15:09:49 2020.

 --------------------------------------------------------------------
 #N Geom=AllCheck Guess=TCheck SCRF=Check GenChk RB3LYP/6-31G(d) Freq
 --------------------------------------------------------------------

 Structure from the checkpoint file:  "JID_10258.chk"
 -------------------------------
 CID_76148848_JID_10258_neutraal
 -------------------------------
 Charge =  0 Multiplicity = 1

 SCF Done:  E(RB3LYP) =  -1272.69973729     A.U. after    1 cycles

  Exact polarizability: 247.379  12.448 194.561  -4.909   4.305 102.239
 Approx polarizability: 329.800   7.752 325.810  -7.804  13.449 166.697

                      1                      2                      3
                      A                      A                      A
 Frequencies --     20.7910                33.1462                38.8499
 Red. masses --      5.7321                 5.5107                 4.9367
 Frc consts  --      0.0015                 0.0036                 0.0044
 IR Inten    --      1.6218                 1.8368                 1.5517

                      4                      5                      6
                      A                      A                      A
 Frequencies --     50.0351                70.5621                75.1708
 Red. masses --      5.5477                 4.2509                 7.9113
 Frc consts  --      0.0082                 0.0125                 0.0263
 IR Inten    --      1.3261                 0.6696                 1.1143

                      7                      8                      9
                      A                      A                      A
 Frequencies --     99.3224               113.3303               132.1848
 Red. masses --      1.1696                 3.0535                 4.8169
 Frc consts  --      0.0068                 0.0231                 0.0496
 IR Inten    --      0.3561                 0.7353                 3.3900

                     10                     11                     12
                      A                      A                      A
 Frequencies --    151.9638               173.6275               206.1067
 Red. masses --      4.0207                 4.5505                 5.9914
 Frc consts  --      0.0547                 0.0808                 0.1500
 IR Inten    --      0.9712                 6.2501                 7.7066

                     13                     14                     15
                      A                      A                      A
 Frequencies --    215.7377               261.4170               287.7687
 Red. masses --      1.9321                 5.5592                 4.4208
 Frc consts  --      0.0530                 0.2238                 0.2157
 IR Inten    --      1.7113                 1.0136                 3.8856

                     16                     17                     18
                      A                      A                      A
 Frequencies --    308.3536               324.4016               352.8749
 Red. masses --      5.0229                 3.7204                 3.0272
 Frc consts  --      0.2814                 0.2307                 0.2221
 IR Inten    --      0.0897                 2.5059                 8.5760

                     19                     20                     21
                      A                      A                      A
 Frequencies --    366.0912               426.9804               447.3696
 Red. masses --      4.3027                 4.7561                 6.0746
 Frc consts  --      0.3398                 0.5109                 0.7163
 IR Inten    --      2.3954                 2.7919                 2.3995

                     22                     23                     24
                      A                      A                      A
 Frequencies --    476.6562               519.7276               535.3025
 Red. masses --      3.0254                 4.2054                 4.8031
 Frc consts  --      0.4050                 0.6693                 0.8109
 IR Inten    --      6.5381                 3.3389                 6.7275

                     25                     26                     27
                      A                      A                      A
 Frequencies --    592.7583               605.3798               628.2471
 Red. masses --      1.9997                 2.8600                 7.4018
 Frc consts  --      0.4140                 0.6176                 1.7213
 IR Inten    --      5.2949                27.6838                 5.1338

                     28                     29                     30
                      A                      A                      A
 Frequencies --    634.6203               640.3284               669.6917
 Red. masses --      7.4999                 4.8163                 4.3406
 Frc consts  --      1.7796                 1.1635                 1.1470
 IR Inten    --      2.9883                 5.7523                33.6182

                     31                     32                     33
                      A                      A                      A
 Frequencies --    687.3330               711.4595               722.9403
 Red. masses --      1.5908                 4.5406                 3.2124
 Frc consts  --      0.4428                 1.3541                 0.9892
 IR Inten    --     17.0918                44.5212                 8.4191

                     34                     35                     36
                      A                      A                      A
 Frequencies --    742.8464               768.9995               804.8948
 Red. masses --      5.2146                 3.0850                 1.6152
 Frc consts  --      1.6954                 1.0749                 0.6165
 IR Inten    --      6.6158                 3.7232               125.8707

                     37                     38                     39
                      A                      A                      A
 Frequencies --    847.0145               870.9285               876.8604
 Red. masses --      1.4398                 4.2718                 1.7477
 Frc consts  --      0.6086                 1.9091                 0.7917
 IR Inten    --     14.7196                16.6104                 4.0396

                     40                     41                     42
                      A                      A                      A
 Frequencies --    890.6944               909.0427               911.8850
 Red. masses --      1.3046                 1.6910                 3.7329
 Frc consts  --      0.6098                 0.8233                 1.8288
 IR Inten    --      2.2052                13.6143                 8.4583

                     43                     44                     45
                      A                      A                      A
 Frequencies --    937.0985               946.5721               952.5373
 Red. masses --      4.6892                 1.6954                 2.3133
 Frc consts  --      2.4262                 0.8950                 1.2367
 IR Inten    --     23.2814                 3.6764                 3.6075

                     46                     47                     48
                      A                      A                      A
 Frequencies --   1003.8093              1013.9978              1024.9625
 Red. masses --      4.3991                 3.9587                 2.5178
 Frc consts  --      2.6117                 2.3982                 1.5584
 IR Inten    --     45.3268                 1.6434                 7.6551

                     49                     50                     51
                      A                      A                      A
 Frequencies --   1034.1845              1045.7179              1081.2215
 Red. masses --      1.9376                 2.6966                 1.7780
 Frc consts  --      1.2210                 1.7374                 1.2247
 IR Inten    --     21.1879                 4.3700                10.9634

                     52                     53                     54
                      A                      A                      A
 Frequencies --   1082.1032              1094.3887              1125.4511
 Red. masses --      1.9044                 1.5181                 1.8835
 Frc consts  --      1.3139                 1.0713                 1.4056
 IR Inten    --     17.3174                 5.7142                 2.9878

                     55                     56                     57
                      A                      A                      A
 Frequencies --   1141.4598              1162.3241              1171.7844
 Red. masses --      2.0791                 2.0550                 2.4106
 Frc consts  --      1.5960                 1.6358                 1.9502
 IR Inten    --      8.9030                17.1561                28.2028

                     58                     59                     60
                      A                      A                      A
 Frequencies --   1207.3171              1225.0397              1244.8277
 Red. masses --      1.5061                 1.7058                 1.7556
 Frc consts  --      1.2934                 1.5083                 1.6029
 IR Inten    --     21.9888                67.8355               128.2648

                     61                     62                     63
                      A                      A                      A
 Frequencies --   1271.3215              1279.1897              1296.0889
 Red. masses --      3.1711                 1.3992                 1.5847
 Frc consts  --      3.0198                 1.3489                 1.5684
 IR Inten    --     27.2065                16.2165                26.8611

                     64                     65                     66
                      A                      A                      A
 Frequencies --   1314.1421              1332.4301              1356.4833
 Red. masses --      1.3331                 3.3821                 1.6787
 Frc consts  --      1.3564                 3.5377                 1.8199
 IR Inten    --      1.0644                10.5607                56.7048

                     67                     68                     69
                      A                      A                      A
 Frequencies --   1360.1728              1369.6690              1382.9620
 Red. masses --      1.4016                 1.8807                 1.5980
 Frc consts  --      1.5278                 2.0788                 1.8008
 IR Inten    --      1.6963                57.2399                33.2849

                     70                     71                     72
                      A                      A                      A
 Frequencies --   1385.5449              1405.0011              1418.9930
 Red. masses --      1.4524                 1.7687                 1.4590
 Frc consts  --      1.6428                 2.0571                 1.7309
 IR Inten    --      9.5030                85.7352                 4.1541

                     73                     74                     75
                      A                      A                      A
 Frequencies --   1440.9918              1481.6453              1504.0759
 Red. masses --      1.2625                 2.0275                 1.0428
 Frc consts  --      1.5446                 2.6224                 1.3899
 IR Inten    --      4.8910                17.0665                 8.2575

                     76                     77                     78
                      A                      A                      A
 Frequencies --   1508.2111              1512.3394              1520.3002
 Red. masses --      3.9173                 1.1860                 1.1267
 Frc consts  --      5.2501                 1.5982                 1.5343
 IR Inten    --     88.5616                29.3664                 1.9226

                     79                     80                     81
                      A                      A                      A
 Frequencies --   1522.2616              1526.1945              1529.9426
 Red. masses --      1.3431                 2.2530                 1.1222
 Frc consts  --      1.8337                 3.0919                 1.5477
 IR Inten    --      8.3937               125.3686                16.8567

                     82                     83                     84
                      A                      A                      A
 Frequencies --   1554.7654              1563.3483              1612.5292
 Red. masses --      1.1313                 4.6411                 7.6940
 Frc consts  --      1.6112                 6.6831                11.7873
 IR Inten    --     24.9184                48.7709               457.0811

                     85                     86                     87
                      A                      A                      A
 Frequencies --   1659.3014              1758.6298              3017.1025
 Red. masses --      6.9740                 8.8376                 1.0641
 Frc consts  --     11.3131                16.1040                 5.7073
 IR Inten    --     46.7425               427.6995                43.7662

                     88                     89                     90
                      A                      A                      A
 Frequencies --   3033.1863              3050.4237              3057.0824
 Red. masses --      1.0835                 1.0731                 1.0942
 Frc consts  --      5.8735                 5.8834                 6.0253
 IR Inten    --     22.0396                22.4661                 6.5243

                     91                     92                     93
                      A                      A                      A
 Frequencies --   3059.7798              3075.3583              3087.1798
 Red. masses --      1.0373                 1.0689                 1.0693
 Frc consts  --      5.7221                 5.9563                 6.0044
 IR Inten    --     17.5077                44.4056                33.9323

                     94                     95                     96
                      A                      A                      A
 Frequencies --   3115.9733              3126.8778              3149.6939
 Red. masses --      1.1015                 1.1021                 1.0955
 Frc consts  --      6.3013                 6.3486                 6.4030
 IR Inten    --      8.8137                33.5493                14.0973

                     97                     98                     99
                      A                      A                      A
 Frequencies --   3155.8136              3170.1806              3231.3533
 Red. masses --      1.1011                 1.0964                 1.0916
 Frc consts  --      6.4608                 6.4923                 6.7155
 IR Inten    --      7.1510                 4.8987                11.4847

                    100                    101                    102
                      A                      A                      A
 Frequencies --   3288.6880              3314.7316              3492.3794
 Red. masses --      1.0978                 1.0991                 1.0755
 Frc consts  --      6.9956                 7.1149                 7.7287
 IR Inten    --      1.3219                 2.9096               370.8985

 - Thermochemistry -
 -------------------
 Temperature   298.150 Kelvin.  Pressure   1.00000 Atm.
 Atom     1 has atomic number  6 and mass  12.00000

 Molecular mass:   292.09940 amu.
 Principal axes and moments of inertia in atomic units:
                           1         2         3
     Eigenvalues --  2745.67969********************
           X            1.00000  -0.00093  -0.00191
           Y            0.00092   1.00000  -0.00162
           Z            0.00191   0.00162   1.00000
 This molecule is an asymmetric top.
 Rotational symmetry number  1.
 Warning -- assumption of classical behavior for rotation
           may cause significant error
 Rotational temperatures (Kelvin)      0.03155     0.00768     0.00634
 Rotational constants (GHZ):           0.65730     0.15995     0.13201
 Zero-point vibrational energy     759573.9 (Joules/Mol)
                                  181.54251 (Kcal/Mol)
 Warning -- explicit consideration of  26 degrees of freedom as
           vibrations may cause significant error
 Vibrational temperatures:     29.91    47.69    55.90    71.99   101.52
          (Kelvin)            108.15   142.90   163.06   190.18   218.64
                              249.81   296.54   310.40   376.12   414.03
                              443.65   466.74   507.71   526.72   614.33
                              643.67   685.80   747.77   770.18   852.85
                              871.01   903.91   913.08   921.29   963.54
                              988.92  1023.63  1040.15  1068.79  1106.42
                             1158.06  1218.66  1253.07  1261.61  1281.51
                             1307.91  1312.00  1348.28  1361.91  1370.49
                             1444.26  1458.92  1474.69  1487.96  1504.55
                             1555.64  1556.91  1574.58  1619.27  1642.31
                             1672.33  1685.94  1737.06  1762.56  1791.03
                             1829.15  1840.47  1864.78  1890.76  1917.07
                             1951.68  1956.99  1970.65  1989.77  1993.49
                             2021.48  2041.61  2073.27  2131.76  2164.03
                             2169.98  2175.92  2187.37  2190.19  2195.85
                             2201.25  2236.96  2249.31  2320.07  2387.36
                             2530.28  4340.94  4364.08  4388.88  4398.46
                             4402.34  4424.75  4441.76  4483.19  4498.88
                             4531.71  4540.51  4561.18  4649.20  4731.69
                             4769.16  5024.75

 Zero-point correction=                           0.289306 (Hartree/Particle)
 Thermal correction to Energy=                    0.307727
 Thermal correction to Enthalpy=                  0.308671
 Thermal correction to Gibbs Free Energy=         0.239901
 Sum of electronic and zero-point Energies=          -1272.410431
 Sum of electronic and thermal Energies=             -1272.392010
 Sum of electronic and thermal Enthalpies=           -1272.391066
 Sum of electronic and thermal Free Energies=        -1272.459836

                     E (Thermal)             CV                S
                      KCal/Mol        Cal/Mol-Kelvin    Cal/Mol-Kelvin
 Total                  193.102             68.789            144.739
 Electronic               0.000              0.000              0.000
 Translational            0.889              2.981             42.913
 Rotational               0.889              2.981             34.404
 Vibrational            191.324             62.827             67.422
 Vibration     1          0.593              1.986              6.557
 Vibration     2          0.594              1.983              5.632
 Vibration     3          0.594              1.981              5.317
 Vibration     4          0.595              1.978              4.816
 Vibration     5          0.598              1.968              4.138
 Vibration     6          0.599              1.966              4.013
 Vibration     7          0.604              1.950              3.468
 Vibration     8          0.607              1.938              3.211
 Vibration     9          0.612              1.921              2.914
 Vibration    10          0.619              1.900              2.647
 Vibration    11          0.627              1.875              2.396
 Vibration    12          0.641              1.831              2.078
 Vibration    13          0.645              1.817              1.995
 Vibration    14          0.669              1.743              1.652
 Vibration    15          0.685              1.696              1.487
 Vibration    16          0.698              1.658              1.371
 Vibration    17          0.709              1.627              1.288
 Vibration    18          0.729              1.569              1.153
 Vibration    19          0.739              1.542              1.096
 Vibration    20          0.789              1.412              0.869
 Vibration    21          0.807              1.367              0.804
 Vibration    22          0.833              1.302              0.719
 Vibration    23          0.875              1.206              0.611
 Vibration    24          0.890              1.172              0.575
 Vibration    25          0.950              1.047              0.462
 Vibration    26          0.964              1.020              0.440

                           ! Non-Optimized Parameters !
 Normal termination of Gaussian 16 at Sat Dec 12 15:27:48 2020.

 ----------------------------------------------------------------------
 # B3LYP/6-311++G(d,p) empiricaldispersion=gd3bj scf=xqc pop=npa geom=c
 heck
 ----------------------------------------------------------------------

 ---------------------------------------
 CID_76148848_JID_10258_Energie_neutraal
 ---------------------------------------
 Structure from the checkpoint file:  "JID_10258.chk"
 Charge =  0 Multiplicity = 1

 SCF Done:  E(RB3LYP) =  -1272.96334839     A.U. after   16 cycles
 Normal termination of Gaussian 16 at Sat Dec 12 15:36:54 2020.

 ----------------------------------------------------------------------
 # B3LYP/6-311++G(d,p) empiricaldispersion=gd3bj scf=xqc pop=npa geom=c
 heck
 ----------------------------------------------------------------------

 -------------------------------------
 CID_76148848_JID_10258_Energie_kation
 -------------------------------------
 Structure from the checkpoint file:  "JID_10258.chk"
 Charge =  1 Multiplicity = 2

 SCF Done:  E(UB3LYP) =  -1272.69097798     A.U. after   29 cycles
 Normal termination of Gaussian 16 at Sat Dec 12 16:00:16 2020.
 Gaussian 16:  ES64L-G16RevA.03 25-Dec-2016

 ----------------------------------------------------------------------
 # B3LYP/6-311++G(d,p) empiricaldispersion=gd3bj scf=xqc pop=npa geom=c
 heck
 ----------------------------------------------------------------------

 ------------------------------------
 CID_76148848_JID_10258_Energie_anion
 ------------------------------------
 Structure from the checkpoint file:  "JID_10258.chk"
 Charge = -1 Multiplicity = 2

                         Standard orientation:
 ---------------------------------------------------------------------
 Center     Atomic      Atomic             Coordinates (Angstroms)
 Number     Number       Type             X           Y           Z
 ---------------------------------------------------------------------
      1          6           0        6.314276    0.325123   -0.414862
      2          6           0        4.871660    0.023746   -0.211974
      3          6           0        4.144182   -1.123603   -0.148167
      4          6           0        2.808516   -0.681129    0.070961
      5          7           0        2.734998    0.634631    0.123224
      6          8           0        4.043685    1.088196   -0.053719
      7          6           0        1.634846   -1.620947    0.119585
      8          8           0        1.790615   -2.743835   -0.356832
      9          7           0        0.466666   -1.227753    0.690032
     10          6           0        0.084399    0.087954    1.163553
     11          6           0       -0.532599    0.999202    0.080904
     12          6           0       -0.257272    2.485813    0.340941
     13          6           0       -1.388711    3.207847   -0.396008
     14          6           0       -2.600951    2.300171   -0.149275
     15          7           0       -2.009811    0.969367    0.014484
     16          6           0       -2.755011   -0.158289   -0.058570
     17          7           0       -2.301369   -1.390177    0.007629
     18          6           0       -3.332249   -2.300965   -0.090548
     19          6           0       -4.586423   -1.798605   -0.225123
     20         16           0       -4.522936   -0.048000   -0.239194
     21          1           0        6.875841   -0.603816   -0.536955
     22          1           0        6.463106    0.943757   -1.306921
     23          1           0        6.724992    0.872227    0.441158
     24          1           0        4.470902   -2.145674   -0.250487
     25          1           0       -0.331110   -1.822039    0.466727
     26          1           0       -0.635431   -0.038327    1.978345
     27          1           0        0.966093    0.584679    1.565399
     28          1           0       -0.117287    0.699435   -0.890799
     29          1           0       -0.322498    2.682342    1.419385
     30          1           0        0.745732    2.759597    0.008373
     31          1           0       -1.558165    4.228621   -0.042953
     32          1           0       -1.170888    3.253162   -1.468973
     33          1           0       -3.152712    2.588546    0.757386
     34          1           0       -3.310133    2.310178   -0.986591
     35          1           0       -3.091388   -3.357346   -0.057083
     36          1           0       -5.525852   -2.322602   -0.320592
 ---------------------------------------------------------------------

 SCF Done:  E(UB3LYP) =  -1272.95863923     A.U. after   33 cycles
 SCF Done:  E(UB3LYP) =  -1272.95863923     a.u. after    1 cycles

 The electronic state is 2-A.
 Alpha  occ. eigenvalues --  -88.78841 -19.08105 -18.95760 -14.25430 -14.22610
 Alpha  occ. eigenvalues --  -14.21131 -14.20778 -10.18080 -10.14751 -10.12473
 Alpha  occ. eigenvalues --  -10.11793 -10.11623 -10.11592 -10.10573 -10.09920
 Alpha  occ. eigenvalues --  -10.09272 -10.08302 -10.08157 -10.07573 -10.06089
 Alpha  occ. eigenvalues --   -7.87467  -5.83767  -5.83422  -5.83005  -1.02048
 Alpha  occ. eigenvalues --   -0.91188  -0.90086  -0.84485  -0.80448  -0.75068
 Alpha  occ. eigenvalues --   -0.71424  -0.70751  -0.69747  -0.66608  -0.63161
 Alpha  occ. eigenvalues --   -0.61925  -0.58459  -0.54203  -0.53154  -0.51592
 Alpha  occ. eigenvalues --   -0.48687  -0.48213  -0.45921  -0.44372  -0.42505
 Alpha  occ. eigenvalues --   -0.41565  -0.39638  -0.37918  -0.37466  -0.36996
 Alpha  occ. eigenvalues --   -0.36317  -0.35709  -0.33933  -0.32579  -0.32326
 Alpha  occ. eigenvalues --   -0.32098  -0.31721  -0.31584  -0.30478  -0.29808
 Alpha  occ. eigenvalues --   -0.28655  -0.28270  -0.27902  -0.27821  -0.26886
 Alpha  occ. eigenvalues --   -0.25849  -0.24987  -0.24364  -0.20924  -0.19406
 Alpha  occ. eigenvalues --   -0.18818  -0.18667  -0.18107  -0.15050  -0.13870
 Alpha  occ. eigenvalues --   -0.13629  -0.11406   0.04204
 Alpha virt. eigenvalues --    0.05732   0.06220   0.06301   0.07717   0.08062
 Alpha virt. eigenvalues --    0.08738   0.08879   0.09326   0.09487   0.09834
 Alpha virt. eigenvalues --    0.10435   0.10898   0.11316   0.11516   0.12131

  Beta  occ. eigenvalues --  -88.78837 -19.07908 -18.95601 -14.25431 -14.22187
  Beta  occ. eigenvalues --  -14.21132 -14.20759 -10.18071 -10.14650 -10.12368
  Beta  occ. eigenvalues --  -10.11768 -10.11616 -10.11591 -10.10567 -10.09917
  Beta  occ. eigenvalues --  -10.09274 -10.08209 -10.08125 -10.07565 -10.06140
  Beta  occ. eigenvalues --   -7.87461  -5.83760  -5.83418  -5.83001  -1.01650
  Beta  occ. eigenvalues --   -0.90931  -0.90064  -0.84475  -0.80343  -0.74585
  Beta  occ. eigenvalues --   -0.71403  -0.70734  -0.69568  -0.66568  -0.63140
  Beta  occ. eigenvalues --   -0.61788  -0.58384  -0.54083  -0.52916  -0.51552
  Beta  occ. eigenvalues --   -0.48644  -0.48032  -0.45849  -0.44255  -0.42474
  Beta  occ. eigenvalues --   -0.41527  -0.39510  -0.37892  -0.37423  -0.36399
  Beta  occ. eigenvalues --   -0.36214  -0.35600  -0.33900  -0.32460  -0.32119
  Beta  occ. eigenvalues --   -0.32033  -0.31613  -0.31328  -0.30268  -0.29738
  Beta  occ. eigenvalues --   -0.28578  -0.28100  -0.27864  -0.27611  -0.26554
  Beta  occ. eigenvalues --   -0.25778  -0.24856  -0.24311  -0.20892  -0.19336
  Beta  occ. eigenvalues --   -0.18771  -0.18232  -0.17219  -0.13866  -0.13530
  Beta  occ. eigenvalues --   -0.13320  -0.11383
  Beta virt. eigenvalues --    0.06150   0.06213   0.07033   0.07733   0.08379
  Beta virt. eigenvalues --    0.08764   0.08837   0.09118   0.09461   0.09763
  Beta virt. eigenvalues --    0.09875   0.10501   0.10848   0.11502   0.11568

 Mulliken charges and spin densities:
               1          2
     1  C    0.000647  -0.357855
     2  C   -0.168954   0.237932
     3  C   -0.461012  -0.023288
     4  C    0.382188   0.043131
     5  N   -0.616462   0.231437
     6  O    0.352230   0.035701
     7  C   -0.294652   0.031615
     8  O   -0.373214   0.054249
     9  N   -0.051593   0.002859
    10  C   -0.337025  -0.159588
    11  C    0.188999  -0.288546
    12  C   -0.500390   0.220047
    13  C    0.041295  -0.705474
    14  C    0.955631  -1.028659
    15  N    0.371373   0.125646
    16  C   -0.868904   0.452559
    17  N   -0.085102   0.019017
    18  C    0.065612  -0.111833
    19  C   -0.524219   0.124918
    20  S    0.214300  -0.336047
    21  H    0.101785   0.053897
    22  H    0.143747   0.006363
    23  H    0.004183   0.152538
    24  H    0.155400   0.014263
    25  H    0.430320   0.008623
    26  H    0.164242   0.050251
    27  H    0.175278   0.032089
    28  H    0.157555   0.092973
    29  H    0.099946   0.049772
    30  H    0.141674   0.071687
    31  H   -0.616875   0.818687
    32  H    0.156065  -0.005953
    33  H   -0.231997   0.423000
    34  H   -0.279133   0.409329
    35  H    0.148699  -0.001815
    36  H   -0.041635   0.256471
 Sum of Mulliken charges =  -1.00000   1.00000

 Dipole moment (field-independent basis, Debye):
    X=              0.2573    Y=             -2.0290    Z=              0.2623  Tot=              2.0620
 Quadrupole moment (field-independent basis, Debye-Ang):
   XX=           -189.4169   YY=           -181.5970   ZZ=           -143.0688
   XY=             17.7473   XZ=             -1.1208   YZ=             -4.7186

 Summary of Natural Population Analysis:

                                       Natural Population
                Natural  -----------------------------------------------
    Atom  No    Charge         Core      Valence    Rydberg      Total
 -----------------------------------------------------------------------
      C    1   -0.30660      0.99963     2.30203    0.00494     3.30660
      C    2    0.17515      0.99951     1.81230    0.01303     2.82485
      C    3   -0.17278      0.99945     2.16432    0.00901     3.17278
      C    4    0.04569      0.99955     1.94060    0.01416     2.95431
      N    5   -0.03401      0.99967     2.52104    0.01331     3.53401
      O    6   -0.15953      0.99985     3.15047    0.00920     4.15953
      C    7    0.33889      0.99961     1.64016    0.02133     2.66111
      O    8   -0.31478      0.99988     3.30956    0.00533     4.31478
      N    9   -0.31831      0.99966     2.80872    0.00992     3.81831
      C   10   -0.09732      0.99959     2.08730    0.01044     3.09732
      C   11    0.00079      0.99958     1.98763    0.01200     2.99921
      C   12   -0.19232      0.99961     2.18368    0.00903     3.19232
      C   13   -0.19326      0.99963     2.18517    0.00846     3.19326
      C   14   -0.08278      0.99963     2.07263    0.01053     3.08278
      N   15   -0.25477      0.99961     2.74383    0.01133     3.75477
      C   16    0.16185      0.99957     1.81890    0.01968     2.83815
      N   17   -0.29751      0.99964     2.78564    0.01223     3.79751
      C   18   -0.00770      0.99953     1.99458    0.01359     3.00770
      C   19   -0.23003      0.99953     2.22026    0.01024     3.23003
      S   20    0.15811      4.99948     2.82261    0.01980     7.84189
      H   21    0.10487      0.00000     0.39420    0.00093     0.39513
      H   22    0.10570      0.00000     0.39296    0.00134     0.39430
      H   23    0.10668      0.00000     0.39147    0.00185     0.39332
      H   24    0.11614      0.00000     0.38286    0.00100     0.38386
      H   25    0.20926      0.00000     0.28783    0.00291     0.29074
      H   26    0.09826      0.00000     0.40059    0.00115     0.40174
      H   27    0.11632      0.00000     0.38223    0.00144     0.38368
      H   28    0.10030      0.00000     0.39798    0.00172     0.39970
      H   29    0.09574      0.00000     0.40314    0.00112     0.40426
      H   30    0.11625      0.00000     0.38235    0.00140     0.38375
      H   31    0.10741      0.00000     0.39054    0.00205     0.39259
      H   32    0.09766      0.00000     0.40119    0.00115     0.40234
      H   33    0.09697      0.00000     0.40092    0.00211     0.40303
      H   34    0.09939      0.00000     0.39886    0.00175     0.40061
      H   35    0.09950      0.00000     0.39952    0.00098     0.40050
      H   36    0.11074      0.00000     0.38839    0.00087     0.38926
 =======================================================================
   * Total *   -0.00000     23.99223    52.74645    0.26132    77.00000

 Normal termination of Gaussian 16 at Sat Dec 12 16:26:47 2020.
