 Gaussian 16, Revision A.03,

 -----------------------------------------------------------
 # opt freq B3LYP/6-31G(d) empiricaldispersion=gd3bj scf=xqc
 -----------------------------------------------------------

 -----------------------------
 CID_88282297_JID_547_neutraal
 -----------------------------
 Symbolic Z-matrix:
 Charge =  0 Multiplicity = 1

 SCF Done:  E(RB3LYP) =  -785.291097242     A.U. after   13 cycles
 SCF Done:  E(RB3LYP) =  -785.293579431     A.U. after   11 cycles
 SCF Done:  E(RB3LYP) =  -785.294910479     A.U. after   11 cycles
 SCF Done:  E(RB3LYP) =  -785.295619571     A.U. after   10 cycles
 SCF Done:  E(RB3LYP) =  -785.295891167     A.U. after   11 cycles
 SCF Done:  E(RB3LYP) =  -785.295966037     A.U. after   10 cycles
 SCF Done:  E(RB3LYP) =  -785.296001186     A.U. after    9 cycles
 SCF Done:  E(RB3LYP) =  -785.296009184     A.U. after    9 cycles
 SCF Done:  E(RB3LYP) =  -785.296011274     A.U. after    8 cycles
 SCF Done:  E(RB3LYP) =  -785.296011790     A.U. after    7 cycles
 Optimization completed.
    -- Stationary point found.
 Normal termination of Gaussian 16 at Tue Dec  8 12:16:55 2020.

 --------------------------------------------------------------------
 #N Geom=AllCheck Guess=TCheck SCRF=Check GenChk RB3LYP/6-31G(d) Freq
 --------------------------------------------------------------------

 Structure from the checkpoint file:  "JID_547.chk"
 -----------------------------
 CID_88282297_JID_547_neutraal
 -----------------------------
 Charge =  0 Multiplicity = 1

 SCF Done:  E(RB3LYP) =  -785.296011790     A.U. after    1 cycles

  Exact polarizability: 121.768  -2.483 104.274   0.131  -0.161  86.926
 Approx polarizability: 146.026  -6.095 151.495  -1.320  -0.960 136.902

                      1                      2                      3
                      A                      A                      A
 Frequencies --     36.6864                46.2897                68.3585
 Red. masses --      3.9677                 3.7562                 2.9378
 Frc consts  --      0.0031                 0.0047                 0.0081
 IR Inten    --      0.1186                 0.3423                 0.2416

                      4                      5                      6
                      A                      A                      A
 Frequencies --    108.6728               123.2294               164.1078
 Red. masses --      2.4609                 3.4389                 2.7701
 Frc consts  --      0.0171                 0.0308                 0.0440
 IR Inten    --      4.1124                 1.4895                 0.3051

                      7                      8                      9
                      A                      A                      A
 Frequencies --    190.8229               227.5527               241.5080
 Red. masses --      1.8609                 1.1612                 1.4678
 Frc consts  --      0.0399                 0.0354                 0.0504
 IR Inten    --      1.3560                 5.9731                 6.1435

                     10                     11                     12
                      A                      A                      A
 Frequencies --    267.7943               282.6346               300.5664
 Red. masses --      2.5075                 2.0592                 1.6389
 Frc consts  --      0.1059                 0.0969                 0.0872
 IR Inten    --      4.6089                18.6185                19.5950

                     13                     14                     15
                      A                      A                      A
 Frequencies --    340.0813               360.6585               426.2142
 Red. masses --      1.8857                 2.2490                 2.0798
 Frc consts  --      0.1285                 0.1724                 0.2226
 IR Inten    --     25.1351                 7.8186                 4.2053

                     16                     17                     18
                      A                      A                      A
 Frequencies --    444.9150               520.6022               559.9547
 Red. masses --      1.9449                 2.3275                 2.6880
 Frc consts  --      0.2268                 0.3717                 0.4966
 IR Inten    --      8.7021                 0.5635                 0.8045

                     19                     20                     21
                      A                      A                      A
 Frequencies --    657.2003               729.5218               766.0790
 Red. masses --      2.5780                 1.3057                 1.7968
 Frc consts  --      0.6560                 0.4094                 0.6213
 IR Inten    --      7.7523                89.8259                27.4599

                     22                     23                     24
                      A                      A                      A
 Frequencies --    829.9449               833.4569               882.1613
 Red. masses --      1.7792                 2.3893                 1.6496
 Frc consts  --      0.7221                 0.9779                 0.7564
 IR Inten    --     37.4585                10.3797                64.9780

                     25                     26                     27
                      A                      A                      A
 Frequencies --    894.9668               918.9813               962.6307
 Red. masses --      1.5070                 1.7705                 1.4560
 Frc consts  --      0.7112                 0.8810                 0.7949
 IR Inten    --     45.1394                13.0643                43.4373

                     28                     29                     30
                      A                      A                      A
 Frequencies --    974.0474               997.9552              1026.4512
 Red. masses --      1.7881                 2.0300                 1.5573
 Frc consts  --      0.9996                 1.1912                 0.9667
 IR Inten    --      2.7710                 6.2115                 6.4170

                     31                     32                     33
                      A                      A                      A
 Frequencies --   1054.2734              1091.0138              1113.7551
 Red. masses --      2.0352                 1.7576                 2.2201
 Frc consts  --      1.3328                 1.2326                 1.6226
 IR Inten    --      3.8826                12.4420                 4.6920

                     34                     35                     36
                      A                      A                      A
 Frequencies --   1124.4376              1159.6868              1171.1616
 Red. masses --      2.2169                 1.8119                 1.7700
 Frc consts  --      1.6515                 1.4357                 1.4304
 IR Inten    --     11.3926                 6.6660                11.7659

                     37                     38                     39
                      A                      A                      A
 Frequencies --   1190.6107              1202.7207              1223.1994
 Red. masses --      1.5824                 1.1883                 1.4372
 Frc consts  --      1.3216                 1.0128                 1.2670
 IR Inten    --     15.8497                 6.0140                 6.1882

                     40                     41                     42
                      A                      A                      A
 Frequencies --   1263.7365              1284.6318              1299.4586
 Red. masses --      1.1842                 1.3268                 1.2949
 Frc consts  --      1.1142                 1.2901                 1.2883
 IR Inten    --      4.1568                 8.4275                 8.0423

                     43                     44                     45
                      A                      A                      A
 Frequencies --   1339.8190              1350.6145              1370.9731
 Red. masses --      1.2924                 1.2446                 1.2378
 Frc consts  --      1.3669                 1.3376                 1.3707
 IR Inten    --      0.2270                 0.5124                 3.1619

                     46                     47                     48
                      A                      A                      A
 Frequencies --   1384.5283              1396.3897              1403.9028
 Red. masses --      1.3601                 1.3824                 1.3368
 Frc consts  --      1.5361                 1.5882                 1.5523
 IR Inten    --      9.0123                 0.2133                 7.7901

                     49                     50                     51
                      A                      A                      A
 Frequencies --   1419.0260              1455.8868              1481.1234
 Red. masses --      1.3148                 1.4040                 1.1569
 Frc consts  --      1.5599                 1.7533                 1.4953
 IR Inten    --      5.1179                13.9489                 0.5187

                     52                     53                     54
                      A                      A                      A
 Frequencies --   1503.1102              1512.4590              1516.0027
 Red. masses --      1.0939                 1.1466                 1.1087
 Frc consts  --      1.4562                 1.5453                 1.5013
 IR Inten    --      6.4621                11.8320                 0.5510

                     55                     56                     57
                      A                      A                      A
 Frequencies --   1520.5964              1522.7156              1533.8899
 Red. masses --      1.0765                 1.0872                 1.0981
 Frc consts  --      1.4666                 1.4853                 1.5222
 IR Inten    --      6.5015                 6.1533                 9.9113

                     58                     59                     60
                      A                      A                      A
 Frequencies --   1550.0014              1552.1788              1696.0819
 Red. masses --      1.0830                 1.0500                 1.0863
 Frc consts  --      1.5331                 1.4904                 1.8411
 IR Inten    --      3.8398                 4.2162                29.0118

                     61                     62                     63
                      A                      A                      A
 Frequencies --   2667.6845              2935.7112              2967.4128
 Red. masses --      1.0383                 1.0748                 1.0591
 Frc consts  --      4.3537                 5.4575                 5.4949
 IR Inten    --     17.3777                86.0403                71.6594

                     64                     65                     66
                      A                      A                      A
 Frequencies --   3037.4509              3043.5457              3048.8628
 Red. masses --      1.0613                 1.0638                 1.0656
 Frc consts  --      5.7689                 5.8061                 5.8363
 IR Inten    --     28.3518                15.6580                19.2800

                     67                     68                     69
                      A                      A                      A
 Frequencies --   3054.8308              3067.8221              3070.0197
 Red. masses --      1.0653                 1.0856                 1.0896
 Frc consts  --      5.8572                 6.0200                 6.0504
 IR Inten    --      7.0618                21.5872                14.7833

                     70                     71                     72
                      A                      A                      A
 Frequencies --   3071.2726              3074.0719              3087.0677
 Red. masses --      1.0843                 1.0852                 1.0988
 Frc consts  --      6.0263                 6.0419                 6.1696
 IR Inten    --     39.5269                84.5272                49.0113

                     73                     74                     75
                      A                      A                      A
 Frequencies --   3092.8169              3103.8359              3117.8601
 Red. masses --      1.1005                 1.0993                 1.1023
 Frc consts  --      6.2022                 6.2399                 6.3132
 IR Inten    --     63.8728                16.0586                28.9915

                     76                     77                     78
                      A                      A                      A
 Frequencies --   3461.9475              3502.8158              3550.7284
 Red. masses --      1.0495                 1.0738                 1.0927
 Frc consts  --      7.4108                 7.7627                 8.1168
 IR Inten    --     10.0018                 1.6088                 1.4823

 - Thermochemistry -
 -------------------
 Temperature   298.150 Kelvin.  Pressure   1.00000 Atm.
 Atom     1 has atomic number  6 and mass  12.00000

 Molecular mass:   162.11907 amu.
 Principal axes and moments of inertia in atomic units:
                           1         2         3
     Eigenvalues --   938.950473527.498494063.12287
           X            0.99993   0.01144   0.00151
           Y           -0.01146   0.99987   0.01112
           Z           -0.00138  -0.01113   0.99994
 This molecule is an asymmetric top.
 Rotational symmetry number  1.
 Warning -- assumption of classical behavior for rotation
           may cause significant error
 Rotational temperatures (Kelvin)      0.09225     0.02455     0.02132
 Rotational constants (GHZ):           1.92208     0.51162     0.44418
 Zero-point vibrational energy     668878.7 (Joules/Mol)
                                  159.86585 (Kcal/Mol)
 Warning -- explicit consideration of  18 degrees of freedom as
           vibrations may cause significant error
 Vibrational temperatures:     52.78    66.60    98.35   156.36   177.30
          (Kelvin)            236.11   274.55   327.40   347.48   385.30
                              406.65   432.45   489.30   518.91   613.23
                              640.13   749.03   805.65   945.56  1049.62
                             1102.22  1194.11  1199.16  1269.23  1287.66
                             1322.21  1385.01  1401.44  1435.84  1476.83
                             1516.86  1569.73  1602.45  1617.81  1668.53
                             1685.04  1713.02  1730.45  1759.91  1818.23
                             1848.30  1869.63  1927.70  1943.23  1972.52
                             1992.03  2009.09  2019.90  2041.66  2094.70
                             2131.01  2162.64  2176.09  2181.19  2187.80
                             2190.85  2206.93  2230.11  2233.24  2440.28
                             3838.20  4223.83  4269.45  4370.21  4378.98
                             4386.63  4395.22  4413.91  4417.07  4418.88
                             4422.90  4441.60  4449.87  4465.73  4485.91
                             4980.97  5039.77  5108.71

 Zero-point correction=                           0.254762 (Hartree/Particle)
 Thermal correction to Energy=                    0.267819
 Thermal correction to Enthalpy=                  0.268763
 Thermal correction to Gibbs Free Energy=         0.214579
 Sum of electronic and zero-point Energies=           -785.041249
 Sum of electronic and thermal Energies=              -785.028193
 Sum of electronic and thermal Enthalpies=            -785.027249
 Sum of electronic and thermal Free Energies=         -785.081433

                     E (Thermal)             CV                S
                      KCal/Mol        Cal/Mol-Kelvin    Cal/Mol-Kelvin
 Total                  168.059             47.321            114.040
 Electronic               0.000              0.000              0.000
 Translational            0.889              2.981             41.158
 Rotational               0.889              2.981             30.976
 Vibrational            166.281             41.359             41.905
 Vibration     1          0.594              1.982              5.430
 Vibration     2          0.595              1.979              4.970
 Vibration     3          0.598              1.969              4.200
 Vibration     4          0.606              1.942              3.292
 Vibration     5          0.610              1.930              3.049
 Vibration     6          0.623              1.887              2.502
 Vibration     7          0.634              1.853              2.220
 Vibration     8          0.651              1.799              1.898
 Vibration     9          0.658              1.777              1.792
 Vibration    10          0.673              1.732              1.610
 Vibration    11          0.682              1.706              1.518
 Vibration    12          0.693              1.673              1.414
 Vibration    13          0.720              1.595              1.212
 Vibration    14          0.735              1.553              1.119
 Vibration    15          0.788              1.413              0.871
 Vibration    16          0.804              1.372              0.811
 Vibration    17          0.876              1.204              0.609
 Vibration    18          0.916              1.118              0.524

                           ! Non-Optimized Parameters !
 Normal termination of Gaussian 16 at Tue Dec  8 12:23:05 2020.

 ----------------------------------------------------------------------
 # B3LYP/6-311++G(d,p) empiricaldispersion=gd3bj scf=xqc pop=npa geom=c
 heck
 ----------------------------------------------------------------------

 -------------------------------------
 CID_88282297_JID_547_Energie_neutraal
 -------------------------------------
 Structure from the checkpoint file:  "JID_547.chk"
 Charge =  0 Multiplicity = 1

 SCF Done:  E(RB3LYP) =  -785.450587057     A.U. after   13 cycles
 Normal termination of Gaussian 16 at Tue Dec  8 12:27:09 2020.

 ----------------------------------------------------------------------
 # B3LYP/6-311++G(d,p) empiricaldispersion=gd3bj scf=xqc pop=npa geom=c
 heck
 ----------------------------------------------------------------------

 -----------------------------------
 CID_88282297_JID_547_Energie_kation
 -----------------------------------
 Structure from the checkpoint file:  "JID_547.chk"
 Charge =  1 Multiplicity = 2

 SCF Done:  E(UB3LYP) =  -785.154826975     A.U. after   25 cycles
 Normal termination of Gaussian 16 at Tue Dec  8 12:40:11 2020.
 Gaussian 16:  ES64L-G16RevA.03 25-Dec-2016

 ----------------------------------------------------------------------
 # B3LYP/6-311++G(d,p) empiricaldispersion=gd3bj scf=xqc pop=npa geom=c
 heck
 ----------------------------------------------------------------------

 ----------------------------------
 CID_88282297_JID_547_Energie_anion
 ----------------------------------
 Structure from the checkpoint file:  "JID_547.chk"
 Charge = -1 Multiplicity = 2

                         Standard orientation:
 ---------------------------------------------------------------------
 Center     Atomic      Atomic             Coordinates (Angstroms)
 Number     Number       Type             X           Y           Z
 ---------------------------------------------------------------------
      1          6           0        4.018353    0.469161    0.385554
      2          7           0        3.102593    0.221253   -0.720640
      3          6           0        2.316270   -1.003322   -0.599675
      4          6           0        1.405056   -1.130993    0.638075
      5          6           0        0.434084    0.044207    0.830214
      6          6           0       -0.523584    0.296036   -0.346409
      7          6           0       -1.440927   -0.889350   -0.691547
      8          6           0       -2.541455   -1.215574    0.333365
      9          7           0       -3.821983   -0.635404   -0.085679
     10         16           0       -1.450561    1.885381   -0.076640
     11          1           0        4.727509   -0.364620    0.453560
     12          1           0        3.545071    0.584095    1.376943
     13          1           0        4.592945    1.378260    0.180152
     14          1           0        2.485616    1.021337   -0.841789
     15          1           0        1.715503   -1.097456   -1.512996
     16          1           0        3.017326   -1.848450   -0.607600
     17          1           0        0.854802   -2.078023    0.571273
     18          1           0        2.022214   -1.207645    1.541871
     19          1           0       -0.153627   -0.125327    1.741571
     20          1           0        1.007344    0.961444    1.007218
     21          1           0        0.068242    0.528014   -1.238936
     22          1           0       -1.931022   -0.703009   -1.652820
     23          1           0       -0.798056   -1.766225   -0.837036
     24          1           0       -2.676070   -2.302030    0.387410
     25          1           0       -2.212141   -0.900839    1.342000
     26          1           0       -4.523902   -0.786957    0.637230
     27          1           0       -3.714662    0.373198   -0.184347
     28          1           0       -1.789171    1.646197    1.209317
 ---------------------------------------------------------------------

 SCF Done:  E(UB3LYP) =  -785.437969825     A.U. after   25 cycles

 The electronic state is 2-A.
 Alpha  occ. eigenvalues --  -88.73828 -14.19982 -14.18499 -10.11073 -10.09340
 Alpha  occ. eigenvalues --  -10.08728 -10.08610 -10.07001 -10.06954 -10.06499
 Alpha  occ. eigenvalues --   -7.82553  -5.78911  -5.78576  -5.77952  -0.80623
 Alpha  occ. eigenvalues --   -0.77859  -0.72333  -0.65953  -0.62310  -0.59778
 Alpha  occ. eigenvalues --   -0.55792  -0.53269  -0.49020  -0.44996  -0.40027
 Alpha  occ. eigenvalues --   -0.39315  -0.38730  -0.35642  -0.34519  -0.33751
 Alpha  occ. eigenvalues --   -0.32554  -0.31461  -0.29848  -0.29433  -0.28224
 Alpha  occ. eigenvalues --   -0.26531  -0.26139  -0.25626  -0.25161  -0.23389
 Alpha  occ. eigenvalues --   -0.22543  -0.20838  -0.14681  -0.13333  -0.12739
 Alpha  occ. eigenvalues --    0.04456
 Alpha virt. eigenvalues --    0.06531   0.07483   0.07793   0.08705   0.08940
 Alpha virt. eigenvalues --    0.09899   0.10269   0.11047   0.11118   0.11722
 Alpha virt. eigenvalues --    0.12082   0.12960   0.13753   0.13946   0.14238

  Beta  occ. eigenvalues --  -88.73810 -14.19973 -14.18475 -10.11068 -10.09329
  Beta  occ. eigenvalues --  -10.08691 -10.08571 -10.06992 -10.06926 -10.06478
  Beta  occ. eigenvalues --   -7.82533  -5.78874  -5.78561  -5.77938  -0.80602
  Beta  occ. eigenvalues --   -0.77815  -0.72297  -0.65906  -0.62245  -0.59718
  Beta  occ. eigenvalues --   -0.55715  -0.53186  -0.48958  -0.44929  -0.39984
  Beta  occ. eigenvalues --   -0.39270  -0.38686  -0.35589  -0.34463  -0.33714
  Beta  occ. eigenvalues --   -0.32489  -0.31415  -0.29788  -0.29380  -0.28184
  Beta  occ. eigenvalues --   -0.26478  -0.26103  -0.25585  -0.25127  -0.23359
  Beta  occ. eigenvalues --   -0.22498  -0.20793  -0.14639  -0.13297  -0.12718
  Beta virt. eigenvalues --    0.06759   0.07583   0.08098   0.08104   0.09419
  Beta virt. eigenvalues --    0.09476   0.10147   0.10525   0.11445   0.11549
  Beta virt. eigenvalues --    0.12180   0.12350   0.13138   0.13984   0.14397

 Mulliken charges and spin densities:
               1          2
     1  C    0.796475  -1.214281
     2  N   -0.243643   0.119908
     3  C   -0.523378  -0.137512
     4  C    0.789883  -1.025480
     5  C   -0.714607   0.043440
     6  C    0.408622   0.495216
     7  C   -0.620427   0.019385
     8  C    0.972284  -1.648472
     9  N   -0.481419   0.180258
    10  S    0.589242  -0.794881
    11  H   -0.235449   0.386954
    12  H   -0.151073   0.268207
    13  H   -0.272910   0.411176
    14  H    0.140589   0.085320
    15  H   -0.020261   0.205826
    16  H   -0.157703   0.305002
    17  H   -0.160654   0.310733
    18  H   -0.255358   0.443404
    19  H   -0.292865   0.439561
    20  H   -0.151691   0.343631
    21  H    0.155932   0.080627
    22  H    0.098771   0.095989
    23  H    0.334204  -0.233107
    24  H   -0.300731   0.465531
    25  H   -0.259573   0.410557
    26  H   -0.086040   0.316918
    27  H    0.086128   0.117948
    28  H   -0.444348   0.508144
 Sum of Mulliken charges =  -1.00000   1.00000

 Dipole moment (field-independent basis, Debye):
    X=              0.0308    Y=              0.6280    Z=             -3.6927  Tot=              3.7458
 Quadrupole moment (field-independent basis, Debye-Ang):
   XX=           -154.3918   YY=           -109.5320   ZZ=           -108.6945
   XY=             -4.1961   XZ=              1.0699   YZ=              1.2864

 Summary of Natural Population Analysis:

                                       Natural Population
                Natural  -----------------------------------------------
    Atom  No    Charge         Core      Valence    Rydberg      Total
 -----------------------------------------------------------------------
      C    1   -0.18099      0.99966     2.17294    0.00839     3.18099
      N    2   -0.34058      0.99976     2.82899    0.01183     3.84058
      C    3   -0.08889      0.99962     2.07702    0.01225     3.08889
      C    4   -0.20221      0.99962     2.19356    0.00903     3.20221
      C    5   -0.20395      0.99959     2.19152    0.01284     3.20395
      C    6   -0.15349      0.99954     2.14117    0.01277     3.15349
      C    7   -0.20206      0.99958     2.19238    0.01010     3.20206
      C    8   -0.09368      0.99964     2.08174    0.01231     3.09368
      N    9   -0.42806      0.99978     2.91730    0.01098     3.92806
      S   10   -0.03307      4.99965     3.01850    0.01493     8.03307
      H   11    0.09134      0.00000     0.40738    0.00128     0.40866
      H   12    0.08175      0.00000     0.41653    0.00172     0.41825
      H   13    0.09409      0.00000     0.40490    0.00101     0.40591
      H   14    0.17001      0.00000     0.32657    0.00343     0.32999
      H   15    0.08985      0.00000     0.40886    0.00130     0.41015
      H   16    0.09281      0.00000     0.40616    0.00103     0.40719
      H   17    0.09894      0.00000     0.39966    0.00140     0.40106
      H   18    0.10208      0.00000     0.39653    0.00140     0.39792
      H   19    0.10521      0.00000     0.39263    0.00216     0.39479
      H   20    0.10276      0.00000     0.39558    0.00166     0.39724
      H   21    0.10016      0.00000     0.39851    0.00132     0.39984
      H   22    0.10448      0.00000     0.39411    0.00141     0.39552
      H   23    0.10184      0.00000     0.39683    0.00133     0.39816
      H   24    0.09045      0.00000     0.40819    0.00136     0.40955
      H   25    0.08260      0.00000     0.41404    0.00335     0.41740
      H   26    0.17416      0.00000     0.32383    0.00202     0.32584
      H   27    0.17773      0.00000     0.31978    0.00249     0.32227
      H   28    0.06673      0.00000     0.42965    0.00361     0.43327
 =======================================================================
   * Total *    0.00000     13.99643    30.85487    0.14870    45.00000

 Normal termination of Gaussian 16 at Tue Dec  8 12:51:57 2020.
