 Gaussian 16, Revision A.03,

 -----------------------------------------------------------
 # opt freq B3LYP/6-31G(d) empiricaldispersion=gd3bj scf=xqc
 -----------------------------------------------------------

 -------------------------------
 CID_153667452_JID_7117_neutraal
 -------------------------------
 Symbolic Z-matrix:
 Charge =  0 Multiplicity = 1

 SCF Done:  E(RB3LYP) =  -764.982313530     A.U. after   14 cycles
 SCF Done:  E(RB3LYP) =  -764.987481709     A.U. after   12 cycles
 SCF Done:  E(RB3LYP) =  -764.988785651     A.U. after   12 cycles
 SCF Done:  E(RB3LYP) =  -764.989866569     A.U. after   14 cycles
 SCF Done:  E(RB3LYP) =  -764.990419583     A.U. after   12 cycles
 SCF Done:  E(RB3LYP) =  -764.990877287     A.U. after   12 cycles
 SCF Done:  E(RB3LYP) =  -764.991121278     A.U. after   12 cycles
 SCF Done:  E(RB3LYP) =  -764.991232824     A.U. after   12 cycles
 SCF Done:  E(RB3LYP) =  -764.991286086     A.U. after   12 cycles
 SCF Done:  E(RB3LYP) =  -764.991297868     A.U. after   10 cycles
 SCF Done:  E(RB3LYP) =  -764.991307409     A.U. after   11 cycles
 SCF Done:  E(RB3LYP) =  -764.991309289     A.U. after   10 cycles
 SCF Done:  E(RB3LYP) =  -764.991309491     A.U. after    9 cycles
 SCF Done:  E(RB3LYP) =  -764.991309563     A.U. after    7 cycles
 SCF Done:  E(RB3LYP) =  -764.991309579     A.U. after    7 cycles
 Optimization completed.
    -- Stationary point found.
 Normal termination of Gaussian 16 at Fri Dec 11 11:52:22 2020.

 --------------------------------------------------------------------
 #N Geom=AllCheck Guess=TCheck SCRF=Check GenChk RB3LYP/6-31G(d) Freq
 --------------------------------------------------------------------

 Structure from the checkpoint file:  "JID_7117.chk"
 -------------------------------
 CID_153667452_JID_7117_neutraal
 -------------------------------
 Charge =  0 Multiplicity = 1

 SCF Done:  E(RB3LYP) =  -764.991309579     A.U. after    1 cycles

  Exact polarizability: 190.215  -2.166 154.629  -1.975  -5.420 104.546
 Approx polarizability: 250.170  -9.183 255.080  -3.313 -15.494 159.328

                      1                      2                      3
                      A                      A                      A
 Frequencies --     15.8758                44.9954                83.4427
 Red. masses --      4.0240                 4.9063                 5.7115
 Frc consts  --      0.0006                 0.0059                 0.0234
 IR Inten    --      0.4480                 0.7667                 1.0338

                      4                      5                      6
                      A                      A                      A
 Frequencies --    110.1560               122.2764               168.9659
 Red. masses --      3.2476                 3.9126                 3.6540
 Frc consts  --      0.0232                 0.0345                 0.0615
 IR Inten    --      1.0746                 1.2573                 0.7197

                      7                      8                      9
                      A                      A                      A
 Frequencies --    222.5678               232.0645               271.3061
 Red. masses --      3.4972                 3.5399                 2.6241
 Frc consts  --      0.1021                 0.1123                 0.1138
 IR Inten    --      7.1030                 3.5360                 0.9992

                     10                     11                     12
                      A                      A                      A
 Frequencies --    291.5057               326.7030               355.0593
 Red. masses --      3.5840                 3.8440                 3.5292
 Frc consts  --      0.1794                 0.2417                 0.2621
 IR Inten    --      2.9395                 2.7144                 0.7798

                     13                     14                     15
                      A                      A                      A
 Frequencies --    389.5287               394.0738               455.4627
 Red. masses --      2.4973                 2.6651                 3.2252
 Frc consts  --      0.2233                 0.2439                 0.3942
 IR Inten    --      4.2274                 3.1469                12.4867

                     16                     17                     18
                      A                      A                      A
 Frequencies --    471.6096               485.8120               509.6871
 Red. masses --      2.6782                 4.1575                 3.5796
 Frc consts  --      0.3510                 0.5781                 0.5479
 IR Inten    --      2.1945                 0.9502                 6.4238

                     19                     20                     21
                      A                      A                      A
 Frequencies --    554.7340               564.9874               574.7237
 Red. masses --      2.8664                 3.3069                 5.6459
 Frc consts  --      0.5197                 0.6219                 1.0988
 IR Inten    --     24.2501                 6.2742                 2.5722

                     22                     23                     24
                      A                      A                      A
 Frequencies --    636.3215               717.3840               725.2560
 Red. masses --      4.0854                 3.5830                 3.4027
 Frc consts  --      0.9746                 1.0864                 1.0545
 IR Inten    --      3.2106                 5.2485                 3.8222

                     25                     26                     27
                      A                      A                      A
 Frequencies --    750.2554               768.4315               787.4886
 Red. masses --      2.7533                 1.6435                 3.1374
 Frc consts  --      0.9131                 0.5718                 1.1463
 IR Inten    --     18.8920                13.7256                20.3284

                     28                     29                     30
                      A                      A                      A
 Frequencies --    809.3910               847.6706               852.8607
 Red. masses --      1.9888                 1.6980                 3.1094
 Frc consts  --      0.7676                 0.7189                 1.3326
 IR Inten    --     63.1229                15.4321                16.6223

                     31                     32                     33
                      A                      A                      A
 Frequencies --    858.8848               873.5576               913.5726
 Red. masses --      4.0437                 2.9078                 3.0555
 Frc consts  --      1.7575                 1.3074                 1.5025
 IR Inten    --     18.0358                16.1592                19.4043

                     34                     35                     36
                      A                      A                      A
 Frequencies --    940.5044               944.1942               961.9450
 Red. masses --      1.5655                 1.6175                 1.9131
 Frc consts  --      0.8159                 0.8496                 1.0430
 IR Inten    --      4.7910                 1.6316                 9.2534

                     37                     38                     39
                      A                      A                      A
 Frequencies --    968.4049               980.5136              1000.0223
 Red. masses --      2.6586                 1.6965                 2.4536
 Frc consts  --      1.4690                 0.9610                 1.4457
 IR Inten    --     10.9145                 4.3169                 5.1537

                     40                     41                     42
                      A                      A                      A
 Frequencies --   1035.0852              1051.8436              1076.3997
 Red. masses --      2.5263                 2.6916                 1.9172
 Frc consts  --      1.5947                 1.7546                 1.3088
 IR Inten    --     71.5819                 0.7750                18.5159

                     43                     44                     45
                      A                      A                      A
 Frequencies --   1099.8081              1112.5623              1123.0462
 Red. masses --      2.7930                 2.3651                 2.0760
 Frc consts  --      1.9905                 1.7249                 1.5427
 IR Inten    --     39.4534                52.3551                 3.9137

                     46                     47                     48
                      A                      A                      A
 Frequencies --   1137.1633              1150.5824              1168.4922
 Red. masses --      1.7756                 1.7003                 2.9080
 Frc consts  --      1.3528                 1.3262                 2.3394
 IR Inten    --     29.0451                18.9187                18.2097

                     49                     50                     51
                      A                      A                      A
 Frequencies --   1207.1677              1244.2632              1251.7243
 Red. masses --      2.1933                 1.6782                 1.2632
 Frc consts  --      1.8831                 1.5308                 1.1661
 IR Inten    --     31.2851                24.6124                 7.6734

                     52                     53                     54
                      A                      A                      A
 Frequencies --   1258.6591              1286.0990              1293.6727
 Red. masses --      1.3753                 1.5643                 1.6964
 Frc consts  --      1.2837                 1.5244                 1.6727
 IR Inten    --     26.6620                32.5406                26.2074

                     55                     56                     57
                      A                      A                      A
 Frequencies --   1296.0025              1319.4613              1325.9215
 Red. masses --      1.5031                 3.1031                 1.5181
 Frc consts  --      1.4875                 3.1830                 1.5725
 IR Inten    --     65.5248                13.1418                82.6874

                     58                     59                     60
                      A                      A                      A
 Frequencies --   1339.4222              1341.4849              1370.6445
 Red. masses --      1.3150                 1.2886                 1.6596
 Frc consts  --      1.3900                 1.3663                 1.8370
 IR Inten    --     12.4348                37.6529                 1.2306

                     61                     62                     63
                      A                      A                      A
 Frequencies --   1374.9884              1385.5530              1411.2033
 Red. masses --      1.5137                 1.3564                 1.3758
 Frc consts  --      1.6861                 1.5342                 1.6143
 IR Inten    --     27.6007                 6.0245                58.6295

                     64                     65                     66
                      A                      A                      A
 Frequencies --   1419.2818              1444.4131              1448.0859
 Red. masses --      1.3899                 1.5564                 1.5453
 Frc consts  --      1.6496                 1.9131                 1.9093
 IR Inten    --     31.5924                14.3041                11.1158

                     67                     68                     69
                      A                      A                      A
 Frequencies --   1467.7784              1494.9603              1500.8444
 Red. masses --      2.0880                 1.4979                 1.1238
 Frc consts  --      2.6503                 1.9723                 1.4914
 IR Inten    --     97.6368                34.2152                 2.8323

                     70                     71                     72
                      A                      A                      A
 Frequencies --   1508.2601              1517.8047              1521.1720
 Red. masses --      1.3661                 1.1843                 1.4373
 Frc consts  --      1.8310                 1.6075                 1.9595
 IR Inten    --     18.4005                 5.1782                16.2295

                     73                     74                     75
                      A                      A                      A
 Frequencies --   1521.8313              1536.3566              1624.2102
 Red. masses --      1.2129                 1.1076                 6.0376
 Frc consts  --      1.6550                 1.5404                 9.3843
 IR Inten    --     11.6458                 4.9740                60.8495

                     76                     77                     78
                      A                      A                      A
 Frequencies --   1656.2645              1725.4059              2932.6413
 Red. masses --      7.1754                 6.0988                 1.0727
 Frc consts  --     11.5973                10.6974                 5.4354
 IR Inten    --     94.9695                92.0838                56.5884

                     79                     80                     81
                      A                      A                      A
 Frequencies --   2947.0384              3022.0212              3060.1941
 Red. masses --      1.0717                 1.0828                 1.0627
 Frc consts  --      5.4840                 5.8265                 5.8638
 IR Inten    --     80.9967                23.2120                17.9395

                     82                     83                     84
                      A                      A                      A
 Frequencies --   3062.7428              3079.4943              3084.3550
 Red. masses --      1.0632                 1.0873                 1.0586
 Frc consts  --      5.8762                 6.0754                 5.9337
 IR Inten    --     34.7830                57.0870                33.6675

                     85                     86                     87
                      A                      A                      A
 Frequencies --   3092.8258              3112.3605              3124.7661
 Red. masses --      1.0889                 1.1008                 1.1067
 Frc consts  --      6.1370                 6.2825                 6.3669
 IR Inten    --     25.3604                25.1216                33.8928

                     88                     89                     90
                      A                      A                      A
 Frequencies --   3140.1486              3180.5267              3192.4897
 Red. masses --      1.1107                 1.0886                 1.0853
 Frc consts  --      6.4530                 6.4879                 6.5170
 IR Inten    --     29.0118                16.6891                 3.1257

                     91                     92                     93
                      A                      A                      A
 Frequencies --   3204.9464              3213.9602              3503.4892
 Red. masses --      1.0941                 1.0986                 1.0747
 Frc consts  --      6.6215                 6.6861                 7.7719
 IR Inten    --     14.6522                35.2204                 1.1762

 - Thermochemistry -
 -------------------
 Temperature   298.150 Kelvin.  Pressure   1.00000 Atm.
 Atom     1 has atomic number  6 and mass  12.00000

 Molecular mass:   232.12118 amu.
 Principal axes and moments of inertia in atomic units:
                           1         2         3
     Eigenvalues --  1770.480006593.926687539.43837
           X            0.99996   0.00716   0.00494
           Y           -0.00715   0.99997  -0.00201
           Z           -0.00495   0.00197   0.99999
 This molecule is an asymmetric top.
 Rotational symmetry number  1.
 Warning -- assumption of classical behavior for rotation
           may cause significant error
 Rotational temperatures (Kelvin)      0.04892     0.01314     0.01149
 Rotational constants (GHZ):           1.01935     0.27370     0.23937
 Zero-point vibrational energy     735608.4 (Joules/Mol)
                                  175.81462 (Kcal/Mol)
 Warning -- explicit consideration of  21 degrees of freedom as
           vibrations may cause significant error
 Vibrational temperatures:     22.84    64.74   120.06   158.49   175.93
          (Kelvin)            243.10   320.23   333.89   390.35   419.41
                              470.05   510.85   560.44   566.98   655.31
                              678.54   698.98   733.33   798.14   812.89
                              826.90   915.52  1032.16  1043.48  1079.45
                             1105.60  1133.02  1164.53  1219.61  1227.08
                             1235.74  1256.85  1314.43  1353.18  1358.48
                             1384.02  1393.32  1410.74  1438.81  1489.26
                             1513.37  1548.70  1582.38  1600.73  1615.81
                             1636.12  1655.43  1681.20  1736.85  1790.22
                             1800.95  1810.93  1850.41  1861.31  1864.66
                             1898.41  1907.71  1927.13  1930.10  1972.05
                             1978.30  1993.50  2030.41  2042.03  2078.19
                             2083.47  2111.81  2150.91  2159.38  2170.05
                             2183.78  2188.63  2189.58  2210.47  2336.88
                             2383.00  2482.47  4219.42  4240.13  4348.01
                             4402.94  4406.60  4430.71  4437.70  4449.89
                             4477.99  4495.84  4517.97  4576.07  4593.28
                             4611.20  4624.17  5040.74

 Zero-point correction=                           0.280178 (Hartree/Particle)
 Thermal correction to Energy=                    0.294050
 Thermal correction to Enthalpy=                  0.294994
 Thermal correction to Gibbs Free Energy=         0.238062
 Sum of electronic and zero-point Energies=           -764.711131
 Sum of electronic and thermal Energies=              -764.697259
 Sum of electronic and thermal Enthalpies=            -764.696315
 Sum of electronic and thermal Free Energies=         -764.753248

                     E (Thermal)             CV                S
                      KCal/Mol        Cal/Mol-Kelvin    Cal/Mol-Kelvin
 Total                  184.519             55.448            119.825
 Electronic               0.000              0.000              0.000
 Translational            0.889              2.981             42.228
 Rotational               0.889              2.981             32.842
 Vibrational            182.742             49.486             44.754
 Vibration     1          0.593              1.986              7.093
 Vibration     2          0.595              1.979              5.026
 Vibration     3          0.600              1.961              3.808
 Vibration     4          0.606              1.941              3.266
 Vibration     5          0.610              1.931              3.064
 Vibration     6          0.625              1.881              2.447
 Vibration     7          0.648              1.807              1.938
 Vibration     8          0.653              1.792              1.863
 Vibration     9          0.675              1.726              1.588
 Vibration    10          0.687              1.690              1.465
 Vibration    11          0.710              1.622              1.276
 Vibration    12          0.731              1.565              1.144
 Vibration    13          0.757              1.493              1.002
 Vibration    14          0.761              1.483              0.985
 Vibration    15          0.814              1.349              0.779
 Vibration    16          0.829              1.313              0.733
 Vibration    17          0.842              1.282              0.695
 Vibration    18          0.865              1.229              0.634
 Vibration    19          0.910              1.129              0.534
 Vibration    20          0.921              1.107              0.514
 Vibration    21          0.931              1.086              0.495

 Optimization completed.
    -- Stationary point found.
 Normal termination of Gaussian 16 at Fri Dec 11 12:05:05 2020.

 ----------------------------------------------------------------------
 # B3LYP/6-311++G(d,p) empiricaldispersion=gd3bj scf=xqc pop=npa geom=c
 heck
 ----------------------------------------------------------------------

 ---------------------------------------
 CID_153667452_JID_7117_Energie_neutraal
 ---------------------------------------
 Structure from the checkpoint file:  "JID_7117.chk"
 Charge =  0 Multiplicity = 1

 SCF Done:  E(RB3LYP) =  -765.200259547     A.U. after   15 cycles
 Normal termination of Gaussian 16 at Fri Dec 11 12:11:01 2020.

 ----------------------------------------------------------------------
 # B3LYP/6-311++G(d,p) empiricaldispersion=gd3bj scf=xqc pop=npa geom=c
 heck
 ----------------------------------------------------------------------

 -------------------------------------
 CID_153667452_JID_7117_Energie_kation
 -------------------------------------
 Structure from the checkpoint file:  "JID_7117.chk"
 Charge =  1 Multiplicity = 2

 SCF Done:  E(UB3LYP) =  -764.915240114     A.U. after   31 cycles
 Normal termination of Gaussian 16 at Fri Dec 11 12:24:40 2020.
 Gaussian 16:  ES64L-G16RevA.03 25-Dec-2016

 ----------------------------------------------------------------------
 # B3LYP/6-311++G(d,p) empiricaldispersion=gd3bj scf=xqc pop=npa geom=c
 heck
 ----------------------------------------------------------------------

 ------------------------------------
 CID_153667452_JID_7117_Energie_anion
 ------------------------------------
 Structure from the checkpoint file:  "JID_7117.chk"
 Charge = -1 Multiplicity = 2

                         Standard orientation:
 ---------------------------------------------------------------------
 Center     Atomic      Atomic             Coordinates (Angstroms)
 Number     Number       Type             X           Y           Z
 ---------------------------------------------------------------------
      1          6           0        2.994461    0.019017    1.286029
      2          6           0        3.096019   -1.386163    0.700208
      3          8           0        3.909987   -1.420792   -0.485070
      4          6           0        3.665276   -0.413341   -1.361700
      5          6           0        2.969457    0.701201   -1.106590
      6          6           0        2.405002    1.010980    0.262469
      7          6           0        0.882949    1.033859    0.233097
      8          7           0        0.240419   -0.124279    0.445356
      9          6           0       -1.084589   -0.145911    0.406285
     10          6           0       -1.884873    0.986017    0.161224
     11          6           0       -3.392336    0.934994    0.235375
     12          7           0       -3.994797    0.004566   -0.727470
     13          6           0       -3.921327   -1.388355   -0.296930
     14          6           0       -2.496072   -1.919926   -0.342864
     15          8           0       -1.646415   -1.365459    0.672447
     16          6           0       -1.202984    2.177441   -0.078079
     17          6           0        0.189583    2.213541   -0.043506
     18          1           0        2.377982   -0.017387    2.189936
     19          1           0        3.995621    0.361541    1.572613
     20          1           0        3.574648   -2.078510    1.397233
     21          1           0        2.094831   -1.748440    0.448617
     22          1           0        4.127509   -0.613485   -2.324329
     23          1           0        2.826277    1.421057   -1.906257
     24          1           0        2.727680    2.023901    0.541124
     25          1           0       -3.780693    1.935443    0.020034
     26          1           0       -3.684167    0.689104    1.275086
     27          1           0       -4.973511    0.257383   -0.842236
     28          1           0       -4.312722   -1.545052    0.726486
     29          1           0       -4.528432   -1.991459   -0.983083
     30          1           0       -2.497797   -2.996093   -0.147879
     31          1           0       -2.058145   -1.735540   -1.330793
     32          1           0       -1.768860    3.085507   -0.273128
     33          1           0        0.728452    3.139895   -0.217741
 ---------------------------------------------------------------------

 SCF Done:  E(UB3LYP) =  -765.190644803     A.U. after   33 cycles
 SCF Done:  E(UB3LYP) =  -765.190644802     a.u. after    1 cycles

 The electronic state is 2-A.
 Alpha  occ. eigenvalues --  -19.05845 -19.03448 -14.19171 -14.19145 -10.14829
 Alpha  occ. eigenvalues --  -10.12974 -10.12535 -10.11979 -10.10076 -10.09104
 Alpha  occ. eigenvalues --  -10.09003 -10.08839 -10.08179 -10.07224 -10.07022
 Alpha  occ. eigenvalues --  -10.07003 -10.06724  -0.97431  -0.95943  -0.83291
 Alpha  occ. eigenvalues --   -0.80181  -0.72489  -0.69953  -0.67828  -0.66999
 Alpha  occ. eigenvalues --   -0.62262  -0.59065  -0.56453  -0.55244  -0.51468
 Alpha  occ. eigenvalues --   -0.49309  -0.48976  -0.44450  -0.42821  -0.41644
 Alpha  occ. eigenvalues --   -0.40688  -0.38255  -0.38053  -0.36898  -0.36493
 Alpha  occ. eigenvalues --   -0.35484  -0.34207  -0.33833  -0.32811  -0.32106
 Alpha  occ. eigenvalues --   -0.31560  -0.30308  -0.29453  -0.28682  -0.26998
 Alpha  occ. eigenvalues --   -0.26456  -0.25255  -0.25118  -0.23698  -0.23282
 Alpha  occ. eigenvalues --   -0.22331  -0.19051  -0.17400  -0.15656  -0.13862
 Alpha  occ. eigenvalues --   -0.12980  -0.12644   0.04440
 Alpha virt. eigenvalues --    0.06164   0.07033   0.07462   0.07875   0.08229
 Alpha virt. eigenvalues --    0.08509   0.09332   0.09475   0.10051   0.10705
 Alpha virt. eigenvalues --    0.10768   0.11064   0.11646   0.11742   0.12304

  Beta  occ. eigenvalues --  -19.05841 -19.03450 -14.19127 -14.19033 -10.14844
  Beta  occ. eigenvalues --  -10.12965 -10.12536 -10.11975 -10.09970 -10.09111
  Beta  occ. eigenvalues --  -10.08983 -10.08808 -10.08174 -10.07098 -10.07003
  Beta  occ. eigenvalues --  -10.06945 -10.06751  -0.97422  -0.95935  -0.83113
  Beta  occ. eigenvalues --   -0.80112  -0.72434  -0.69764  -0.67810  -0.66925
  Beta  occ. eigenvalues --   -0.62172  -0.58984  -0.56420  -0.55199  -0.51314
  Beta  occ. eigenvalues --   -0.49243  -0.48867  -0.44418  -0.42793  -0.41592
  Beta  occ. eigenvalues --   -0.40608  -0.38183  -0.37996  -0.36858  -0.36445
  Beta  occ. eigenvalues --   -0.35427  -0.34116  -0.33758  -0.32751  -0.32069
  Beta  occ. eigenvalues --   -0.31478  -0.30242  -0.29382  -0.28619  -0.26873
  Beta  occ. eigenvalues --   -0.26292  -0.25216  -0.25064  -0.23656  -0.23197
  Beta  occ. eigenvalues --   -0.22304  -0.18924  -0.16878  -0.15505  -0.13714
  Beta  occ. eigenvalues --   -0.12795  -0.12555
  Beta virt. eigenvalues --    0.06275   0.07391   0.07615   0.07802   0.08352
  Beta virt. eigenvalues --    0.08752   0.08900   0.09571   0.09827   0.10323
  Beta virt. eigenvalues --    0.10617   0.11109   0.11268   0.11783   0.12027

 Mulliken charges and spin densities:
               1          2
     1  C   -0.299799  -0.055492
     2  C   -0.487588  -0.036418
     3  O   -0.116161   0.000681
     4  C   -0.432359   0.033347
     5  C    0.039917  -0.228660
     6  C    0.217531   0.104517
     7  C    0.059783  -0.039455
     8  N   -0.022508   0.085241
     9  C   -0.882753   0.327424
    10  C   -1.335468   2.079110
    11  C    2.772471  -3.341086
    12  N   -0.472755   0.375963
    13  C    1.105864  -1.426082
    14  C   -0.578949   0.319652
    15  O   -0.065976   0.012174
    16  C    0.318184  -0.399047
    17  C    0.176943  -0.551861
    18  H    0.143427   0.001773
    19  H    0.099460   0.063220
    20  H    0.145382   0.012432
    21  H    0.258759   0.018769
    22  H    0.125015   0.019295
    23  H    0.086925   0.080998
    24  H   -0.000970   0.208397
    25  H   -0.629313   0.827230
    26  H   -0.059593   0.182995
    27  H   -0.238849   0.511391
    28  H   -0.161906   0.293291
    29  H   -0.492868   0.638592
    30  H   -0.041335   0.198770
    31  H    0.215999  -0.068484
    32  H   -0.206163   0.357760
    33  H   -0.240346   0.393560
 Sum of Mulliken charges =  -1.00000   1.00000

 Dipole moment (field-independent basis, Debye):
    X=              9.8808    Y=             -1.7873    Z=              0.6632  Tot=             10.0630
 Quadrupole moment (field-independent basis, Debye-Ang):
   XX=           -202.7616   YY=           -138.8938   ZZ=           -122.1089
   XY=              4.2595   XZ=             -2.5749   YZ=             -1.0383

 Summary of Natural Population Analysis:

                                       Natural Population
                Natural  -----------------------------------------------
    Atom  No    Charge         Core      Valence    Rydberg      Total
 -----------------------------------------------------------------------
      C    1   -0.19914      0.99963     2.19216    0.00736     3.19914
      C    2   -0.01599      0.99957     2.00535    0.01107     3.01599
      O    3   -0.28161      0.99988     3.27251    0.00922     4.28161
      C    4    0.07791      0.99944     1.90879    0.01386     2.92209
      C    5   -0.14602      0.99953     2.13551    0.01097     3.14602
      C    6   -0.13581      0.99955     2.12379    0.01248     3.13581
      C    7    0.12921      0.99952     1.85605    0.01522     2.87079
      N    8   -0.24401      0.99962     2.73418    0.01021     3.74401
      C    9    0.26954      0.99937     1.71351    0.01759     2.73046
      C   10   -0.04869      0.99945     2.03931    0.00993     3.04869
      C   11   -0.09630      0.99959     2.08239    0.01433     3.09630
      N   12   -0.33791      0.99973     2.82507    0.01311     3.83791
      C   13   -0.10181      0.99962     2.08939    0.01280     3.10181
      C   14   -0.01343      0.99955     2.00142    0.01245     3.01343
      O   15   -0.28898      0.99986     3.28085    0.00827     4.28898
      C   16   -0.05082      0.99953     2.04185    0.00943     3.05082
      C   17   -0.13622      0.99950     2.12787    0.00884     3.13622
      H   18    0.10945      0.00000     0.38952    0.00103     0.39055
      H   19    0.09653      0.00000     0.40237    0.00110     0.40347
      H   20    0.08616      0.00000     0.41269    0.00115     0.41384
      H   21    0.10377      0.00000     0.39486    0.00137     0.39623
      H   22    0.08621      0.00000     0.41269    0.00110     0.41379
      H   23    0.10394      0.00000     0.39523    0.00083     0.39606
      H   24    0.10604      0.00000     0.39226    0.00170     0.39396
      H   25    0.10106      0.00000     0.39685    0.00210     0.39894
      H   26    0.08691      0.00000     0.41075    0.00235     0.41309
      H   27    0.18315      0.00000     0.30756    0.00930     0.31685
      H   28    0.08158      0.00000     0.41644    0.00198     0.41842
      H   29    0.09904      0.00000     0.39917    0.00179     0.40096
      H   30    0.08944      0.00000     0.40936    0.00121     0.41056
      H   31    0.08689      0.00000     0.41167    0.00144     0.41311
      H   32    0.09925      0.00000     0.39959    0.00116     0.40075
      H   33    0.10065      0.00000     0.39819    0.00116     0.39935
 =======================================================================
   * Total *    0.00000     16.99292    44.77919    0.22789    62.00000

 Normal termination of Gaussian 16 at Fri Dec 11 12:43:19 2020.
