 Gaussian 16, Revision A.03,

 -----------------------------------------------------------
 # opt freq B3LYP/6-31G(d) empiricaldispersion=gd3bj scf=xqc
 -----------------------------------------------------------

 ------------------------------
 CID_63708021_JID_6501_neutraal
 ------------------------------
 Symbolic Z-matrix:
 Charge =  0 Multiplicity = 1

 SCF Done:  E(RB3LYP) =  -695.799588884     A.U. after   13 cycles
 SCF Done:  E(RB3LYP) =  -695.804926718     A.U. after   11 cycles
 SCF Done:  E(RB3LYP) =  -695.803436180     A.U. after   11 cycles
 SCF Done:  E(RB3LYP) =  -695.805702340     A.U. after   11 cycles
 SCF Done:  E(RB3LYP) =  -695.806684766     A.U. after   10 cycles
 SCF Done:  E(RB3LYP) =  -695.806817259     A.U. after   10 cycles
 SCF Done:  E(RB3LYP) =  -695.806882979     A.U. after    9 cycles
 SCF Done:  E(RB3LYP) =  -695.806909172     A.U. after    9 cycles
 SCF Done:  E(RB3LYP) =  -695.806923337     A.U. after    9 cycles
 SCF Done:  E(RB3LYP) =  -695.806937489     A.U. after    8 cycles
 SCF Done:  E(RB3LYP) =  -695.806948754     A.U. after    8 cycles
 SCF Done:  E(RB3LYP) =  -695.806949424     A.U. after    8 cycles
 SCF Done:  E(RB3LYP) =  -695.806949579     A.U. after    7 cycles
 SCF Done:  E(RB3LYP) =  -695.806949632     A.U. after    7 cycles
 SCF Done:  E(RB3LYP) =  -695.806949653     A.U. after    7 cycles
 SCF Done:  E(RB3LYP) =  -695.806949662     A.U. after    6 cycles
 Optimization completed.
    -- Stationary point found.
 Normal termination of Gaussian 16 at Thu Dec 10 23:27:13 2020.

 --------------------------------------------------------------------
 #N Geom=AllCheck Guess=TCheck SCRF=Check GenChk RB3LYP/6-31G(d) Freq
 --------------------------------------------------------------------

 Structure from the checkpoint file:  "JID_6501.chk"
 ------------------------------
 CID_63708021_JID_6501_neutraal
 ------------------------------
 Charge =  0 Multiplicity = 1

 SCF Done:  E(RB3LYP) =  -695.806949662     A.U. after    1 cycles

  Exact polarizability: 167.324  -3.645 145.688  -5.357   1.619 137.232
 Approx polarizability: 208.930  -1.915 209.279  -4.315   0.987 201.350

                      1                      2                      3
                      A                      A                      A
 Frequencies --     18.2962                31.6426                55.1894
 Red. masses --      3.4203                 3.5137                 3.0299
 Frc consts  --      0.0007                 0.0021                 0.0054
 IR Inten    --      0.1030                 0.1689                 0.1676

                      4                      5                      6
                      A                      A                      A
 Frequencies --     93.7377               101.6222               121.6708
 Red. masses --      3.2265                 2.2048                 3.2222
 Frc consts  --      0.0167                 0.0134                 0.0281
 IR Inten    --      0.3799                 2.0747                 0.0957

                      7                      8                      9
                      A                      A                      A
 Frequencies --    159.2480               185.0666               228.9271
 Red. masses --      2.4630                 1.3604                 2.4997
 Frc consts  --      0.0368                 0.0275                 0.0772
 IR Inten    --      1.1895                 0.1145                 0.0920

                     10                     11                     12
                      A                      A                      A
 Frequencies --    233.9325               250.2419               275.8797
 Red. masses --      1.9394                 2.1949                 3.0619
 Frc consts  --      0.0625                 0.0810                 0.1373
 IR Inten    --      0.2846                 1.0762                 4.8039

                     13                     14                     15
                      A                      A                      A
 Frequencies --    311.5185               322.6950               346.7004
 Red. masses --      3.2293                 2.7711                 2.3930
 Frc consts  --      0.1846                 0.1700                 0.1695
 IR Inten    --      2.4724                 1.2141                 2.2817

                     16                     17                     18
                      A                      A                      A
 Frequencies --    363.4638               381.4889               422.7727
 Red. masses --      2.1219                 2.5473                 2.1706
 Frc consts  --      0.1652                 0.2184                 0.2286
 IR Inten    --      4.3957                 4.3903                 1.0347

                     19                     20                     21
                      A                      A                      A
 Frequencies --    444.8077               473.3823               476.1821
 Red. masses --      2.1314                 1.7333                 2.7419
 Frc consts  --      0.2485                 0.2288                 0.3663
 IR Inten    --      1.3260                 1.8540                 0.5018

                     22                     23                     24
                      A                      A                      A
 Frequencies --    504.8921               511.4891               537.6162
 Red. masses --      3.0407                 2.8313                 2.0266
 Frc consts  --      0.4567                 0.4364                 0.3451
 IR Inten    --      9.6744                 3.2746                27.0751

                     25                     26                     27
                      A                      A                      A
 Frequencies --    624.6468               664.9489               747.5550
 Red. masses --      2.0327                 1.8784                 2.3263
 Frc consts  --      0.4673                 0.4893                 0.7659
 IR Inten    --      2.6660                24.5431                30.6580

                     28                     29                     30
                      A                      A                      A
 Frequencies --    777.2575               810.9209               825.8333
 Red. masses --      2.7403                 2.5100                 1.7934
 Frc consts  --      0.9754                 0.9725                 0.7206
 IR Inten    --     13.7935                 0.3833                 3.1676

                     31                     32                     33
                      A                      A                      A
 Frequencies --    832.4105               856.7977               872.9542
 Red. masses --      1.6462                 2.0923                 2.6698
 Frc consts  --      0.6721                 0.9049                 1.1987
 IR Inten    --      3.2534                16.5352                 6.4989

                     34                     35                     36
                      A                      A                      A
 Frequencies --    874.8498               894.4467               924.0560
 Red. masses --      2.6562                 3.0681                 2.0385
 Frc consts  --      1.1978                 1.4462                 1.0256
 IR Inten    --     11.8690                19.5130                 5.4059

                     37                     38                     39
                      A                      A                      A
 Frequencies --    930.7292               966.6176               985.8505
 Red. masses --      1.7719                 1.6033                 2.0641
 Frc consts  --      0.9043                 0.8826                 1.1820
 IR Inten    --      4.5828                 1.2275                11.9425

                     40                     41                     42
                      A                      A                      A
 Frequencies --    997.3883              1012.3331              1023.2054
 Red. masses --      2.2963                 1.4357                 1.7635
 Frc consts  --      1.3459                 0.8669                 1.0878
 IR Inten    --      7.0471                 6.3893                 8.0300

                     43                     44                     45
                      A                      A                      A
 Frequencies --   1032.3259              1043.0737              1056.2959
 Red. masses --      2.2650                 1.8922                 2.1668
 Frc consts  --      1.4222                 1.2129                 1.4245
 IR Inten    --     13.7182                10.5837                 5.6368

                     46                     47                     48
                      A                      A                      A
 Frequencies --   1081.9364              1108.8019              1118.1960
 Red. masses --      1.8434                 2.4426                 2.0736
 Frc consts  --      1.2714                 1.7694                 1.5276
 IR Inten    --     26.7252                13.4022                 7.3762

                     49                     50                     51
                      A                      A                      A
 Frequencies --   1124.0810              1130.5834              1154.1131
 Red. masses --      2.6362                 2.3723                 1.5957
 Frc consts  --      1.9626                 1.7866                 1.2523
 IR Inten    --     25.6995                32.8441                20.3553

                     52                     53                     54
                      A                      A                      A
 Frequencies --   1159.4514              1178.9474              1202.5543
 Red. masses --      2.1139                 2.3783                 3.1340
 Frc consts  --      1.6743                 1.9476                 2.6703
 IR Inten    --     18.2906                27.8080                34.9530

                     55                     56                     57
                      A                      A                      A
 Frequencies --   1207.1225              1211.3873              1222.8564
 Red. masses --      1.4201                 1.7609                 1.4918
 Frc consts  --      1.2192                 1.5225                 1.3143
 IR Inten    --      3.7188                 2.2181                 2.3736

                     58                     59                     60
                      A                      A                      A
 Frequencies --   1248.8008              1268.8783              1273.3678
 Red. masses --      1.4170                 1.5390                 1.3060
 Frc consts  --      1.3020                 1.4599                 1.2477
 IR Inten    --      6.7997                17.7502                20.0714

                     61                     62                     63
                      A                      A                      A
 Frequencies --   1282.9714              1299.1975              1310.5919
 Red. masses --      1.1371                 1.3966                 1.2760
 Frc consts  --      1.1028                 1.3890                 1.2914
 IR Inten    --      1.0221                 5.9574                25.9147

                     64                     65                     66
                      A                      A                      A
 Frequencies --   1315.6985              1331.3155              1337.3269
 Red. masses --      1.3919                 1.1894                 1.2244
 Frc consts  --      1.4196                 1.2421                 1.2901
 IR Inten    --      9.1102                 9.0958                10.6512

                     67                     68                     69
                      A                      A                      A
 Frequencies --   1353.4407              1359.3138              1369.4736
 Red. masses --      1.2497                 1.2250                 1.4640
 Frc consts  --      1.3488                 1.3336                 1.6177
 IR Inten    --      0.9807                11.8092                10.9675

                     70                     71                     72
                      A                      A                      A
 Frequencies --   1374.3052              1399.0589              1400.1185
 Red. masses --      1.3226                 1.3071                 1.2820
 Frc consts  --      1.4718                 1.5074                 1.4807
 IR Inten    --      2.3236                 8.5829                 5.6009

                     73                     74                     75
                      A                      A                      A
 Frequencies --   1404.3190              1407.3044              1413.3337
 Red. masses --      1.3795                 1.4719                 1.4162
 Frc consts  --      1.6029                 1.7175                 1.6668
 IR Inten    --      9.4171                10.3060                31.7541

                     76                     77                     78
                      A                      A                      A
 Frequencies --   1416.8635              1420.2263              1438.3211
 Red. masses --      1.4326                 1.4959                 1.3772
 Frc consts  --      1.6944                 1.7778                 1.6787
 IR Inten    --      6.1621                 7.7995                 2.3419

                     79                     80                     81
                      A                      A                      A
 Frequencies --   1444.3426              1451.8878              1489.0839
 Red. masses --      1.3361                 1.3252                 1.1693
 Frc consts  --      1.6422                 1.6459                 1.5276
 IR Inten    --     12.5489                13.6703                 1.1458

                     82                     83                     84
                      A                      A                      A
 Frequencies --   1501.5919              1506.8326              1512.2399
 Red. masses --      1.0934                 1.1071                 1.1593
 Frc consts  --      1.4525                 1.4811                 1.5620
 IR Inten    --      1.1960                 6.2457                 3.8970

                     85                     86                     87
                      A                      A                      A
 Frequencies --   1513.7447              1516.8680              1519.8758
 Red. masses --      1.0923                 1.0930                 1.0980
 Frc consts  --      1.4747                 1.4818                 1.4944
 IR Inten    --      4.1753                 4.5929                 1.8220

                     88                     89                     90
                      A                      A                      A
 Frequencies --   1521.7638              1529.5668              1531.1403
 Red. masses --      1.0858                 1.0939                 1.0704
 Frc consts  --      1.4814                 1.5079                 1.4785
 IR Inten    --      0.2149                 3.3933                11.5830

                     91                     92                     93
                      A                      A                      A
 Frequencies --   1533.9969              1535.3329              1539.6769
 Red. masses --      1.1016                 1.1148                 1.0905
 Frc consts  --      1.5273                 1.5483                 1.5232
 IR Inten    --      0.9969                11.3749                 6.1747

                     94                     95                     96
                      A                      A                      A
 Frequencies --   1549.8083              2893.9394              2901.9853
 Red. masses --      1.0911                 1.0789                 1.0758
 Frc consts  --      1.5441                 5.3236                 5.3381
 IR Inten    --      2.8569                33.6734                88.7352

                     97                     98                     99
                      A                      A                      A
 Frequencies --   2928.4837              2935.6081              2960.0343
 Red. masses --      1.0646                 1.0750                 1.0726
 Frc consts  --      5.3794                 5.4581                 5.5370
 IR Inten    --    151.4575               117.2867                20.8138

                    100                    101                    102
                      A                      A                      A
 Frequencies --   2967.3321              2981.8988              3010.5006
 Red. masses --      1.0726                 1.0735                 1.0816
 Frc consts  --      5.5642                 5.6240                 5.7754
 IR Inten    --    106.2382                58.2010                25.8319

                    103                    104                    105
                      A                      A                      A
 Frequencies --   3029.8039              3031.1684              3036.1826
 Red. masses --      1.0706                 1.0593                 1.0648
 Frc consts  --      5.7903                 5.7344                 5.7835
 IR Inten    --     28.9059                29.2892                52.5912

                    106                    107                    108
                      A                      A                      A
 Frequencies --   3045.6502              3051.4207              3055.8797
 Red. masses --      1.0780                 1.0781                 1.0649
 Frc consts  --      5.8917                 5.9142                 5.8590
 IR Inten    --     18.5871                44.1849                14.3510

                    109                    110                    111
                      A                      A                      A
 Frequencies --   3074.0865              3077.4849              3088.7993
 Red. masses --      1.1030                 1.0977                 1.0897
 Frc consts  --      6.1412                 6.1251                 6.1252
 IR Inten    --     51.6240                79.6834                31.8056

                    112                    113                    114
                      A                      A                      A
 Frequencies --   3090.8889              3101.0101              3104.1246
 Red. masses --      1.0904                 1.0911                 1.0920
 Frc consts  --      6.1374                 6.1818                 6.1994
 IR Inten    --     18.0104                61.7494                43.2713

                    115                    116                    117
                      A                      A                      A
 Frequencies --   3105.9552              3107.1834              3108.3499
 Red. masses --      1.0962                 1.0800                 1.0902
 Frc consts  --      6.2305                 6.1431                 6.2058
 IR Inten    --     30.8748                21.9179                63.5583

                    118                    119                    120
                      A                      A                      A
 Frequencies --   3147.2447              3171.2764              3524.9515
 Red. masses --      1.1006                 1.0843                 1.0751
 Frc consts  --      6.4229                 6.4252                 7.8706
 IR Inten    --     34.3302                16.6971                 0.2342

 - Thermochemistry -
 -------------------
 Temperature   298.150 Kelvin.  Pressure   1.00000 Atm.
 Atom     1 has atomic number  6 and mass  12.00000

 Molecular mass:   226.20451 amu.
 Principal axes and moments of inertia in atomic units:
                           1         2         3
     Eigenvalues --  2086.547866196.939596757.13332
           X            0.99992  -0.01164  -0.00408
           Y            0.01160   0.99988  -0.01056
           Z            0.00420   0.01052   0.99994
 This molecule is an asymmetric top.
 Rotational symmetry number  1.
 Warning -- assumption of classical behavior for rotation
           may cause significant error
 Rotational temperatures (Kelvin)      0.04151     0.01398     0.01282
 Rotational constants (GHZ):           0.86494     0.29123     0.26709
 Zero-point vibrational energy    1026756.1 (Joules/Mol)
                                  245.40060 (Kcal/Mol)
 Warning -- explicit consideration of  24 degrees of freedom as
           vibrations may cause significant error
 Vibrational temperatures:     26.32    45.53    79.41   134.87   146.21
          (Kelvin)            175.06   229.12   266.27   329.38   336.58
                              360.04   396.93   448.21   464.29   498.82
                              522.94   548.88   608.28   639.98   681.09
                              685.12   726.43   735.92   773.51   898.73
                              956.71  1075.56  1118.30  1166.73  1188.19
                             1197.65  1232.74  1255.99  1258.71  1286.91
                             1329.51  1339.11  1390.75  1418.42  1435.02
                             1456.52  1472.16  1485.29  1500.75  1519.77
                             1556.67  1595.32  1608.83  1617.30  1626.66
                             1660.51  1668.19  1696.24  1730.21  1736.78
                             1742.92  1759.42  1796.75  1825.63  1832.09
                             1845.91  1869.26  1885.65  1893.00  1915.47
                             1924.12  1947.30  1955.75  1970.37  1977.32
                             2012.93  2014.46  2020.50  2024.80  2033.47
                             2038.55  2043.39  2069.42  2078.09  2088.94
                             2142.46  2160.46  2168.00  2175.78  2177.94
                             2182.43  2186.76  2189.48  2200.71  2202.97
                             2207.08  2209.00  2215.25  2229.83  4163.73
                             4175.31  4213.43  4223.69  4258.83  4269.33
                             4290.29  4331.44  4359.21  4361.18  4368.39
                             4382.01  4390.31  4396.73  4422.92  4427.81
                             4444.09  4447.10  4461.66  4466.14  4468.78
                             4470.54  4472.22  4528.18  4562.76  5071.62

 Zero-point correction=                           0.391071 (Hartree/Particle)
 Thermal correction to Energy=                    0.407163
 Thermal correction to Enthalpy=                  0.408107
 Thermal correction to Gibbs Free Energy=         0.346493
 Sum of electronic and zero-point Energies=           -695.415879
 Sum of electronic and thermal Energies=              -695.399786
 Sum of electronic and thermal Enthalpies=            -695.398842
 Sum of electronic and thermal Free Energies=         -695.460457

                     E (Thermal)             CV                S
                      KCal/Mol        Cal/Mol-Kelvin    Cal/Mol-Kelvin
 Total                  255.499             63.262            129.679
 Electronic               0.000              0.000              0.000
 Translational            0.889              2.981             42.151
 Rotational               0.889              2.981             32.835
 Vibrational            253.721             57.300             54.693
 Vibration     1          0.593              1.986              6.811
 Vibration     2          0.594              1.983              5.724
 Vibration     3          0.596              1.975              4.622
 Vibration     4          0.603              1.954              3.581
 Vibration     5          0.604              1.948              3.423
 Vibration     6          0.609              1.931              3.074
 Vibration     7          0.621              1.892              2.559
 Vibration     8          0.631              1.860              2.277
 Vibration     9          0.652              1.797              1.887
 Vibration    10          0.654              1.789              1.849
 Vibration    11          0.663              1.762              1.729
 Vibration    12          0.678              1.718              1.559
 Vibration    13          0.700              1.652              1.354
 Vibration    14          0.708              1.630              1.296
 Vibration    15          0.725              1.582              1.181
 Vibration    16          0.737              1.547              1.107
 Vibration    17          0.751              1.510              1.033
 Vibration    18          0.785              1.421              0.883
 Vibration    19          0.804              1.372              0.812
 Vibration    20          0.830              1.309              0.728
 Vibration    21          0.833              1.303              0.720
 Vibration    22          0.860              1.239              0.646
 Vibration    23          0.867              1.225              0.630
 Vibration    24          0.893              1.167              0.570

 Optimization completed.
    -- Stationary point found.
 Normal termination of Gaussian 16 at Thu Dec 10 23:46:18 2020.

 ----------------------------------------------------------------------
 # B3LYP/6-311++G(d,p) empiricaldispersion=gd3bj scf=xqc pop=npa geom=c
 heck
 ----------------------------------------------------------------------

 --------------------------------------
 CID_63708021_JID_6501_Energie_neutraal
 --------------------------------------
 Structure from the checkpoint file:  "JID_6501.chk"
 Charge =  0 Multiplicity = 1

 SCF Done:  E(RB3LYP) =  -696.002054789     A.U. after   14 cycles
 Normal termination of Gaussian 16 at Thu Dec 10 23:56:13 2020.

 ----------------------------------------------------------------------
 # B3LYP/6-311++G(d,p) empiricaldispersion=gd3bj scf=xqc pop=npa geom=c
 heck
 ----------------------------------------------------------------------

 ------------------------------------
 CID_63708021_JID_6501_Energie_kation
 ------------------------------------
 Structure from the checkpoint file:  "JID_6501.chk"
 Charge =  1 Multiplicity = 2

 SCF Done:  E(UB3LYP) =  -695.728310374     A.U. after   24 cycles
 Normal termination of Gaussian 16 at Fri Dec 11 00:20:15 2020.
 Gaussian 16:  ES64L-G16RevA.03 25-Dec-2016

 ----------------------------------------------------------------------
 # B3LYP/6-311++G(d,p) empiricaldispersion=gd3bj scf=xqc pop=npa geom=c
 heck
 ----------------------------------------------------------------------

 -----------------------------------
 CID_63708021_JID_6501_Energie_anion
 -----------------------------------
 Structure from the checkpoint file:  "JID_6501.chk"
 Charge = -1 Multiplicity = 2

                         Standard orientation:
 ---------------------------------------------------------------------
 Center     Atomic      Atomic             Coordinates (Angstroms)
 Number     Number       Type             X           Y           Z
 ---------------------------------------------------------------------
      1          6           0        0.250395    2.623305   -0.676607
      2          7           0        0.501316    1.316123   -0.084957
      3          6           0       -0.562257    0.969235    0.854142
      4          6           0       -1.887271    0.622032    0.161459
      5          6           0       -2.939231    0.188070    1.193798
      6          6           0       -4.217234   -0.279144    0.496068
      7          8           0       -3.961512   -1.332379   -0.420691
      8          6           0       -3.055710   -0.930114   -1.442794
      9          6           0       -1.706194   -0.494586   -0.876561
     10          6           0        1.892717    1.216261    0.401511
     11          6           0        2.838296    0.985157   -0.793048
     12          6           0        2.775715   -0.415855   -1.420412
     13          6           0        3.492487   -1.482909   -0.577455
     14          6           0        2.659939   -2.098622    0.560031
     15          7           0        1.666519   -1.185556    1.124575
     16          6           0        2.116949    0.155766    1.498544
     17          1           0        0.236270    3.435070    0.078474
     18          1           0       -0.712564    2.628230   -1.194034
     19          1           0        1.015053    2.869319   -1.416405
     20          1           0       -0.262969    0.075224    1.396865
     21          1           0       -0.738078    1.773470    1.599015
     22          1           0       -2.286779    1.508563   -0.353605
     23          1           0       -2.543221   -0.644047    1.792171
     24          1           0       -3.170381    1.008917    1.886066
     25          1           0       -4.943022   -0.671921    1.214874
     26          1           0       -4.686520    0.571527   -0.030800
     27          1           0       -3.501774   -0.104901   -2.027330
     28          1           0       -2.951025   -1.793564   -2.106831
     29          1           0       -1.044130   -0.158429   -1.681216
     30          1           0       -1.213082   -1.350655   -0.398170
     31          1           0        2.188604    2.175983    0.873095
     32          1           0        2.626431    1.730725   -1.566125
     33          1           0        3.867545    1.184407   -0.461425
     34          1           0        1.729110   -0.690926   -1.589157
     35          1           0        3.259991   -0.369550   -2.403805
     36          1           0        3.829977   -2.306242   -1.218919
     37          1           0        4.406806   -1.036568   -0.164208
     38          1           0        2.101825   -2.961657    0.175683
     39          1           0        3.360387   -2.489148    1.322425
     40          1           0        1.231104   -1.635571    1.923658
     41          1           0        3.187323    0.185008    1.764368
     42          1           0        1.578763    0.460224    2.401485
 ---------------------------------------------------------------------

 SCF Done:  E(UB3LYP) =  -695.988674640     A.U. after   30 cycles

 The electronic state is 2-A.
 Alpha  occ. eigenvalues --  -19.03297 -14.20016 -14.18930 -10.12616 -10.12290
 Alpha  occ. eigenvalues --  -10.09463 -10.08897 -10.08620 -10.08592 -10.08436
 Alpha  occ. eigenvalues --  -10.07671 -10.07341 -10.06394 -10.06185 -10.05956
 Alpha  occ. eigenvalues --  -10.05750  -0.94723  -0.82618  -0.79567  -0.71709
 Alpha  occ. eigenvalues --   -0.68770  -0.67167  -0.66098  -0.61054  -0.58048
 Alpha  occ. eigenvalues --   -0.56009  -0.54898  -0.54323  -0.50248  -0.46723
 Alpha  occ. eigenvalues --   -0.45742  -0.44442  -0.40980  -0.39921  -0.39225
 Alpha  occ. eigenvalues --   -0.38541  -0.36881  -0.36060  -0.36005  -0.35011
 Alpha  occ. eigenvalues --   -0.33538  -0.32973  -0.32303  -0.31943  -0.30682
 Alpha  occ. eigenvalues --   -0.30076  -0.29337  -0.28776  -0.27579  -0.26570
 Alpha  occ. eigenvalues --   -0.26342  -0.26037  -0.24053  -0.23883  -0.23142
 Alpha  occ. eigenvalues --   -0.22767  -0.22029  -0.21883  -0.21371  -0.20902
 Alpha  occ. eigenvalues --   -0.16625  -0.12149  -0.10971   0.04276
 Alpha virt. eigenvalues --    0.06209   0.06627   0.07049   0.07876   0.08208
 Alpha virt. eigenvalues --    0.08472   0.09068   0.09373   0.10278   0.10470
 Alpha virt. eigenvalues --    0.10684   0.11116   0.11335   0.11879   0.12533

  Beta  occ. eigenvalues --  -19.03292 -14.20007 -14.18910 -10.12608 -10.12285
  Beta  occ. eigenvalues --  -10.09458 -10.08873 -10.08598 -10.08573 -10.08423
  Beta  occ. eigenvalues --  -10.07665 -10.07327 -10.06389 -10.06170 -10.05944
  Beta  occ. eigenvalues --  -10.05740  -0.94714  -0.82596  -0.79530  -0.71692
  Beta  occ. eigenvalues --   -0.68740  -0.67153  -0.66061  -0.61027  -0.58010
  Beta  occ. eigenvalues --   -0.55959  -0.54870  -0.54294  -0.50213  -0.46695
  Beta  occ. eigenvalues --   -0.45684  -0.44400  -0.40907  -0.39892  -0.39200
  Beta  occ. eigenvalues --   -0.38528  -0.36852  -0.36035  -0.35981  -0.34985
  Beta  occ. eigenvalues --   -0.33502  -0.32953  -0.32268  -0.31909  -0.30655
  Beta  occ. eigenvalues --   -0.30042  -0.29311  -0.28752  -0.27554  -0.26544
  Beta  occ. eigenvalues --   -0.26318  -0.26017  -0.24020  -0.23858  -0.23113
  Beta  occ. eigenvalues --   -0.22741  -0.22007  -0.21852  -0.21349  -0.20877
  Beta  occ. eigenvalues --   -0.16602  -0.12103  -0.10923
  Beta virt. eigenvalues --    0.06187   0.06805   0.07295   0.07474   0.08316
  Beta virt. eigenvalues --    0.08537   0.08711   0.09550   0.09761   0.10470
  Beta virt. eigenvalues --    0.10764   0.10955   0.11302   0.11542   0.12268

 Mulliken charges and spin densities:
               1          2
     1  C    0.305667  -0.588117
     2  N    0.453956  -0.028391
     3  C   -1.200298   0.411913
     4  C    0.782641  -0.283257
     5  C   -0.086328  -0.292148
     6  C   -0.203135  -0.302684
     7  O   -0.118914   0.022195
     8  C   -0.101577  -0.581147
     9  C   -0.541849   0.372383
    10  C   -0.710386   1.157406
    11  C    0.961599  -1.564377
    12  C   -0.783264   0.772071
    13  C    0.357466  -0.748649
    14  C    0.685715  -1.048375
    15  N   -0.369190   0.229056
    16  C    0.487152  -1.393515
    17  H   -0.073140   0.191572
    18  H   -0.086565   0.214089
    19  H   -0.265694   0.394570
    20  H    0.981798  -0.848523
    21  H   -0.236536   0.379693
    22  H    0.277920  -0.129863
    23  H   -0.096194   0.262925
    24  H   -0.142008   0.273988
    25  H    0.039228   0.149402
    26  H    0.045622   0.061029
    27  H    0.037154   0.085500
    28  H    0.103390   0.072215
    29  H    0.064230   0.058661
    30  H    0.211039   0.011181
    31  H    0.017361   0.148711
    32  H    0.267310  -0.147147
    33  H   -0.234009   0.353818
    34  H    0.121860   0.002877
    35  H   -0.332742   0.509946
    36  H   -0.221950   0.391860
    37  H    0.127486   0.014774
    38  H   -0.104968   0.242578
    39  H   -0.392629   0.524624
    40  H   -0.225679   0.493598
    41  H   -0.008686   0.162124
    42  H   -0.792853   0.991434
 Sum of Mulliken charges =  -1.00000   1.00000

 Dipole moment (field-independent basis, Debye):
    X=             -4.0779    Y=              1.4080    Z=             -2.8643  Tot=              5.1784
 Quadrupole moment (field-independent basis, Debye-Ang):
   XX=           -173.0891   YY=           -151.1013   ZZ=           -149.6477
   XY=              2.2220   XZ=              0.5896   YZ=              1.9640

 Summary of Natural Population Analysis:

                                       Natural Population
                Natural  -----------------------------------------------
    Atom  No    Charge         Core      Valence    Rydberg      Total
 -----------------------------------------------------------------------
      C    1   -0.17508      0.99964     2.16748    0.00796     3.17508
      N    2   -0.28725      0.99970     2.77483    0.01272     3.78725
      C    3   -0.08208      0.99958     2.07069    0.01182     3.08208
      C    4   -0.11394      0.99959     2.10262    0.01173     3.11394
      C    5   -0.20365      0.99961     2.19440    0.00964     3.20365
      C    6   -0.00600      0.99958     1.99493    0.01148     3.00600
      O    7   -0.30183      0.99989     3.29267    0.00927     4.30183
      C    8   -0.00747      0.99958     1.99661    0.01128     3.00747
      C    9   -0.20608      0.99960     2.19853    0.00794     3.20608
      C   10    0.00039      0.99956     1.98697    0.01308     2.99961
      C   11   -0.18753      0.99959     2.17862    0.00931     3.18753
      C   12   -0.19678      0.99962     2.18777    0.00940     3.19678
      C   13   -0.19525      0.99962     2.18805    0.00758     3.19525
      C   14   -0.07884      0.99962     2.06756    0.01166     3.07884
      N   15   -0.35039      0.99973     2.83785    0.01281     3.85039
      C   16   -0.09652      0.99959     2.08394    0.01298     3.09652
      H   17    0.08002      0.00000     0.41866    0.00132     0.41998
      H   18    0.09303      0.00000     0.40596    0.00101     0.40697
      H   19    0.09575      0.00000     0.40315    0.00110     0.40425
      H   20    0.10480      0.00000     0.39181    0.00339     0.39520
      H   21    0.08019      0.00000     0.41830    0.00151     0.41981
      H   22    0.08980      0.00000     0.40785    0.00235     0.41020
      H   23    0.09930      0.00000     0.39927    0.00144     0.40070
      H   24    0.10113      0.00000     0.39774    0.00113     0.39887
      H   25    0.08936      0.00000     0.40944    0.00120     0.41064
      H   26    0.07290      0.00000     0.42571    0.00140     0.42710
      H   27    0.07244      0.00000     0.42611    0.00145     0.42756
      H   28    0.08957      0.00000     0.40920    0.00123     0.41043
      H   29    0.10841      0.00000     0.39016    0.00144     0.39159
      H   30    0.10379      0.00000     0.39454    0.00168     0.39621
      H   31    0.08335      0.00000     0.41486    0.00179     0.41665
      H   32    0.09791      0.00000     0.40091    0.00118     0.40209
      H   33    0.09279      0.00000     0.40598    0.00123     0.40721
      H   34    0.10486      0.00000     0.39299    0.00214     0.39514
      H   35    0.09642      0.00000     0.40252    0.00107     0.40358
      H   36    0.10021      0.00000     0.39868    0.00111     0.39979
      H   37    0.09140      0.00000     0.40695    0.00165     0.40860
      H   38    0.09040      0.00000     0.40836    0.00124     0.40960
      H   39    0.07988      0.00000     0.41849    0.00164     0.42012
      H   40    0.17965      0.00000     0.31687    0.00348     0.32035
      H   41    0.08964      0.00000     0.40886    0.00149     0.41036
      H   42    0.10131      0.00000     0.39680    0.00189     0.39869
 =======================================================================
   * Total *   -0.00000     15.99410    46.79369    0.21221    63.00000

 Normal termination of Gaussian 16 at Fri Dec 11 00:50:08 2020.
