 Gaussian 16, Revision A.03,

 -----------------------------------------------------------
 # opt freq B3LYP/6-31G(d) empiricaldispersion=gd3bj scf=xqc
 -----------------------------------------------------------

 ------------------------------
 CID_130776640_JID_363_neutraal
 ------------------------------
 Symbolic Z-matrix:
 Charge =  0 Multiplicity = 1

 SCF Done:  E(RB3LYP) =  -477.359200840     A.U. after   15 cycles
 SCF Done:  E(RB3LYP) =  -477.364662986     A.U. after   13 cycles
 SCF Done:  E(RB3LYP) =  -477.364988321     A.U. after   11 cycles
 SCF Done:  E(RB3LYP) =  -477.365001091     A.U. after   10 cycles
 SCF Done:  E(RB3LYP) =  -477.364994787     A.U. after   10 cycles
 SCF Done:  E(RB3LYP) =  -477.365018758     A.U. after    9 cycles
 SCF Done:  E(RB3LYP) =  -477.365020033     A.U. after    9 cycles
 SCF Done:  E(RB3LYP) =  -477.365020367     A.U. after    8 cycles
 SCF Done:  E(RB3LYP) =  -477.365020651     A.U. after    8 cycles
 SCF Done:  E(RB3LYP) =  -477.365020802     A.U. after    8 cycles
 SCF Done:  E(RB3LYP) =  -477.365021151     A.U. after    8 cycles
 SCF Done:  E(RB3LYP) =  -477.365021795     A.U. after    9 cycles
 SCF Done:  E(RB3LYP) =  -477.365022016     A.U. after    7 cycles
 SCF Done:  E(RB3LYP) =  -477.365022360     A.U. after    9 cycles
 SCF Done:  E(RB3LYP) =  -477.365022397     A.U. after    8 cycles
 Optimization completed.
    -- Stationary point found.
 Normal termination of Gaussian 16 at Tue Dec  8 10:27:59 2020.

 --------------------------------------------------------------------
 #N Geom=AllCheck Guess=TCheck SCRF=Check GenChk RB3LYP/6-31G(d) Freq
 --------------------------------------------------------------------

 Structure from the checkpoint file:  "JID_363.chk"
 ------------------------------
 CID_130776640_JID_363_neutraal
 ------------------------------
 Charge =  0 Multiplicity = 1

 SCF Done:  E(RB3LYP) =  -477.365022397     A.U. after    1 cycles

  Exact polarizability: 100.330  -2.995  68.729  -3.504   1.987  65.396
 Approx polarizability: 123.628 -10.870 110.013 -12.605   6.927  98.527

                      1                      2                      3
                      A                      A                      A
 Frequencies --     42.8946                49.6592                69.7239
 Red. masses --      5.5567                 2.0392                 1.7702
 Frc consts  --      0.0060                 0.0030                 0.0051
 IR Inten    --      3.7080                 3.8699                 1.2898

                      4                      5                      6
                      A                      A                      A
 Frequencies --    116.3088               169.5025               176.5926
 Red. masses --      2.8848                 4.3241                 5.0969
 Frc consts  --      0.0230                 0.0732                 0.0936
 IR Inten    --      3.5842                 2.2086                 7.7717

                      7                      8                      9
                      A                      A                      A
 Frequencies --    259.4587               327.6009               367.3565
 Red. masses --      3.5714                 4.0421                 3.9827
 Frc consts  --      0.1417                 0.2556                 0.3167
 IR Inten    --      4.1725                 5.2469                 3.7822

                     10                     11                     12
                      A                      A                      A
 Frequencies --    473.2860               522.2296               551.9446
 Red. masses --      2.3746                 6.3275                 5.5903
 Frc consts  --      0.3134                 1.0167                 1.0034
 IR Inten    --      0.3579                 4.5337                 0.6342

                     13                     14                     15
                      A                      A                      A
 Frequencies --    580.9634               607.8592               665.1678
 Red. masses --      2.7212                 2.7859                 4.0704
 Frc consts  --      0.5411                 0.6065                 1.0611
 IR Inten    --      2.7413                 6.7682                 4.6282

                     16                     17                     18
                      A                      A                      A
 Frequencies --    793.4559               825.2125               914.4806
 Red. masses --      2.6450                 1.2824                 4.6436
 Frc consts  --      0.9811                 0.5145                 2.2880
 IR Inten    --      3.2956                 2.0400                11.0413

                     19                     20                     21
                      A                      A                      A
 Frequencies --    944.6593               948.2263              1015.0252
 Red. masses --      2.2896                 3.4372                 1.9156
 Frc consts  --      1.2038                 1.8209                 1.1628
 IR Inten    --      2.0358                 2.6527                 3.0364

                     22                     23                     24
                      A                      A                      A
 Frequencies --   1034.1567              1055.2874              1077.2170
 Red. masses --      1.6213                 2.5492                 1.7586
 Frc consts  --      1.0216                 1.6726                 1.2024
 IR Inten    --      0.1466                55.7372                 7.1990

                     25                     26                     27
                      A                      A                      A
 Frequencies --   1096.8359              1128.3275              1138.7015
 Red. masses --      2.6441                 3.0275                 2.4496
 Frc consts  --      1.8742                 2.2709                 1.8714
 IR Inten    --      6.4126                28.3687                64.8941

                     28                     29                     30
                      A                      A                      A
 Frequencies --   1230.8653              1244.8401              1249.3185
 Red. masses --      1.4077                 1.3753                 1.1383
 Frc consts  --      1.2566                 1.2556                 1.0468
 IR Inten    --     17.9634                 3.8224                 2.3788

                     31                     32                     33
                      A                      A                      A
 Frequencies --   1273.7247              1285.4316              1304.3806
 Red. masses --      1.9773                 2.0979                 1.4971
 Frc consts  --      1.8900                 2.0424                 1.5008
 IR Inten    --    214.8493               236.8761                 8.5085

                     34                     35                     36
                      A                      A                      A
 Frequencies --   1377.8527              1413.1842              1430.7456
 Red. masses --      1.4303                 1.2861                 1.4425
 Frc consts  --      1.5999                 1.5133                 1.7398
 IR Inten    --      3.2715                33.4892                25.3082

                     37                     38                     39
                      A                      A                      A
 Frequencies --   1499.9149              1501.0067              1504.3626
 Red. masses --      1.0515                 1.0894                 1.0462
 Frc consts  --      1.3937                 1.4462                 1.3950
 IR Inten    --     12.1305                 4.4647                 8.6641

                     40                     41                     42
                      A                      A                      A
 Frequencies --   1527.3079              1833.5440              2364.5634
 Red. masses --      1.1348                11.1390                12.6329
 Frc consts  --      1.5596                22.0638                41.6155
 IR Inten    --      7.7767               205.7192                15.7401

                     43                     44                     45
                      A                      A                      A
 Frequencies --   3073.0240              3092.9856              3100.6269
 Red. masses --      1.0372                 1.0843                 1.0581
 Frc consts  --      5.7707                 6.1117                 5.9932
 IR Inten    --      1.7049                 2.8625                18.4847

                     46                     47                     48
                      A                      A                      A
 Frequencies --   3105.1916              3110.7020              3135.2930
 Red. masses --      1.0694                 1.0792                 1.1006
 Frc consts  --      6.0753                 6.1528                 6.3741
 IR Inten    --      1.1793                12.3402                 4.9682

                     49                     50                     51
                      A                      A                      A
 Frequencies --   3162.4326              3174.3449              3186.3587
 Red. masses --      1.1099                 1.1083                 1.1033
 Frc consts  --      6.5400                 6.5799                 6.5997
 IR Inten    --     18.7399                11.9001                 6.7983

 - Thermochemistry -
 -------------------
 Temperature   298.150 Kelvin.  Pressure   1.00000 Atm.
 Atom     1 has atomic number  6 and mass  12.00000

 Molecular mass:   139.06333 amu.
 Principal axes and moments of inertia in atomic units:
                           1         2         3
     Eigenvalues --   478.129653005.466243067.16171
           X            0.99974   0.01479   0.01754
           Y           -0.01526   0.99951   0.02720
           Z           -0.01713  -0.02746   0.99948
 This molecule is an asymmetric top.
 Rotational symmetry number  1.
 Warning -- assumption of classical behavior for rotation
           may cause significant error
 Rotational temperatures (Kelvin)      0.18115     0.02882     0.02824
 Rotational constants (GHZ):           3.77459     0.60049     0.58841
 Zero-point vibrational energy     401551.3 (Joules/Mol)
                                   95.97307 (Kcal/Mol)
 Warning -- explicit consideration of  14 degrees of freedom as
           vibrations may cause significant error
 Vibrational temperatures:     61.72    71.45   100.32   167.34   243.88
          (Kelvin)            254.08   373.30   471.34   528.54   680.95
                              751.37   794.13   835.88   874.57   957.03
                             1141.61  1187.30  1315.73  1359.15  1364.29
                             1460.39  1487.92  1518.32  1549.87  1578.10
                             1623.41  1638.34  1770.94  1791.05  1797.49
                             1832.61  1849.45  1876.71  1982.42  2033.26
                             2058.52  2158.04  2159.61  2164.44  2197.46
                             2638.06  3402.08  4421.40  4450.12  4461.11
                             4467.68  4475.61  4510.99  4550.04  4567.17
                             4584.46

 Zero-point correction=                           0.152943 (Hartree/Particle)
 Thermal correction to Energy=                    0.163071
 Thermal correction to Enthalpy=                  0.164016
 Thermal correction to Gibbs Free Energy=         0.115856
 Sum of electronic and zero-point Energies=           -477.212080
 Sum of electronic and thermal Energies=              -477.201951
 Sum of electronic and thermal Enthalpies=            -477.201007
 Sum of electronic and thermal Free Energies=         -477.249166

                     E (Thermal)             CV                S
                      KCal/Mol        Cal/Mol-Kelvin    Cal/Mol-Kelvin
 Total                  102.329             35.483            101.359
 Electronic               0.000              0.000              0.000
 Translational            0.889              2.981             40.701
 Rotational               0.889              2.981             29.867
 Vibrational            100.551             29.521             30.791
 Vibration     1          0.595              1.980              5.121
 Vibration     2          0.595              1.978              4.831
 Vibration     3          0.598              1.969              4.161
 Vibration     4          0.608              1.936              3.161
 Vibration     5          0.625              1.880              2.441
 Vibration     6          0.628              1.871              2.364
 Vibration     7          0.668              1.747              1.665
 Vibration     8          0.711              1.620              1.272
 Vibration     9          0.740              1.539              1.091
 Vibration    10          0.830              1.309              0.728
 Vibration    11          0.877              1.201              0.605
 Vibration    12          0.907              1.135              0.540
 Vibration    13          0.938              1.072              0.484
 Vibration    14          0.967              1.015              0.436

 Optimization completed.
    -- Stationary point found.
 Normal termination of Gaussian 16 at Tue Dec  8 10:30:41 2020.

 ----------------------------------------------------------------------
 # B3LYP/6-311++G(d,p) empiricaldispersion=gd3bj scf=xqc pop=npa geom=c
 heck
 ----------------------------------------------------------------------

 --------------------------------------
 CID_130776640_JID_363_Energie_neutraal
 --------------------------------------
 Structure from the checkpoint file:  "JID_363.chk"
 Charge =  0 Multiplicity = 1

 SCF Done:  E(RB3LYP) =  -477.503850219     A.U. after   14 cycles
 Normal termination of Gaussian 16 at Tue Dec  8 10:31:26 2020.

 ----------------------------------------------------------------------
 # B3LYP/6-311++G(d,p) empiricaldispersion=gd3bj scf=xqc pop=npa geom=c
 heck
 ----------------------------------------------------------------------

 ------------------------------------
 CID_130776640_JID_363_Energie_kation
 ------------------------------------
 Structure from the checkpoint file:  "JID_363.chk"
 Charge =  1 Multiplicity = 2

 SCF Done:  E(UB3LYP) =  -477.126803445     A.U. after   33 cycles
 SCF Done:  E(UB3LYP) =  -477.126803972     a.u. after    2 cycles
 Normal termination of Gaussian 16 at Tue Dec  8 10:42:32 2020.
 Gaussian 16:  ES64L-G16RevA.03 25-Dec-2016

 ----------------------------------------------------------------------
 # B3LYP/6-311++G(d,p) empiricaldispersion=gd3bj scf=xqc pop=npa geom=c
 heck
 ----------------------------------------------------------------------

 -----------------------------------
 CID_130776640_JID_363_Energie_anion
 -----------------------------------
 Structure from the checkpoint file:  "JID_363.chk"
 Charge = -1 Multiplicity = 2

                         Standard orientation:
 ---------------------------------------------------------------------
 Center     Atomic      Atomic             Coordinates (Angstroms)
 Number     Number       Type             X           Y           Z
 ---------------------------------------------------------------------
      1          6           0       -3.430065   -0.787168   -0.661070
      2          6           0       -2.323717    0.088669   -0.130013
      3          8           0       -2.368740    1.291098    0.003374
      4          8           0       -1.231201   -0.652986    0.190492
      5          6           0       -0.127358    0.087598    0.713744
      6          6           0        1.093683   -0.789353    1.029068
      7          6           0        1.988550    0.352073    0.445613
      8          6           0        0.720250    0.908486   -0.278635
      9          6           0        3.128707   -0.031966   -0.372526
     10          7           0        4.019023   -0.357078   -1.043756
     11          1           0       -4.291968   -0.169788   -0.914658
     12          1           0       -3.711628   -1.532980    0.089288
     13          1           0       -3.085284   -1.329976   -1.547111
     14          1           0       -0.463683    0.691141    1.560347
     15          1           0        1.268964   -1.088255    2.064659
     16          1           0        1.111624   -1.669255    0.381506
     17          1           0        2.322569    1.033590    1.233902
     18          1           0        0.636223    0.500550   -1.289158
     19          1           0        0.579258    1.989583   -0.300493
 ---------------------------------------------------------------------

 SCF Done:  E(UB3LYP) =  -477.493307724     A.U. after   31 cycles

 The electronic state is 2-A.
 Alpha  occ. eigenvalues --  -19.07223 -19.01738 -14.21646 -10.20851 -10.14089
 Alpha  occ. eigenvalues --  -10.12444 -10.11574 -10.09134 -10.09071 -10.08083
 Alpha  occ. eigenvalues --   -1.01400  -0.92760  -0.81550  -0.77465  -0.66638
 Alpha  occ. eigenvalues --   -0.61334  -0.58785  -0.52495  -0.47142  -0.41822
 Alpha  occ. eigenvalues --   -0.41395  -0.39490  -0.38292  -0.36693  -0.32392
 Alpha  occ. eigenvalues --   -0.31869  -0.31224  -0.29914  -0.29422  -0.28116
 Alpha  occ. eigenvalues --   -0.27222  -0.25817  -0.24440  -0.23070  -0.22244
 Alpha  occ. eigenvalues --   -0.20499  -0.18552   0.04368
 Alpha virt. eigenvalues --    0.06311   0.07987   0.08744   0.09331   0.09934
 Alpha virt. eigenvalues --    0.10466   0.10648   0.11660   0.11837   0.11959
 Alpha virt. eigenvalues --    0.12421   0.13575   0.14337   0.15648   0.16471

  Beta  occ. eigenvalues --  -19.07213 -19.01724 -14.21630 -10.20844 -10.14068
  Beta  occ. eigenvalues --  -10.12414 -10.11571 -10.09116 -10.09036 -10.08027
  Beta  occ. eigenvalues --   -1.01379  -0.92735  -0.81517  -0.77424  -0.66576
  Beta  occ. eigenvalues --   -0.61258  -0.58717  -0.52435  -0.47068  -0.41756
  Beta  occ. eigenvalues --   -0.41306  -0.39430  -0.38239  -0.36650  -0.32347
  Beta  occ. eigenvalues --   -0.31810  -0.31181  -0.29866  -0.29374  -0.28064
  Beta  occ. eigenvalues --   -0.27184  -0.25770  -0.24389  -0.23004  -0.22212
  Beta  occ. eigenvalues --   -0.20466  -0.18528
  Beta virt. eigenvalues --    0.06997   0.07779   0.08601   0.09245   0.09624
  Beta virt. eigenvalues --    0.10412   0.11034   0.11267   0.11905   0.12201
  Beta virt. eigenvalues --    0.12284   0.12680   0.14021   0.14435   0.15588

 Mulliken charges and spin densities:
               1          2
     1  C    1.724766  -2.289374
     2  C   -1.125219   1.336191
     3  O   -0.278529   0.015505
     4  O   -0.005135   0.042670
     5  C   -1.876076   1.942452
     6  C    2.636392  -3.465987
     7  C   -1.605083   2.602909
     8  C    1.444737  -2.158810
     9  C    1.306872  -1.705263
    10  N   -0.327847   0.010740
    11  H   -0.120225   0.283313
    12  H   -0.557561   0.737712
    13  H   -0.448636   0.625147
    14  H   -0.378683   0.630086
    15  H   -0.332079   0.496295
    16  H   -0.076813   0.280608
    17  H   -1.027960   1.293937
    18  H   -0.143606   0.343420
    19  H    0.190684  -0.021550
 Sum of Mulliken charges =  -1.00000   1.00000

 Dipole moment (field-independent basis, Debye):
    X=             -0.2525    Y=              0.5204    Z=             -1.9986  Tot=              2.0806
 Quadrupole moment (field-independent basis, Debye-Ang):
   XX=           -133.0626   YY=            -91.4164   ZZ=            -97.3912
   XY=             -4.6888   XZ=             -2.6689   YZ=             -5.0412

 Summary of Natural Population Analysis:

                                       Natural Population
                Natural  -----------------------------------------------
    Atom  No    Charge         Core      Valence    Rydberg      Total
 -----------------------------------------------------------------------
      C    1   -0.33286      0.99962     2.32786    0.00537     3.33286
      C    2    0.41042      0.99971     1.56641    0.02346     2.58958
      O    3   -0.30348      0.99987     3.29750    0.00611     4.30348
      O    4   -0.28374      0.99985     3.27385    0.01004     4.28374
      C    5    0.05698      0.99949     1.92721    0.01632     2.94302
      C    6   -0.17556      0.99961     2.16566    0.01028     3.17556
      C    7   -0.17260      0.99952     2.16061    0.01247     3.17260
      C    8   -0.17923      0.99960     2.17050    0.00913     3.17923
      C    9    0.16726      0.99965     1.81632    0.01677     2.83274
      N   10   -0.18948      0.99979     2.67866    0.01103     3.68948
      H   11    0.10986      0.00000     0.38908    0.00106     0.39014
      H   12    0.11637      0.00000     0.38177    0.00185     0.38363
      H   13    0.11619      0.00000     0.38149    0.00232     0.38381
      H   14    0.10201      0.00000     0.39501    0.00298     0.39799
      H   15    0.10958      0.00000     0.38734    0.00308     0.39042
      H   16    0.10650      0.00000     0.39146    0.00204     0.39350
      H   17    0.12691      0.00000     0.36735    0.00574     0.37309
      H   18    0.10529      0.00000     0.39306    0.00165     0.39471
      H   19    0.10957      0.00000     0.38948    0.00096     0.39043
 =======================================================================
   * Total *   -0.00000      9.99671    26.86063    0.14266    37.00000

 Normal termination of Gaussian 16 at Tue Dec  8 10:48:44 2020.
