 Gaussian 16, Revision A.03,

 -----------------------------------------------------------
 # opt freq B3LYP/6-31G(d) empiricaldispersion=gd3bj scf=xqc
 -----------------------------------------------------------

 -------------------------------
 CID_134872942_JID_5644_neutraal
 -------------------------------
 Symbolic Z-matrix:
 Charge =  0 Multiplicity = 1

 SCF Done:  E(RB3LYP) =  -659.058536568     A.U. after   14 cycles
 SCF Done:  E(RB3LYP) =  -659.063540695     A.U. after   12 cycles
 SCF Done:  E(RB3LYP) =  -659.064113189     A.U. after   11 cycles
 SCF Done:  E(RB3LYP) =  -659.064588756     A.U. after   12 cycles
 SCF Done:  E(RB3LYP) =  -659.064799396     A.U. after   12 cycles
 SCF Done:  E(RB3LYP) =  -659.064869794     A.U. after   10 cycles
 SCF Done:  E(RB3LYP) =  -659.064886497     A.U. after   10 cycles
 SCF Done:  E(RB3LYP) =  -659.064896473     A.U. after    9 cycles
 SCF Done:  E(RB3LYP) =  -659.064899261     A.U. after    9 cycles
 SCF Done:  E(RB3LYP) =  -659.064899782     A.U. after    8 cycles
 SCF Done:  E(RB3LYP) =  -659.064899965     A.U. after    7 cycles
 SCF Done:  E(RB3LYP) =  -659.064900031     A.U. after    7 cycles
 SCF Done:  E(RB3LYP) =  -659.064900056     A.U. after    6 cycles
 Optimization completed.
    -- Stationary point found.
 Normal termination of Gaussian 16 at Thu Dec 10 16:34:17 2020.

 --------------------------------------------------------------------
 #N Geom=AllCheck Guess=TCheck SCRF=Check GenChk RB3LYP/6-31G(d) Freq
 --------------------------------------------------------------------

 Structure from the checkpoint file:  "JID_5644.chk"
 -------------------------------
 CID_134872942_JID_5644_neutraal
 -------------------------------
 Charge =  0 Multiplicity = 1

 SCF Done:  E(RB3LYP) =  -659.064900056     A.U. after    1 cycles

  Exact polarizability: 209.320  -7.697 125.959  19.411  -1.099 119.531
 Approx polarizability: 270.698 -12.825 173.762  40.235  -4.946 182.108

                      1                      2                      3
                      A                      A                      A
 Frequencies --     14.4925                26.0589                36.1850
 Red. masses --      5.3406                 3.4007                 3.3565
 Frc consts  --      0.0007                 0.0014                 0.0026
 IR Inten    --      0.4655                 1.2247                 0.1491

                      4                      5                      6
                      A                      A                      A
 Frequencies --     42.7087                64.4805                70.3434
 Red. masses --      3.9688                 3.0332                 2.7457
 Frc consts  --      0.0043                 0.0074                 0.0080
 IR Inten    --      0.1738                 0.3059                 1.8666

                      7                      8                      9
                      A                      A                      A
 Frequencies --     83.8152               108.8048               140.2283
 Red. masses --      2.9621                 2.6360                 1.3985
 Frc consts  --      0.0123                 0.0184                 0.0162
 IR Inten    --      1.1794                 1.6292                 0.1060

                     10                     11                     12
                      A                      A                      A
 Frequencies --    141.0805               153.4166               174.5755
 Red. masses --      1.3834                 1.2053                 1.3578
 Frc consts  --      0.0162                 0.0167                 0.0244
 IR Inten    --      0.3690                 0.1144                 1.0009

                     13                     14                     15
                      A                      A                      A
 Frequencies --    220.5940               245.2561               249.6935
 Red. masses --      3.5723                 3.1796                 2.7718
 Frc consts  --      0.1024                 0.1127                 0.1018
 IR Inten    --      2.4280                 2.8060                 2.2079

                     16                     17                     18
                      A                      A                      A
 Frequencies --    301.6281               308.1867               332.7165
 Red. masses --      3.1272                 2.3014                 2.1771
 Frc consts  --      0.1676                 0.1288                 0.1420
 IR Inten    --     10.2470                 5.0251                29.0683

                     19                     20                     21
                      A                      A                      A
 Frequencies --    363.0927               373.1168               384.4372
 Red. masses --      1.5029                 1.9861                 1.5980
 Frc consts  --      0.1167                 0.1629                 0.1391
 IR Inten    --     38.3844                22.9437               103.2604

                     22                     23                     24
                      A                      A                      A
 Frequencies --    418.4011               435.2305               438.7172
 Red. masses --      1.9547                 2.0115                 2.1316
 Frc consts  --      0.2016                 0.2245                 0.2417
 IR Inten    --     17.1652                21.6905                12.9891

                     25                     26                     27
                      A                      A                      A
 Frequencies --    472.3855               511.7409               550.1038
 Red. masses --      3.2309                 2.7112                 2.6977
 Frc consts  --      0.4248                 0.4183                 0.4810
 IR Inten    --     10.4310                 2.6730                 7.5312

                     28                     29                     30
                      A                      A                      A
 Frequencies --    581.7567               592.6465               605.7579
 Red. masses --      2.2267                 2.4172                 2.9562
 Frc consts  --      0.4440                 0.5002                 0.6391
 IR Inten    --      4.6990                 6.6133                 9.0223

                     31                     32                     33
                      A                      A                      A
 Frequencies --    784.9673               802.1181               809.6458
 Red. masses --      2.4314                 2.9471                 2.6225
 Frc consts  --      0.8827                 1.1172                 1.0129
 IR Inten    --      3.3033                 4.2621                 5.2573

                     34                     35                     36
                      A                      A                      A
 Frequencies --    887.4520               897.2705               907.7865
 Red. masses --      1.4816                 1.5151                 1.5718
 Frc consts  --      0.6875                 0.7187                 0.7631
 IR Inten    --      3.8518                10.9317                18.8755

                     37                     38                     39
                      A                      A                      A
 Frequencies --    935.2564               949.4386               964.0841
 Red. masses --      1.8493                 1.6597                 1.4318
 Frc consts  --      0.9531                 0.8815                 0.7841
 IR Inten    --      0.6532                 2.4738                 5.9319

                     40                     41                     42
                      A                      A                      A
 Frequencies --    974.0777              1008.3084              1026.4727
 Red. masses --      1.5743                 2.0544                 2.1663
 Frc consts  --      0.8801                 1.2306                 1.3448
 IR Inten    --     36.3969                 7.6690                19.2458

                     43                     44                     45
                      A                      A                      A
 Frequencies --   1043.1964              1046.8922              1049.0032
 Red. masses --      5.3168                 3.5755                 1.9646
 Frc consts  --      3.4091                 2.3088                 1.2737
 IR Inten    --     98.6345                99.8218                61.3544

                     46                     47                     48
                      A                      A                      A
 Frequencies --   1075.9971              1076.7602              1079.9080
 Red. masses --      1.4942                 1.4477                 1.5004
 Frc consts  --      1.0193                 0.9890                 1.0309
 IR Inten    --      4.0539                 2.8352                 0.2816

                     49                     50                     51
                      A                      A                      A
 Frequencies --   1106.2479              1118.0222              1120.8162
 Red. masses --      2.1751                 2.3574                 2.3721
 Frc consts  --      1.5683                 1.7361                 1.7557
 IR Inten    --     15.0564                 3.1374                 3.0810

                     52                     53                     54
                      A                      A                      A
 Frequencies --   1189.6741              1194.4184              1202.2913
 Red. masses --      1.6842                 1.4146                 1.3887
 Frc consts  --      1.4045                 1.1890                 1.1827
 IR Inten    --     13.1947                 6.9566                 2.5353

                     55                     56                     57
                      A                      A                      A
 Frequencies --   1220.6632              1244.6739              1262.0927
 Red. masses --      1.1299                 1.8504                 1.5563
 Frc consts  --      0.9919                 1.6890                 1.4606
 IR Inten    --     12.5063                 6.9636                10.7072

                     58                     59                     60
                      A                      A                      A
 Frequencies --   1275.4422              1327.6740              1333.9791
 Red. masses --      1.5258                 1.5422                 1.4173
 Frc consts  --      1.4624                 1.6016                 1.4859
 IR Inten    --      0.5170                 3.5138                 0.2559

                     61                     62                     63
                      A                      A                      A
 Frequencies --   1355.7829              1371.6038              1402.7683
 Red. masses --      1.2633                 1.3306                 1.2340
 Frc consts  --      1.3682                 1.4749                 1.4307
 IR Inten    --      2.8003                 0.5904                29.5654

                     64                     65                     66
                      A                      A                      A
 Frequencies --   1404.6440              1408.3024              1430.9573
 Red. masses --      1.2952                 1.2338                 1.2785
 Frc consts  --      1.5056                 1.4418                 1.5425
 IR Inten    --      1.4520                 3.4242                92.1202

                     67                     68                     69
                      A                      A                      A
 Frequencies --   1439.1803              1445.0192              1445.4084
 Red. masses --      1.2679                 1.3789                 1.3323
 Frc consts  --      1.5473                 1.6964                 1.6400
 IR Inten    --     70.8771                 5.3996                 4.6175

                     70                     71                     72
                      A                      A                      A
 Frequencies --   1446.8240              1502.6944              1504.9218
 Red. masses --      1.3234                 1.0739                 1.0728
 Frc consts  --      1.6322                 1.4287                 1.4316
 IR Inten    --     14.9861                 3.4769                 1.8004

                     73                     74                     75
                      A                      A                      A
 Frequencies --   1508.0371              1511.9340              1514.5113
 Red. masses --      1.0538                 1.0645                 1.0495
 Frc consts  --      1.4120                 1.4337                 1.4184
 IR Inten    --      4.3393                 5.7038                 5.6539

                     76                     77                     78
                      A                      A                      A
 Frequencies --   1521.1418              1528.2939              1529.8654
 Red. masses --      1.0729                 1.0751                 1.0731
 Frc consts  --      1.4627                 1.4796                 1.4798
 IR Inten    --      1.3251                10.5150                10.3172

                     79                     80                     81
                      A                      A                      A
 Frequencies --   1532.6827              1540.6799              1739.0213
 Red. masses --      1.0810                 1.0858                 7.0698
 Frc consts  --      1.4962                 1.5186                12.5969
 IR Inten    --      4.4441                 1.9012                 1.0282

                     82                     83                     84
                      A                      A                      A
 Frequencies --   1748.2253              1757.5719              3011.5869
 Red. masses --      6.7021                 6.4345                 1.0665
 Frc consts  --     12.0685                11.7110                 5.6989
 IR Inten    --      5.8788                 9.4538                50.4409

                     85                     86                     87
                      A                      A                      A
 Frequencies --   3028.4279              3037.6477              3038.7500
 Red. masses --      1.0623                 1.0444                 1.0478
 Frc consts  --      5.7404                 5.6781                 5.7007
 IR Inten    --     34.9755                15.2241                26.0828

                     88                     89                     90
                      A                      A                      A
 Frequencies --   3039.2197              3045.0323              3046.6996
 Red. masses --      1.0471                 1.0580                 1.0579
 Frc consts  --      5.6985                 5.7800                 5.7856
 IR Inten    --     33.4631                24.0761                35.1979

                     91                     92                     93
                      A                      A                      A
 Frequencies --   3078.4041              3078.6916              3083.4259
 Red. masses --      1.0973                 1.0979                 1.1026
 Frc consts  --      6.1265                 6.1314                 6.1765
 IR Inten    --     38.7332                35.3588                 0.6749

                     94                     95                     96
                      A                      A                      A
 Frequencies --   3084.1384              3087.7908              3090.2019
 Red. masses --      1.1023                 1.0966                 1.0947
 Frc consts  --      6.1774                 6.1605                 6.1591
 IR Inten    --     45.0039                18.0484                17.3349

                     97                     98                     99
                      A                      A                      A
 Frequencies --   3101.6751              3134.3835              3138.8897
 Red. masses --      1.0891                 1.0881                 1.0883
 Frc consts  --      6.1734                 6.2984                 6.3174
 IR Inten    --     16.5446                22.5793                24.2982

                    100                    101                    102
                      A                      A                      A
 Frequencies --   3146.1212              3148.3830              3148.9075
 Red. masses --      1.0885                 1.0972                 1.0991
 Frc consts  --      6.3478                 6.4076                 6.4214
 IR Inten    --     23.4547                25.6752                38.3562

                    103                    104                    105
                      A                      A                      A
 Frequencies --   3150.3105              3729.6541              3733.9525
 Red. masses --      1.0965                 1.0661                 1.0661
 Frc consts  --      6.4114                 8.7371                 8.7577
 IR Inten    --     18.5947                 9.2538                 6.0462

 - Thermochemistry -
 -------------------
 Temperature   298.150 Kelvin.  Pressure   1.00000 Atm.
 Atom     1 has atomic number  6 and mass  12.00000

 Molecular mass:   210.16198 amu.
 Principal axes and moments of inertia in atomic units:
                           1         2         3
     Eigenvalues --  1909.500688964.110519936.21722
           X            0.99999  -0.00475  -0.00245
           Y            0.00475   0.99999   0.00021
           Z            0.00245  -0.00022   1.00000
 This molecule is an asymmetric top.
 Rotational symmetry number  1.
 Warning -- assumption of classical behavior for rotation
           may cause significant error
 Rotational temperatures (Kelvin)      0.04536     0.00966     0.00872
 Rotational constants (GHZ):           0.94514     0.20133     0.18163
 Zero-point vibrational energy     862080.8 (Joules/Mol)
                                  206.04225 (Kcal/Mol)
 Warning -- explicit consideration of  30 degrees of freedom as
           vibrations may cause significant error
 Vibrational temperatures:     20.85    37.49    52.06    61.45    92.77
          (Kelvin)            101.21   120.59   156.55   201.76   202.98
                              220.73   251.18   317.39   352.87   359.25
                              433.98   443.41   478.70   522.41   536.83
                              553.12   601.99   626.20   631.22   679.66
                              736.28   791.48   837.02   852.69   871.55
                             1129.39  1154.07  1164.90  1276.85  1290.97
                             1306.10  1345.63  1366.03  1387.10  1401.48
                             1450.73  1476.87  1500.93  1506.24  1509.28
                             1548.12  1549.22  1553.75  1591.64  1608.58
                             1612.60  1711.68  1718.50  1729.83  1756.26
                             1790.81  1815.87  1835.08  1910.23  1919.30
                             1950.67  1973.43  2018.27  2020.97  2026.23
                             2058.83  2070.66  2079.06  2079.62  2081.66
                             2162.04  2165.25  2169.73  2175.34  2179.04
                             2188.58  2198.87  2201.14  2205.19  2216.69
                             2502.06  2515.31  2528.75  4333.00  4357.23
                             4370.50  4372.08  4372.76  4381.12  4383.52
                             4429.14  4429.55  4436.36  4437.39  4442.64
                             4446.11  4462.62  4509.68  4516.16  4526.57
                             4529.82  4530.58  4532.59  5366.14  5372.32

 Zero-point correction=                           0.328349 (Hartree/Particle)
 Thermal correction to Energy=                    0.347180
 Thermal correction to Enthalpy=                  0.348124
 Thermal correction to Gibbs Free Energy=         0.278293
 Sum of electronic and zero-point Energies=           -658.736551
 Sum of electronic and thermal Energies=              -658.717720
 Sum of electronic and thermal Enthalpies=            -658.716776
 Sum of electronic and thermal Free Energies=         -658.786607

                     E (Thermal)             CV                S
                      KCal/Mol        Cal/Mol-Kelvin    Cal/Mol-Kelvin
 Total                  217.858             67.202            146.970
 Electronic               0.000              0.000              0.000
 Translational            0.889              2.981             41.932
 Rotational               0.889              2.981             33.497
 Vibrational            216.081             61.240             71.542
 Vibration     1          0.593              1.986              7.274
 Vibration     2          0.593              1.985              6.109
 Vibration     3          0.594              1.982              5.458
 Vibration     4          0.595              1.980              5.129
 Vibration     5          0.597              1.971              4.315
 Vibration     6          0.598              1.968              4.144
 Vibration     7          0.601              1.960              3.799
 Vibration     8          0.606              1.942              3.290
 Vibration     9          0.615              1.913              2.801
 Vibration    10          0.615              1.912              2.789
 Vibration    11          0.619              1.899              2.629
 Vibration    12          0.627              1.874              2.386
 Vibration    13          0.647              1.810              1.954
 Vibration    14          0.660              1.771              1.764
 Vibration    15          0.662              1.763              1.733
 Vibration    16          0.694              1.671              1.408
 Vibration    17          0.698              1.658              1.372
 Vibration    18          0.715              1.610              1.247
 Vibration    19          0.737              1.548              1.109
 Vibration    20          0.745              1.527              1.067
 Vibration    21          0.753              1.503              1.022
 Vibration    22          0.781              1.430              0.897
 Vibration    23          0.796              1.393              0.842
 Vibration    24          0.799              1.386              0.831
 Vibration    25          0.829              1.311              0.731
 Vibration    26          0.867              1.224              0.629
 Vibration    27          0.905              1.139              0.544
 Vibration    28          0.939              1.071              0.482
 Vibration    29          0.950              1.047              0.462
 Vibration    30          0.964              1.020              0.440

                           ! Non-Optimized Parameters !
 Normal termination of Gaussian 16 at Thu Dec 10 16:45:46 2020.

 ----------------------------------------------------------------------
 # B3LYP/6-311++G(d,p) empiricaldispersion=gd3bj scf=xqc pop=npa geom=c
 heck
 ----------------------------------------------------------------------

 ---------------------------------------
 CID_134872942_JID_5644_Energie_neutraal
 ---------------------------------------
 Structure from the checkpoint file:  "JID_5644.chk"
 Charge =  0 Multiplicity = 1

 SCF Done:  E(RB3LYP) =  -659.273772368     A.U. after   15 cycles
 Normal termination of Gaussian 16 at Thu Dec 10 16:52:02 2020.

 ----------------------------------------------------------------------
 # B3LYP/6-311++G(d,p) empiricaldispersion=gd3bj scf=xqc pop=npa geom=c
 heck
 ----------------------------------------------------------------------

 -------------------------------------
 CID_134872942_JID_5644_Energie_kation
 -------------------------------------
 Structure from the checkpoint file:  "JID_5644.chk"
 Charge =  1 Multiplicity = 2

 SCF Done:  E(UB3LYP) =  -658.970859768     A.U. after   25 cycles
 Normal termination of Gaussian 16 at Thu Dec 10 17:07:27 2020.
 Gaussian 16:  ES64L-G16RevA.03 25-Dec-2016

 ----------------------------------------------------------------------
 # B3LYP/6-311++G(d,p) empiricaldispersion=gd3bj scf=xqc pop=npa geom=c
 heck
 ----------------------------------------------------------------------

 ------------------------------------
 CID_134872942_JID_5644_Energie_anion
 ------------------------------------
 Structure from the checkpoint file:  "JID_5644.chk"
 Charge = -1 Multiplicity = 2

                         Standard orientation:
 ---------------------------------------------------------------------
 Center     Atomic      Atomic             Coordinates (Angstroms)
 Number     Number       Type             X           Y           Z
 ---------------------------------------------------------------------
      1          6           0        0.815773   -2.083659    0.874513
      2          6           0        0.389649   -1.445568   -0.421904
      3          6           0       -0.878847   -1.282321   -0.822665
      4          6           0       -2.143087   -1.647819   -0.084857
      5          6           0       -2.850618   -0.410890    0.448241
      6          6           0       -4.018732   -0.019899   -0.082987
      7          6           0       -4.839305    1.186556    0.267935
      8          8           0       -5.077536    2.009165   -0.878599
      9          6           0       -2.123052    0.289810    1.566510
     10          6           0        1.536069   -0.935312   -1.281465
     11          6           0        2.178602    0.280739   -0.661818
     12          6           0        3.357848    0.361400   -0.028042
     13          6           0        4.338750   -0.768172    0.148745
     14          6           0        3.801513    1.680744    0.561261
     15          8           0        5.014431    2.158911   -0.025301
     16          1           0       -0.024854   -2.401896    1.494099
     17          1           0        1.423499   -1.383599    1.460754
     18          1           0        1.447210   -2.961817    0.682348
     19          1           0       -1.049169   -0.784477   -1.778179
     20          1           0       -2.817094   -2.184486   -0.763713
     21          1           0       -1.923936   -2.327726    0.747186
     22          1           0       -4.441815   -0.614793   -0.893264
     23          1           0       -5.837097    0.884424    0.607250
     24          1           0       -4.384899    1.768350    1.081973
     25          1           0       -4.207340    2.207790   -1.258966
     26          1           0       -2.087691   -0.349570    2.459333
     27          1           0       -1.082953    0.482452    1.277624
     28          1           0       -2.582373    1.237243    1.855750
     29          1           0        2.274341   -1.734135   -1.420842
     30          1           0        1.154109   -0.673914   -2.276032
     31          1           0        1.561367    1.179880   -0.701253
     32          1           0        5.343514   -0.434582   -0.131663
     33          1           0        4.389584   -1.069943    1.204170
     34          1           0        4.086221   -1.653325   -0.439037
     35          1           0        2.996229    2.425785    0.473491
     36          1           0        4.034578    1.567518    1.626898
     37          1           0        4.846028    2.242556   -0.977520
 ---------------------------------------------------------------------

 SCF Done:  E(UB3LYP) =  -659.264750626     A.U. after   33 cycles
 SCF Done:  E(UB3LYP) =  -659.264750626     a.u. after    1 cycles

 The electronic state is 2-A.
 Alpha  occ. eigenvalues --  -19.03209 -19.02772 -10.12917 -10.11961 -10.09516
 Alpha  occ. eigenvalues --  -10.08436 -10.08376 -10.07913 -10.07667 -10.07430
 Alpha  occ. eigenvalues --  -10.07332 -10.07148 -10.06917 -10.06880 -10.06743
 Alpha  occ. eigenvalues --   -0.93125  -0.92708  -0.74282  -0.72536  -0.69902
 Alpha  occ. eigenvalues --   -0.64908  -0.62373  -0.61552  -0.59315  -0.57942
 Alpha  occ. eigenvalues --   -0.55531  -0.52812  -0.44421  -0.43461  -0.42280
 Alpha  occ. eigenvalues --   -0.41907  -0.40677  -0.38508  -0.38158  -0.37005
 Alpha  occ. eigenvalues --   -0.35503  -0.34974  -0.34088  -0.33854  -0.32709
 Alpha  occ. eigenvalues --   -0.31614  -0.30822  -0.30279  -0.29004  -0.28478
 Alpha  occ. eigenvalues --   -0.28410  -0.28001  -0.27119  -0.26265  -0.25215
 Alpha  occ. eigenvalues --   -0.24672  -0.24423  -0.23331  -0.19434  -0.18608
 Alpha  occ. eigenvalues --   -0.15995  -0.15394  -0.14522   0.03984
 Alpha virt. eigenvalues --    0.06154   0.06352   0.07198   0.07348   0.08098
 Alpha virt. eigenvalues --    0.08490   0.08580   0.09017   0.09795   0.10006
 Alpha virt. eigenvalues --    0.10434   0.10824   0.11060   0.11196   0.12107

  Beta  occ. eigenvalues --  -19.03183 -19.02742 -10.12905 -10.11943 -10.09488
  Beta  occ. eigenvalues --  -10.08434 -10.08372 -10.07903 -10.07657 -10.07430
  Beta  occ. eigenvalues --  -10.07307 -10.07107 -10.06888 -10.06851 -10.06712
  Beta  occ. eigenvalues --   -0.93066  -0.92641  -0.74237  -0.72485  -0.69855
  Beta  occ. eigenvalues --   -0.64869  -0.62320  -0.61500  -0.59254  -0.57886
  Beta  occ. eigenvalues --   -0.55482  -0.52767  -0.44363  -0.43395  -0.42224
  Beta  occ. eigenvalues --   -0.41853  -0.40621  -0.38469  -0.38123  -0.36964
  Beta  occ. eigenvalues --   -0.35458  -0.34921  -0.34043  -0.33826  -0.32663
  Beta  occ. eigenvalues --   -0.31573  -0.30782  -0.30243  -0.28973  -0.28446
  Beta  occ. eigenvalues --   -0.28373  -0.27961  -0.27087  -0.26236  -0.25179
  Beta  occ. eigenvalues --   -0.24632  -0.24387  -0.23292  -0.19405  -0.18567
  Beta  occ. eigenvalues --   -0.15909  -0.15268  -0.14438
  Beta virt. eigenvalues --    0.06035   0.06614   0.06848   0.07625   0.07804
  Beta virt. eigenvalues --    0.08329   0.08734   0.08808   0.09322   0.10118
  Beta virt. eigenvalues --    0.10250   0.10660   0.11052   0.11129   0.11398

 Mulliken charges and spin densities:
               1          2
     1  C   -0.484733  -0.471313
     2  C   -0.895834   1.458543
     3  C    1.674707  -2.113588
     4  C    0.003017  -0.041492
     5  C   -0.463759   1.310250
     6  C    0.326523  -0.809877
     7  C    0.314952  -0.949784
     8  O   -0.267322   0.026266
     9  C   -0.076149  -0.774582
    10  C   -0.385528   0.344489
    11  C    0.570607  -0.985077
    12  C   -0.844788   1.176374
    13  C    0.071469  -0.626521
    14  C    0.720522  -1.198811
    15  O   -0.247692   0.031212
    16  H   -0.184341   0.283950
    17  H    0.160012   0.005620
    18  H   -0.178511   0.347414
    19  H   -0.051182   0.231283
    20  H    0.013308   0.161606
    21  H    0.139564  -0.000261
    22  H    0.127012   0.026108
    23  H    0.070821   0.072906
    24  H    0.063143   0.090299
    25  H   -0.012226   0.253111
    26  H    0.012032   0.150873
    27  H    0.272745  -0.075382
    28  H   -0.304806   0.415535
    29  H    0.002149   0.141667
    30  H   -0.412640   0.597396
    31  H   -0.304122   0.483231
    32  H    0.050502   0.098172
    33  H   -0.129794   0.278083
    34  H   -0.133972   0.268984
    35  H   -0.239787   0.411553
    36  H   -0.017820   0.186905
    37  H    0.041921   0.194856
 Sum of Mulliken charges =  -1.00000   1.00000

 Dipole moment (field-independent basis, Debye):
    X=             -2.4582    Y=             -3.2852    Z=              1.3290  Tot=              4.3129
 Quadrupole moment (field-independent basis, Debye-Ang):
   XX=           -193.6390   YY=           -142.2648   ZZ=           -127.1831
   XY=              6.5905   XZ=             -8.3561   YZ=              1.5438

 Summary of Natural Population Analysis:

                                       Natural Population
                Natural  -----------------------------------------------
    Atom  No    Charge         Core      Valence    Rydberg      Total
 -----------------------------------------------------------------------
      C    1   -0.30254      0.99961     2.29686    0.00607     3.30254
      C    2    0.00132      0.99947     1.98902    0.01019     2.99868
      C    3   -0.09296      0.99943     2.08408    0.00946     3.09296
      C    4   -0.21336      0.99957     2.20459    0.00921     3.21336
      C    5    0.01782      0.99948     1.97250    0.01019     2.98218
      C    6   -0.12763      0.99944     2.11881    0.00938     3.12763
      C    7   -0.02471      0.99958     2.01174    0.01339     3.02471
      O    8   -0.36847      0.99990     3.36217    0.00640     4.36847
      C    9   -0.30532      0.99961     2.29951    0.00620     3.30532
      C   10   -0.21499      0.99957     2.20482    0.01060     3.21499
      C   11   -0.07920      0.99944     2.06890    0.01086     3.07920
      C   12   -0.02910      0.99947     2.01926    0.01037     3.02910
      C   13   -0.30205      0.99962     2.29717    0.00526     3.30205
      C   14   -0.01663      0.99954     2.00490    0.01219     3.01663
      O   15   -0.36939      0.99990     3.36284    0.00665     4.36939
      H   16    0.09965      0.00000     0.39930    0.00104     0.40035
      H   17    0.10792      0.00000     0.39055    0.00153     0.39208
      H   18    0.10400      0.00000     0.39459    0.00141     0.39600
      H   19    0.09477      0.00000     0.40349    0.00174     0.40523
      H   20    0.10269      0.00000     0.39613    0.00118     0.39731
      H   21    0.10117      0.00000     0.39743    0.00140     0.39883
      H   22    0.09387      0.00000     0.40484    0.00129     0.40613
      H   23    0.08570      0.00000     0.41312    0.00118     0.41430
      H   24    0.08012      0.00000     0.41848    0.00140     0.41988
      H   25    0.22932      0.00000     0.26676    0.00392     0.27068
      H   26    0.10205      0.00000     0.39691    0.00104     0.39795
      H   27    0.11230      0.00000     0.38581    0.00189     0.38770
      H   28    0.10223      0.00000     0.39665    0.00112     0.39777
      H   29    0.10136      0.00000     0.39697    0.00167     0.39864
      H   30    0.10689      0.00000     0.39142    0.00169     0.39311
      H   31    0.09552      0.00000     0.40253    0.00195     0.40448
      H   32    0.10778      0.00000     0.39066    0.00155     0.39222
      H   33    0.10349      0.00000     0.39490    0.00161     0.39651
      H   34    0.10155      0.00000     0.39716    0.00128     0.39845
      H   35    0.08146      0.00000     0.41667    0.00187     0.41854
      H   36    0.08610      0.00000     0.41225    0.00166     0.41390
      H   37    0.22727      0.00000     0.26922    0.00350     0.27273
 =======================================================================
   * Total *   -0.00000     14.99363    42.83302    0.17335    58.00000

 Normal termination of Gaussian 16 at Thu Dec 10 17:29:04 2020.
