 Gaussian 16, Revision A.03,

 -----------------------------------------------------------
 # opt freq B3LYP/6-31G(d) empiricaldispersion=gd3bj scf=xqc
 -----------------------------------------------------------

 -------------------------------
 CID_124207283_JID_8716_neutraal
 -------------------------------
 Symbolic Z-matrix:
 Charge =  0 Multiplicity = 1

 SCF Done:  E(RB3LYP) =  -845.009836461     A.U. after   14 cycles
 SCF Done:  E(RB3LYP) =  -845.020350733     A.U. after   12 cycles
 SCF Done:  E(RB3LYP) =  -845.020916205     A.U. after   12 cycles
 SCF Done:  E(RB3LYP) =  -845.023114407     A.U. after   12 cycles
 SCF Done:  E(RB3LYP) =  -845.023845529     A.U. after   11 cycles
 SCF Done:  E(RB3LYP) =  -845.024274203     A.U. after   11 cycles
 SCF Done:  E(RB3LYP) =  -845.024855827     A.U. after   11 cycles
 SCF Done:  E(RB3LYP) =  -845.025107421     A.U. after   11 cycles
 SCF Done:  E(RB3LYP) =  -845.024243665     A.U. after   12 cycles
 SCF Done:  E(RB3LYP) =  -845.025010285     A.U. after   11 cycles
 SCF Done:  E(RB3LYP) =  -845.025731663     A.U. after   11 cycles
 SCF Done:  E(RB3LYP) =  -845.025736184     A.U. after   10 cycles
 SCF Done:  E(RB3LYP) =  -845.025739008     A.U. after    8 cycles
 SCF Done:  E(RB3LYP) =  -845.025739997     A.U. after    8 cycles
 SCF Done:  E(RB3LYP) =  -845.025740050     A.U. after    8 cycles
 Optimization completed.
    -- Stationary point found.
 Normal termination of Gaussian 16 at Fri Dec 11 22:22:20 2020.

 --------------------------------------------------------------------
 #N Geom=AllCheck Guess=TCheck SCRF=Check GenChk RB3LYP/6-31G(d) Freq
 --------------------------------------------------------------------

 Structure from the checkpoint file:  "JID_8716.chk"
 -------------------------------
 CID_124207283_JID_8716_neutraal
 -------------------------------
 Charge =  0 Multiplicity = 1

 SCF Done:  E(RB3LYP) =  -845.025740050     A.U. after    1 cycles

  Exact polarizability: 180.442  -0.069 148.658  -3.985   5.260 133.724
 Approx polarizability: 219.514  -5.734 216.996  -9.092  12.855 208.387

                      1                      2                      3
                      A                      A                      A
 Frequencies --     22.2369                23.8371                44.2508
 Red. masses --      4.4458                 5.0040                 4.2797
 Frc consts  --      0.0013                 0.0017                 0.0049
 IR Inten    --      0.1878                 0.9670                 0.0961

                      4                      5                      6
                      A                      A                      A
 Frequencies --     60.8384                89.9759               103.0550
 Red. masses --      4.2176                 3.7471                 3.3938
 Frc consts  --      0.0092                 0.0179                 0.0212
 IR Inten    --      0.9953                 1.1319                 0.6118

                      7                      8                      9
                      A                      A                      A
 Frequencies --    104.0729               130.8937               142.3724
 Red. masses --      3.1910                 3.1692                 2.7975
 Frc consts  --      0.0204                 0.0320                 0.0334
 IR Inten    --      0.7580                 1.2980                 6.4624

                     10                     11                     12
                      A                      A                      A
 Frequencies --    149.1310               172.3197               225.9947
 Red. masses --      2.9368                 2.6890                 2.6175
 Frc consts  --      0.0385                 0.0470                 0.0788
 IR Inten    --      5.3733                 2.2029                 1.0573

                     13                     14                     15
                      A                      A                      A
 Frequencies --    230.2687               260.8577               276.9409
 Red. masses --      2.4528                 1.3841                 2.8929
 Frc consts  --      0.0766                 0.0555                 0.1307
 IR Inten    --      1.4891                 4.4852                 1.5960

                     16                     17                     18
                      A                      A                      A
 Frequencies --    313.5883               318.6403               342.5366
 Red. masses --      2.7115                 2.5308                 2.6249
 Frc consts  --      0.1571                 0.1514                 0.1815
 IR Inten    --      1.5813                10.9122                 2.4734

                     19                     20                     21
                      A                      A                      A
 Frequencies --    370.8495               391.5169               412.1406
 Red. masses --      2.5378                 2.3058                 2.8941
 Frc consts  --      0.2056                 0.2082                 0.2896
 IR Inten    --      3.0059                 2.5173                 2.3609

                     22                     23                     24
                      A                      A                      A
 Frequencies --    434.2835               475.6467               481.5624
 Red. masses --      2.0143                 3.6784                 2.6834
 Frc consts  --      0.2238                 0.4903                 0.3666
 IR Inten    --      0.0662                 0.1536                 3.3895

                     25                     26                     27
                      A                      A                      A
 Frequencies --    496.4745               512.8293               588.1314
 Red. masses --      2.6880                 2.5900                 2.0022
 Frc consts  --      0.3904                 0.4013                 0.4081
 IR Inten    --      0.6845                 1.8487                35.4699

                     28                     29                     30
                      A                      A                      A
 Frequencies --    615.2587               634.8856               669.6682
 Red. masses --      1.9026                 1.8253                 1.7824
 Frc consts  --      0.4243                 0.4335                 0.4710
 IR Inten    --     24.3592                60.5886                 4.6704

                     31                     32                     33
                      A                      A                      A
 Frequencies --    715.1443               764.1694               803.8056
 Red. masses --      3.6350                 1.8657                 1.3496
 Frc consts  --      1.0953                 0.6419                 0.5138
 IR Inten    --     40.8710                 1.5973                 0.9408

                     34                     35                     36
                      A                      A                      A
 Frequencies --    826.8826               855.1485               866.9175
 Red. masses --      3.6321                 1.7394                 3.3469
 Frc consts  --      1.4632                 0.7494                 1.4820
 IR Inten    --     11.2836                 0.3880                30.3281

                     37                     38                     39
                      A                      A                      A
 Frequencies --    871.6219               880.8808               903.3828
 Red. masses --      2.4435                 3.1598                 2.4216
 Frc consts  --      1.0937                 1.4446                 1.1644
 IR Inten    --      3.3518                 5.3589                22.5898

                     40                     41                     42
                      A                      A                      A
 Frequencies --    922.2294               923.6832               955.8234
 Red. masses --      2.2524                 2.1155                 2.3813
 Frc consts  --      1.1287                 1.0634                 1.2818
 IR Inten    --      2.2754                 0.9512                 3.0194

                     43                     44                     45
                      A                      A                      A
 Frequencies --    984.1638               997.5196               999.8790
 Red. masses --      2.5055                 3.5651                 2.4868
 Frc consts  --      1.4298                 2.0901                 1.4648
 IR Inten    --      6.8198                12.6007                27.6983

                     46                     47                     48
                      A                      A                      A
 Frequencies --   1007.4473              1025.4989              1052.6286
 Red. masses --      1.8223                 1.9060                 2.5783
 Frc consts  --      1.0897                 1.1810                 1.6832
 IR Inten    --      5.5474                 7.4863                19.5520

                     49                     50                     51
                      A                      A                      A
 Frequencies --   1076.2301              1081.5743              1098.2846
 Red. masses --      1.4823                 1.6040                 2.7405
 Frc consts  --      1.0116                 1.1055                 1.9476
 IR Inten    --      6.0335                11.4916                 0.1074

                     52                     53                     54
                      A                      A                      A
 Frequencies --   1099.6833              1144.7704              1154.6035
 Red. masses --      1.8570                 6.0870                 2.8388
 Frc consts  --      1.3231                 4.6999                 2.2297
 IR Inten    --     16.3044                77.4203                25.8219

                     55                     56                     57
                      A                      A                      A
 Frequencies --   1163.3107              1170.5614              1182.3008
 Red. masses --      2.7753                 4.6928                 1.7695
 Frc consts  --      2.2128                 3.7885                 1.4573
 IR Inten    --     38.1117                88.7148                 5.3936

                     58                     59                     60
                      A                      A                      A
 Frequencies --   1184.4087              1202.6328              1218.7382
 Red. masses --      1.8978                 1.7905                 1.6020
 Frc consts  --      1.5685                 1.5258                 1.4019
 IR Inten    --     10.0988                 1.6373                 5.6155

                     61                     62                     63
                      A                      A                      A
 Frequencies --   1223.0000              1240.7520              1243.5699
 Red. masses --      1.4549                 1.4360                 1.1897
 Frc consts  --      1.2821                 1.3025                 1.0840
 IR Inten    --      7.2340                13.5781                13.6436

                     64                     65                     66
                      A                      A                      A
 Frequencies --   1262.7861              1272.2431              1273.4852
 Red. masses --      1.2776                 1.2621                 1.2659
 Frc consts  --      1.2004                 1.2036                 1.2096
 IR Inten    --     11.8294                 4.6402                19.6843

                     67                     68                     69
                      A                      A                      A
 Frequencies --   1287.5599              1296.4748              1321.1385
 Red. masses --      1.3225                 1.4089                 1.3414
 Frc consts  --      1.2918                 1.3953                 1.3794
 IR Inten    --      5.8322                 3.0524                10.0108

                     70                     71                     72
                      A                      A                      A
 Frequencies --   1330.6137              1336.7979              1353.1106
 Red. masses --      1.2390                 1.5544                 1.7055
 Frc consts  --      1.2925                 1.6366                 1.8398
 IR Inten    --      8.3731                 2.0847                29.4043

                     73                     74                     75
                      A                      A                      A
 Frequencies --   1367.2706              1375.8954              1388.9965
 Red. masses --      1.4240                 1.2882                 1.3811
 Frc consts  --      1.5684                 1.4368                 1.5699
 IR Inten    --     58.1826                 4.7856                 0.4590

                     76                     77                     78
                      A                      A                      A
 Frequencies --   1400.8814              1406.0132              1421.4443
 Red. masses --      1.3668                 1.2814                 1.3766
 Frc consts  --      1.5804                 1.4925                 1.6387
 IR Inten    --      6.8727                19.3159                 2.2172

                     79                     80                     81
                      A                      A                      A
 Frequencies --   1434.8497              1439.6983              1445.4149
 Red. masses --      1.6723                 1.3630                 1.5352
 Frc consts  --      2.0285                 1.6645                 1.8898
 IR Inten    --     66.3000                15.2746                17.7781

                     82                     83                     84
                      A                      A                      A
 Frequencies --   1496.1737              1499.6608              1504.3855
 Red. masses --      1.0878                 1.1865                 1.1973
 Frc consts  --      1.4347                 1.5722                 1.5965
 IR Inten    --      4.8771                 5.7695                22.5191

                     85                     86                     87
                      A                      A                      A
 Frequencies --   1507.2775              1511.6904              1514.5001
 Red. masses --      1.1144                 1.3811                 1.0684
 Frc consts  --      1.4917                 1.8596                 1.4438
 IR Inten    --     11.4413                41.1083                 9.0035

                     88                     89                     90
                      A                      A                      A
 Frequencies --   1515.3199              1516.9768              1520.2116
 Red. masses --      1.1687                 1.1613                 1.1110
 Frc consts  --      1.5811                 1.5745                 1.5128
 IR Inten    --      7.7845                 9.4197                13.5743

                     91                     92                     93
                      A                      A                      A
 Frequencies --   1528.0465              1530.7121              1539.2674
 Red. masses --      1.1079                 1.0716                 1.1037
 Frc consts  --      1.5242                 1.4793                 1.5408
 IR Inten    --      0.1697                 6.6576                 3.4577

                     94                     95                     96
                      A                      A                      A
 Frequencies --   1540.0037              1549.4740              1774.4002
 Red. masses --      1.1063                 1.0845                 7.3754
 Frc consts  --      1.5459                 1.5341                13.6816
 IR Inten    --     13.4844                11.2108               390.0859

                     97                     98                     99
                      A                      A                      A
 Frequencies --   2972.7531              2982.3012              2995.1972
 Red. masses --      1.0610                 1.0709                 1.0452
 Frc consts  --      5.5243                 5.6121                 5.5246
 IR Inten    --     40.8662                37.3607                87.0724

                    100                    101                    102
                      A                      A                      A
 Frequencies --   2998.7736              3023.8337              3024.4391
 Red. masses --      1.0704                 1.0743                 1.0917
 Frc consts  --      5.6713                 5.7873                 5.8837
 IR Inten    --     23.0370                24.8557                91.4859

                    103                    104                    105
                      A                      A                      A
 Frequencies --   3026.2912              3049.0474              3050.8727
 Red. masses --      1.0712                 1.0730                 1.0857
 Frc consts  --      5.7802                 5.8775                 5.9541
 IR Inten    --     56.7531                51.0859                56.8422

                    106                    107                    108
                      A                      A                      A
 Frequencies --   3056.6151              3061.2474              3074.7481
 Red. masses --      1.0641                 1.0589                 1.0590
 Frc consts  --      5.8576                 5.8464                 5.8987
 IR Inten    --     14.9414                46.3445                36.3902

                    109                    110                    111
                      A                      A                      A
 Frequencies --   3080.8399              3097.5334              3101.2667
 Red. masses --      1.0622                 1.0970                 1.0928
 Frc consts  --      5.9403                 6.2016                 6.1924
 IR Inten    --     34.7138                12.5695                59.3468

                    112                    113                    114
                      A                      A                      A
 Frequencies --   3103.8434              3104.8314              3109.2238
 Red. masses --      1.1062                 1.1026                 1.0945
 Frc consts  --      6.2791                 6.2626                 6.2340
 IR Inten    --     14.5437                45.7280                43.7361

                    115                    116                    117
                      A                      A                      A
 Frequencies --   3119.4954              3130.6784              3134.0786
 Red. masses --      1.1084                 1.0983                 1.0982
 Frc consts  --      6.3549                 6.3423                 6.3554
 IR Inten    --      9.1734                 8.6583                29.7335

                    118                    119                    120
                      A                      A                      A
 Frequencies --   3135.4558              3165.1085              3582.7944
 Red. masses --      1.1071                 1.0898                 1.0745
 Frc consts  --      6.4124                 6.4323                 8.1266
 IR Inten    --     63.1796                 6.2234                13.6966

 - Thermochemistry -
 -------------------
 Temperature   298.150 Kelvin.  Pressure   1.00000 Atm.
 Atom     1 has atomic number  6 and mass  12.00000

 Molecular mass:   256.17869 amu.
 Principal axes and moments of inertia in atomic units:
                           1         2         3
     Eigenvalues --  2505.575667172.124118533.89777
           X            1.00000   0.00086   0.00159
           Y           -0.00083   0.99986  -0.01658
           Z           -0.00161   0.01658   0.99986
 This molecule is an asymmetric top.
 Rotational symmetry number  1.
 Warning -- assumption of classical behavior for rotation
           may cause significant error
 Rotational temperatures (Kelvin)      0.03457     0.01208     0.01015
 Rotational constants (GHZ):           0.72029     0.25163     0.21148
 Zero-point vibrational energy     984409.1 (Joules/Mol)
                                  235.27942 (Kcal/Mol)
 Warning -- explicit consideration of  28 degrees of freedom as
           vibrations may cause significant error
 Vibrational temperatures:     31.99    34.30    63.67    87.53   129.46
          (Kelvin)            148.27   149.74   188.33   204.84   214.57
                              247.93   325.16   331.31   375.32   398.46
                              451.18   458.45   492.83   533.57   563.31
                              592.98   624.84   684.35   692.86   714.32
                              737.85   846.19   885.22   913.46   963.50
                             1028.93  1099.47  1156.50  1189.70  1230.37
                             1247.30  1254.07  1267.39  1299.77  1326.88
                             1328.97  1375.22  1415.99  1435.21  1438.60
                             1449.49  1475.46  1514.50  1548.46  1556.14
                             1580.19  1582.20  1647.07  1661.22  1673.74
                             1684.18  1701.07  1704.10  1730.32  1753.49
                             1759.62  1785.17  1789.22  1816.87  1830.47
                             1832.26  1852.51  1865.34  1900.82  1914.46
                             1923.35  1946.82  1967.20  1979.61  1998.46
                             2015.56  2022.94  2045.14  2064.43  2071.40
                             2079.63  2152.66  2157.68  2164.48  2168.64
                             2174.99  2179.03  2180.21  2182.59  2187.25
                             2198.52  2202.35  2214.66  2215.72  2229.35
                             2552.97  4277.13  4290.87  4309.42  4314.57
                             4350.62  4351.49  4354.16  4386.90  4389.53
                             4397.79  4404.45  4423.88  4432.64  4456.66
                             4462.03  4465.74  4467.16  4473.48  4488.26
                             4504.35  4509.24  4511.22  4553.89  5154.84

 Zero-point correction=                           0.374942 (Hartree/Particle)
 Thermal correction to Energy=                    0.393401
 Thermal correction to Enthalpy=                  0.394345
 Thermal correction to Gibbs Free Energy=         0.326747
 Sum of electronic and zero-point Energies=           -844.650798
 Sum of electronic and thermal Energies=              -844.632339
 Sum of electronic and thermal Enthalpies=            -844.631395
 Sum of electronic and thermal Free Energies=         -844.698994

                     E (Thermal)             CV                S
                      KCal/Mol        Cal/Mol-Kelvin    Cal/Mol-Kelvin
 Total                  246.863             69.848            142.273
 Electronic               0.000              0.000              0.000
 Translational            0.889              2.981             42.522
 Rotational               0.889              2.981             33.394
 Vibrational            245.085             63.886             66.357
 Vibration     1          0.593              1.985              6.424
 Vibration     2          0.593              1.985              6.286
 Vibration     3          0.595              1.980              5.059
 Vibration     4          0.597              1.973              4.430
 Vibration     5          0.602              1.956              3.661
 Vibration     6          0.605              1.947              3.396
 Vibration     7          0.605              1.946              3.377
 Vibration     8          0.612              1.922              2.933
 Vibration     9          0.616              1.911              2.772
 Vibration    10          0.618              1.904              2.683
 Vibration    11          0.626              1.877              2.410
 Vibration    12          0.650              1.801              1.911
 Vibration    13          0.652              1.795              1.877
 Vibration    14          0.669              1.744              1.656
 Vibration    15          0.678              1.716              1.552
 Vibration    16          0.701              1.648              1.343
 Vibration    17          0.705              1.638              1.317
 Vibration    18          0.722              1.590              1.200
 Vibration    19          0.743              1.532              1.076
 Vibration    20          0.759              1.488              0.994
 Vibration    21          0.776              1.444              0.919
 Vibration    22          0.795              1.396              0.845
 Vibration    23          0.832              1.304              0.722
 Vibration    24          0.838              1.291              0.706
 Vibration    25          0.852              1.258              0.667
 Vibration    26          0.868              1.222              0.627
 Vibration    27          0.945              1.057              0.471
 Vibration    28          0.975              1.000              0.424

                           ! Non-Optimized Parameters !
 Normal termination of Gaussian 16 at Fri Dec 11 22:42:18 2020.

 ----------------------------------------------------------------------
 # B3LYP/6-311++G(d,p) empiricaldispersion=gd3bj scf=xqc pop=npa geom=c
 heck
 ----------------------------------------------------------------------

 ---------------------------------------
 CID_124207283_JID_8716_Energie_neutraal
 ---------------------------------------
 Structure from the checkpoint file:  "JID_8716.chk"
 Charge =  0 Multiplicity = 1

 SCF Done:  E(RB3LYP) =  -845.269737667     A.U. after   14 cycles
 Normal termination of Gaussian 16 at Fri Dec 11 22:50:03 2020.

 ----------------------------------------------------------------------
 # B3LYP/6-311++G(d,p) empiricaldispersion=gd3bj scf=xqc pop=npa geom=c
 heck
 ----------------------------------------------------------------------

 -------------------------------------
 CID_124207283_JID_8716_Energie_kation
 -------------------------------------
 Structure from the checkpoint file:  "JID_8716.chk"
 Charge =  1 Multiplicity = 2

 SCF Done:  E(UB3LYP) =  -844.988291788     A.U. after   23 cycles
 Normal termination of Gaussian 16 at Fri Dec 11 23:07:23 2020.
 Gaussian 16:  ES64L-G16RevA.03 25-Dec-2016

 ----------------------------------------------------------------------
 # B3LYP/6-311++G(d,p) empiricaldispersion=gd3bj scf=xqc pop=npa geom=c
 heck
 ----------------------------------------------------------------------

 ------------------------------------
 CID_124207283_JID_8716_Energie_anion
 ------------------------------------
 Structure from the checkpoint file:  "JID_8716.chk"
 Charge = -1 Multiplicity = 2

                         Standard orientation:
 ---------------------------------------------------------------------
 Center     Atomic      Atomic             Coordinates (Angstroms)
 Number     Number       Type             X           Y           Z
 ---------------------------------------------------------------------
      1          6           0       -0.290665    2.839709   -0.859195
      2          8           0       -1.123205    1.984558   -0.109690
      3          6           0       -1.767458    1.019100   -0.920776
      4          6           0       -2.604998    0.133267   -0.014465
      5          6           0       -3.672276    0.879770    0.839809
      6          6           0       -4.720230   -0.188901    0.436541
      7          6           0       -3.767739   -0.656131   -0.694346
      8          6           0       -1.707291   -0.751001    0.863891
      9          7           0       -1.024990   -1.782331    0.098611
     10          6           0        0.304245   -2.068907   -0.007261
     11          8           0        0.705455   -2.956451   -0.756574
     12          6           0        1.286324   -1.232573    0.811254
     13          7           0        1.574067    0.021721    0.107785
     14          6           0        2.389906   -0.167330   -1.104463
     15          6           0        3.869996   -0.390196   -0.787928
     16          8           0        4.388066    0.666760    0.016855
     17          6           0        3.667961    0.780610    1.238519
     18          6           0        2.186948    1.045356    0.962101
     19          1           0        0.163970    3.546044   -0.159667
     20          1           0       -0.863856    3.403638   -1.613270
     21          1           0        0.503257    2.277507   -1.371764
     22          1           0       -2.416685    1.521075   -1.658791
     23          1           0       -1.023794    0.422664   -1.472314
     24          1           0       -3.451198    0.996299    1.905546
     25          1           0       -3.892912    1.868012    0.426786
     26          1           0       -5.707693    0.170487    0.133838
     27          1           0       -4.856226   -0.954115    1.207022
     28          1           0       -4.031841   -0.228281   -1.666881
     29          1           0       -3.642806   -1.736814   -0.826344
     30          1           0       -0.966126   -0.108523    1.338686
     31          1           0       -2.310093   -1.217260    1.656200
     32          1           0       -1.597382   -2.375263   -0.491184
     33          1           0        0.873577   -0.982889    1.793148
     34          1           0        2.163662   -1.874376    0.975643
     35          1           0        2.293782    0.741109   -1.712694
     36          1           0        1.990807   -1.008955   -1.676646
     37          1           0        4.016601   -1.355859   -0.277251
     38          1           0        4.466331   -0.400062   -1.705263
     39          1           0        4.119796    1.612457    1.788474
     40          1           0        3.795206   -0.136238    1.839578
     41          1           0        2.102145    2.005862    0.440445
     42          1           0        1.617075    1.122183    1.895111
 ---------------------------------------------------------------------

 SCF Done:  E(UB3LYP) =  -845.257841429     A.U. after   33 cycles
 SCF Done:  E(UB3LYP) =  -845.257841429     a.u. after    1 cycles

 The electronic state is 2-A.
 Alpha  occ. eigenvalues --  -19.04094 -19.03242 -18.99817 -14.24643 -14.22555
 Alpha  occ. eigenvalues --  -10.18285 -10.13187 -10.12858 -10.11855 -10.11854
 Alpha  occ. eigenvalues --  -10.11484 -10.11432 -10.10724 -10.10621 -10.09320
 Alpha  occ. eigenvalues --  -10.07964 -10.07478 -10.07223  -0.95653  -0.94904
 Alpha  occ. eigenvalues --   -0.94631  -0.84200  -0.83319  -0.76207  -0.68755
 Alpha  occ. eigenvalues --   -0.65953  -0.65340  -0.61643  -0.57849  -0.57500
 Alpha  occ. eigenvalues --   -0.57042  -0.56150  -0.51519  -0.50650  -0.47088
 Alpha  occ. eigenvalues --   -0.44656  -0.42416  -0.41486  -0.41117  -0.40329
 Alpha  occ. eigenvalues --   -0.39397  -0.39237  -0.38508  -0.38191  -0.37517
 Alpha  occ. eigenvalues --   -0.36705  -0.35470  -0.34323  -0.33496  -0.32101
 Alpha  occ. eigenvalues --   -0.31530  -0.30887  -0.30456  -0.30085  -0.29660
 Alpha  occ. eigenvalues --   -0.28289  -0.27552  -0.27308  -0.26694  -0.25740
 Alpha  occ. eigenvalues --   -0.23937  -0.23528  -0.23220  -0.21534  -0.20939
 Alpha  occ. eigenvalues --   -0.19635  -0.17166  -0.16892  -0.16389  -0.12442
 Alpha  occ. eigenvalues --    0.04031
 Alpha virt. eigenvalues --    0.05835   0.06310   0.07251   0.07485   0.07948
 Alpha virt. eigenvalues --    0.07976   0.08998   0.09429   0.09579   0.09694
 Alpha virt. eigenvalues --    0.10384   0.10643   0.11012   0.11177   0.12090

  Beta  occ. eigenvalues --  -19.04089 -19.03236 -18.99816 -14.24636 -14.22556
  Beta  occ. eigenvalues --  -10.18285 -10.13183 -10.12840 -10.11842 -10.11831
  Beta  occ. eigenvalues --  -10.11466 -10.11410 -10.10715 -10.10603 -10.09320
  Beta  occ. eigenvalues --  -10.07943 -10.07451 -10.07209  -0.95643  -0.94899
  Beta  occ. eigenvalues --   -0.94621  -0.84191  -0.83306  -0.76189  -0.68734
  Beta  occ. eigenvalues --   -0.65928  -0.65313  -0.61607  -0.57817  -0.57460
  Beta  occ. eigenvalues --   -0.57013  -0.56103  -0.51460  -0.50624  -0.47055
  Beta  occ. eigenvalues --   -0.44607  -0.42393  -0.41458  -0.41091  -0.40283
  Beta  occ. eigenvalues --   -0.39376  -0.39210  -0.38476  -0.38167  -0.37492
  Beta  occ. eigenvalues --   -0.36678  -0.35456  -0.34296  -0.33480  -0.32073
  Beta  occ. eigenvalues --   -0.31507  -0.30865  -0.30431  -0.30065  -0.29633
  Beta  occ. eigenvalues --   -0.28271  -0.27528  -0.27283  -0.26674  -0.25715
  Beta  occ. eigenvalues --   -0.23903  -0.23516  -0.23192  -0.21505  -0.20907
  Beta  occ. eigenvalues --   -0.19611  -0.17155  -0.16879  -0.16376  -0.12429
  Beta virt. eigenvalues --    0.06110   0.06691   0.07028   0.07480   0.08143
  Beta virt. eigenvalues --    0.08205   0.08499   0.09311   0.09537   0.09774
  Beta virt. eigenvalues --    0.10134   0.10636   0.10877   0.11264   0.11331

 Mulliken charges and spin densities:
               1          2
     1  C    0.336359  -0.595286
     2  O    0.003258   0.009971
     3  C   -1.245454   0.410808
     4  C    0.092849   0.840169
     5  C   -0.129385  -0.228153
     6  C    0.921126  -1.243293
     7  C   -0.173757  -0.219790
     8  C    0.896271  -1.483140
     9  N   -0.213663   0.113966
    10  C   -0.245859  -0.009140
    11  O   -0.293480   0.010089
    12  C    0.211440  -0.730301
    13  N    0.147931   0.079425
    14  C    0.016165  -0.086868
    15  C   -0.255914  -0.273418
    16  O   -0.125940   0.027642
    17  C    0.373416  -0.976237
    18  C   -0.345993   0.374790
    19  H   -0.199326   0.345403
    20  H   -0.220616   0.349767
    21  H    0.110944   0.012156
    22  H   -0.243250   0.404659
    23  H    0.136340   0.030741
    24  H   -0.157623   0.324526
    25  H    0.030266   0.132583
    26  H   -0.232913   0.395800
    27  H   -0.068475   0.196649
    28  H   -0.223789   0.371963
    29  H   -0.065488   0.166780
    30  H    0.531582  -0.350118
    31  H   -0.557355   0.784014
    32  H    0.199332   0.114821
    33  H   -0.175150   0.376631
    34  H    0.138280   0.013262
    35  H   -0.022675   0.181671
    36  H    0.201532  -0.031555
    37  H    0.095707   0.059151
    38  H    0.154143   0.028518
    39  H   -0.369592   0.573822
    40  H    0.008973   0.144004
    41  H    0.334313  -0.168631
    42  H   -0.374525   0.522152
 Sum of Mulliken charges =  -1.00000   1.00000

 Dipole moment (field-independent basis, Debye):
    X=              3.4520    Y=             -0.9399    Z=             -2.0760  Tot=              4.1364
 Quadrupole moment (field-independent basis, Debye-Ang):
   XX=           -198.9764   YY=           -165.5066   ZZ=           -153.9487
   XY=             -1.8003   XZ=             -4.7164   YZ=             -0.4446

 Summary of Natural Population Analysis:

                                       Natural Population
                Natural  -----------------------------------------------
    Atom  No    Charge         Core      Valence    Rydberg      Total
 -----------------------------------------------------------------------
      C    1   -0.09652      0.99962     2.08747    0.00944     3.09652
      O    2   -0.29779      0.99988     3.28842    0.00949     4.29779
      C    3   -0.00540      0.99949     1.99329    0.01262     3.00540
      C    4   -0.05247      0.99955     2.03727    0.01565     3.05247
      C    5   -0.18059      0.99960     2.17151    0.00948     3.18059
      C    6   -0.19157      0.99965     2.18366    0.00826     3.19157
      C    7   -0.18457      0.99960     2.17650    0.00847     3.18457
      C    8   -0.08723      0.99953     2.07480    0.01290     3.08723
      N    9   -0.31230      0.99966     2.80286    0.00979     3.81230
      C   10    0.34187      0.99966     1.63558    0.02289     2.65813
      O   11   -0.33059      0.99988     3.32538    0.00534     4.33059
      C   12   -0.12866      0.99956     2.11746    0.01163     3.12866
      N   13   -0.28080      0.99974     2.76764    0.01342     3.78080
      C   14   -0.10287      0.99960     2.09378    0.00949     3.10287
      C   15   -0.01993      0.99958     2.00961    0.01074     3.01993
      O   16   -0.30130      0.99989     3.29221    0.00919     4.30130
      C   17   -0.02068      0.99958     2.00808    0.01302     3.02068
      C   18   -0.09942      0.99961     2.08665    0.01316     3.09942
      H   19    0.09028      0.00000     0.40860    0.00113     0.40972
      H   20    0.07795      0.00000     0.42077    0.00128     0.42205
      H   21    0.07925      0.00000     0.41908    0.00167     0.42075
      H   22    0.08119      0.00000     0.41707    0.00175     0.41881
      H   23    0.08613      0.00000     0.41185    0.00202     0.41387
      H   24    0.10035      0.00000     0.39845    0.00120     0.39965
      H   25    0.10280      0.00000     0.39582    0.00138     0.39720
      H   26    0.09738      0.00000     0.40132    0.00129     0.40262
      H   27    0.09704      0.00000     0.40122    0.00174     0.40296
      H   28    0.10141      0.00000     0.39724    0.00135     0.39859
      H   29    0.09352      0.00000     0.40517    0.00132     0.40648
      H   30    0.11082      0.00000     0.38635    0.00283     0.38918
      H   31    0.09645      0.00000     0.40170    0.00186     0.40355
      H   32    0.19350      0.00000     0.30398    0.00252     0.30650
      H   33    0.10475      0.00000     0.39374    0.00151     0.39525
      H   34    0.09464      0.00000     0.40391    0.00144     0.40536
      H   35    0.09408      0.00000     0.40444    0.00148     0.40592
      H   36    0.10941      0.00000     0.38948    0.00112     0.39059
      H   37    0.07920      0.00000     0.41959    0.00121     0.42080
      H   38    0.09078      0.00000     0.40814    0.00109     0.40922
      H   39    0.09375      0.00000     0.40482    0.00143     0.40625
      H   40    0.07724      0.00000     0.42150    0.00126     0.42276
      H   41    0.09753      0.00000     0.40083    0.00164     0.40247
      H   42    0.10141      0.00000     0.39691    0.00168     0.39859
 =======================================================================
   * Total *   -0.00000     17.99368    51.76415    0.24218    70.00000

 Normal termination of Gaussian 16 at Fri Dec 11 23:32:21 2020.
