 Gaussian 16, Revision A.03,

 -----------------------------------------------------------
 # opt freq B3LYP/6-31G(d) empiricaldispersion=gd3bj scf=xqc
 -----------------------------------------------------------

 -----------------------------
 CID_87802549_JID_843_neutraal
 -----------------------------
 Symbolic Z-matrix:
 Charge =  0 Multiplicity = 1

 SCF Done:  E(RB3LYP) =  -487.011737303     A.U. after   17 cycles
 SCF Done:  E(RB3LYP) =  -487.018612280     A.U. after   15 cycles
 SCF Done:  E(RB3LYP) =  -487.020297449     A.U. after   14 cycles
 SCF Done:  E(RB3LYP) =  -487.020442543     A.U. after   12 cycles
 SCF Done:  E(RB3LYP) =  -487.020455185     A.U. after   10 cycles
 Optimization completed.
    -- Stationary point found.
 Normal termination of Gaussian 16 at Tue Dec  8 12:50:22 2020.

 --------------------------------------------------------------------
 #N Geom=AllCheck Guess=TCheck SCRF=Check GenChk RB3LYP/6-31G(d) Freq
 --------------------------------------------------------------------

 Structure from the checkpoint file:  "JID_843.chk"
 -----------------------------
 CID_87802549_JID_843_neutraal
 -----------------------------
 Charge =  0 Multiplicity = 1

 SCF Done:  E(RB3LYP) =  -487.020455185     A.U. after    1 cycles

  Exact polarizability: 127.267   4.913  86.675   0.000   0.000  34.734
 Approx polarizability: 254.398  22.151 185.797   0.002  -0.005  54.558

                      1                      2                      3
                      A                      A                      A
 Frequencies --    122.3607               183.1999               263.3682
 Red. masses --      3.5050                 5.9201                 3.2977
 Frc consts  --      0.0309                 0.1171                 0.1348
 IR Inten    --      4.6424                 0.8481                 2.8157

                      4                      5                      6
                      A                      A                      A
 Frequencies --    292.5938               380.6956               434.1896
 Red. masses --      9.6348                10.2087                 3.0862
 Frc consts  --      0.4860                 0.8717                 0.3428
 IR Inten    --      0.0825                 7.0267                 6.9765

                      7                      8                      9
                      A                      A                      A
 Frequencies --    482.8093               583.4486               611.8112
 Red. masses --      8.0700                 6.6139                 4.2259
 Frc consts  --      1.1083                 1.3265                 0.9320
 IR Inten    --     11.2175                 4.9702                16.1150

                     10                     11                     12
                      A                      A                      A
 Frequencies --    621.3436               722.4322               727.2650
 Red. masses --      9.8982                 5.8097                 9.4160
 Frc consts  --      2.2515                 1.7865                 2.9343
 IR Inten    --      6.3330                 0.2468                69.7050

                     13                     14                     15
                      A                      A                      A
 Frequencies --    772.8890               779.2954               874.8059
 Red. masses --      1.4809                 9.9712                10.0258
 Frc consts  --      0.5212                 3.5678                 4.5206
 IR Inten    --     13.0580                 7.4727                 8.1347

                     16                     17                     18
                      A                      A                      A
 Frequencies --    935.5471               941.5339               972.2632
 Red. masses --      1.8728                 2.6388                10.7117
 Frc consts  --      0.9658                 1.3783                 5.9659
 IR Inten    --      1.6039                 2.2141                 3.7131

                     19                     20                     21
                      A                      A                      A
 Frequencies --    990.7912              1057.8004              1101.1964
 Red. masses --      1.3728                 3.8206                 3.7441
 Frc consts  --      0.7940                 2.5188                 2.6750
 IR Inten    --      1.2310                 9.5127                 9.5384

                     22                     23                     24
                      A                      A                      A
 Frequencies --   1190.4878              1236.8880              1276.0918
 Red. masses --      1.1141                 2.1372                 2.8346
 Frc consts  --      0.9303                 1.9264                 2.7196
 IR Inten    --      2.3825                22.6677                25.8245

                     25                     26                     27
                      A                      A                      A
 Frequencies --   1339.3396              1391.3589              1424.6171
 Red. masses --      1.6592                10.0416                 1.4593
 Frc consts  --      1.7536                11.4534                 1.7450
 IR Inten    --      7.6360                 0.5442                 7.6519

                     28                     29                     30
                      A                      A                      A
 Frequencies --   1451.7050              1548.2552              1600.8628
 Red. masses --      1.1025                 9.5772                 8.3415
 Frc consts  --      1.3690                13.5261                12.5951
 IR Inten    --     28.8401               284.6684                44.8984

                     31                     32                     33
                      A                      A                      A
 Frequencies --   1618.5851              1732.5068              3018.6728
 Red. masses --      8.4114                 9.1875                 1.0606
 Frc consts  --     12.9835                16.2478                 5.6941
 IR Inten    --     21.9989                 0.9145                 0.8996

                     34                     35                     36
                      A                      A                      A
 Frequencies --   3037.1048              3208.8838              3235.9747
 Red. masses --      1.0989                 1.0884                 1.0963
 Frc consts  --      5.9719                 6.6029                 6.7636
 IR Inten    --      1.2338                 0.9298                19.9677

 - Thermochemistry -
 -------------------
 Temperature   298.150 Kelvin.  Pressure   1.00000 Atm.
 Atom     1 has atomic number  6 and mass  12.00000

 Molecular mass:   136.03851 amu.
 Principal axes and moments of inertia in atomic units:
                           1         2         3
     Eigenvalues --   634.248281354.387971977.67921
           X            0.99996   0.00946   0.00000
           Y           -0.00946   0.99996   0.00001
           Z           -0.00000  -0.00001   1.00000
 This molecule is an asymmetric top.
 Rotational symmetry number  1.
 Warning -- assumption of classical behavior for rotation
           may cause significant error
 Rotational temperatures (Kelvin)      0.13656     0.06395     0.04380
 Rotational constants (GHZ):           2.84548     1.33251     0.91256
 Zero-point vibrational energy     252190.6 (Joules/Mol)
                                   60.27500 (Kcal/Mol)
 Warning -- explicit consideration of   9 degrees of freedom as
           vibrations may cause significant error
 Vibrational temperatures:    176.05   263.58   378.93   420.98   547.74
          (Kelvin)            624.70   694.65   839.45   880.26   893.97
                             1039.42  1046.37  1112.01  1121.23  1258.65
                             1346.04  1354.66  1398.87  1425.53  1521.94
                             1584.38  1712.85  1779.61  1836.01  1927.01
                             2001.86  2049.71  2088.68  2227.59  2303.28
                             2328.78  2492.69  4343.20  4369.72  4616.87
                             4655.85

 Zero-point correction=                           0.096054 (Hartree/Particle)
 Thermal correction to Energy=                    0.103129
 Thermal correction to Enthalpy=                  0.104073
 Thermal correction to Gibbs Free Energy=         0.064223
 Sum of electronic and zero-point Energies=           -486.924401
 Sum of electronic and thermal Energies=              -486.917326
 Sum of electronic and thermal Enthalpies=            -486.916382
 Sum of electronic and thermal Free Energies=         -486.956232

                     E (Thermal)             CV                S
                      KCal/Mol        Cal/Mol-Kelvin    Cal/Mol-Kelvin
 Total                   64.714             27.388             83.872
 Electronic               0.000              0.000              0.000
 Translational            0.889              2.981             40.635
 Rotational               0.889              2.981             28.920
 Vibrational             62.937             21.427             14.316
 Vibration     1          0.610              1.930              3.063
 Vibration     2          0.631              1.863              2.296
 Vibration     3          0.670              1.740              1.639
 Vibration     4          0.688              1.688              1.459
 Vibration     5          0.750              1.511              1.036
 Vibration     6          0.795              1.396              0.845
 Vibration     7          0.839              1.288              0.703
 Vibration     8          0.940              1.067              0.479
 Vibration     9          0.971              1.007              0.430

 Optimization completed.
    -- Stationary point found.
 Normal termination of Gaussian 16 at Tue Dec  8 13:04:45 2020.

 ----------------------------------------------------------------------
 # B3LYP/6-311++G(d,p) empiricaldispersion=gd3bj scf=xqc pop=npa geom=c
 heck
 ----------------------------------------------------------------------

 -------------------------------------
 CID_87802549_JID_843_Energie_neutraal
 -------------------------------------
 Structure from the checkpoint file:  "JID_843.chk"
 Charge =  0 Multiplicity = 1

 SCF Done:  E(RB3LYP) =  -487.150915140     A.U. after   16 cycles
 Normal termination of Gaussian 16 at Tue Dec  8 13:06:32 2020.

 ----------------------------------------------------------------------
 # B3LYP/6-311++G(d,p) empiricaldispersion=gd3bj scf=xqc pop=npa geom=c
 heck
 ----------------------------------------------------------------------

 -----------------------------------
 CID_87802549_JID_843_Energie_kation
 -----------------------------------
 Structure from the checkpoint file:  "JID_843.chk"
 Charge =  1 Multiplicity = 2

 SCF Done:  E(UB3LYP) =  -486.820293326     A.U. after   23 cycles
 Normal termination of Gaussian 16 at Tue Dec  8 13:12:13 2020.
 Gaussian 16:  ES64L-G16RevA.03 25-Dec-2016

 ----------------------------------------------------------------------
 # B3LYP/6-311++G(d,p) empiricaldispersion=gd3bj scf=xqc pop=npa geom=c
 heck
 ----------------------------------------------------------------------

 ----------------------------------
 CID_87802549_JID_843_Energie_anion
 ----------------------------------
 Structure from the checkpoint file:  "JID_843.chk"
 Charge = -1 Multiplicity = 2

                         Standard orientation:
 ---------------------------------------------------------------------
 Center     Atomic      Atomic             Coordinates (Angstroms)
 Number     Number       Type             X           Y           Z
 ---------------------------------------------------------------------
      1          6           0        1.713879    1.221263    0.000237
      2          6           0        2.475437   -0.080342   -0.000166
      3          6           0        1.884812   -1.295985   -0.000142
      4          7           0        0.489596   -1.502115    0.000017
      5          6           0       -0.187602   -0.422136    0.000165
      6          6           0        0.245274    0.946797    0.000058
      7          7           0       -0.785032    1.737031   -0.000200
      8          7           0       -1.972340    0.973274   -0.000185
      9          7           0       -1.645954   -0.295154    0.000024
     10          8           0       -2.430000   -1.253090    0.000108
     11          1           0        2.008583    1.824145    0.873069
     12          1           0        2.008806    1.825174   -0.871767
     13          1           0        3.559890   -0.023630   -0.000354
     14          1           0        2.468033   -2.209812   -0.000310
 ---------------------------------------------------------------------

 SCF Done:  E(UB3LYP) =  -487.244510523     A.U. after   20 cycles

 The electronic state is 2-A.
 Alpha  occ. eigenvalues --  -18.95462 -14.30714 -14.19113 -14.17609 -14.16262
 Alpha  occ. eigenvalues --  -10.07694 -10.07005 -10.06238 -10.05066 -10.04807
 Alpha  occ. eigenvalues --   -0.99444  -0.86101  -0.80184  -0.69739  -0.65364
 Alpha  occ. eigenvalues --   -0.62014  -0.54249  -0.47971  -0.44127  -0.40000
 Alpha  occ. eigenvalues --   -0.35448  -0.35040  -0.34106  -0.31293  -0.31029
 Alpha  occ. eigenvalues --   -0.27533  -0.24439  -0.23538  -0.20756  -0.17068
 Alpha  occ. eigenvalues --   -0.15586  -0.13456  -0.12578  -0.08966  -0.07800
 Alpha  occ. eigenvalues --   -0.02307
 Alpha virt. eigenvalues --    0.08412   0.10554   0.11906   0.12142   0.13126
 Alpha virt. eigenvalues --    0.15693   0.15984   0.16626   0.18341   0.18388
 Alpha virt. eigenvalues --    0.20118   0.20268   0.20551   0.21163   0.21976

  Beta  occ. eigenvalues --  -18.94980 -14.30447 -14.19167 -14.17412 -14.15605
  Beta  occ. eigenvalues --  -10.07612 -10.07148 -10.06278 -10.04965 -10.04459
  Beta  occ. eigenvalues --   -0.98819  -0.85615  -0.79269  -0.69300  -0.64889
  Beta  occ. eigenvalues --   -0.61421  -0.53840  -0.47597  -0.43635  -0.39675
  Beta  occ. eigenvalues --   -0.35030  -0.33862  -0.33644  -0.30660  -0.30478
  Beta  occ. eigenvalues --   -0.27187  -0.24261  -0.21359  -0.19205  -0.16696
  Beta  occ. eigenvalues --   -0.15403  -0.12844  -0.11262  -0.08542  -0.05825
  Beta virt. eigenvalues --    0.04661   0.08421   0.10549   0.11967   0.12164
  Beta virt. eigenvalues --    0.14355   0.15708   0.16654   0.17046   0.18361
  Beta virt. eigenvalues --    0.18537   0.20143   0.20602   0.20615   0.21175

 Mulliken charges and spin densities:
               1          2
     1  C   -0.741787  -0.049637
     2  C    0.253580   0.292346
     3  C   -0.268237  -0.126198
     4  N   -0.085198   0.351918
     5  C   -0.238343   0.079591
     6  C    0.193974   0.048077
     7  N   -0.245591   0.111718
     8  N    0.031644  -0.029472
     9  N   -0.357260   0.088432
    10  O   -0.085619   0.181379
    11  H    0.128130   0.031205
    12  H    0.128113   0.031143
    13  H    0.136824  -0.015032
    14  H    0.149769   0.004531
 Sum of Mulliken charges =  -1.00000   1.00000

 Dipole moment (field-independent basis, Debye):
    X=              6.8138    Y=              0.8102    Z=              0.0007  Tot=              6.8618
 Quadrupole moment (field-independent basis, Debye-Ang):
   XX=            -81.0251   YY=            -77.8358   ZZ=            -60.8981
   XY=              0.6265   XZ=             -0.0005   YZ=              0.0018

 Summary of Natural Population Analysis:

                                       Natural Population
                Natural  -----------------------------------------------
    Atom  No    Charge         Core      Valence    Rydberg      Total
 -----------------------------------------------------------------------
      C    1   -0.22743      0.99960     2.22023    0.00759     3.22743
      C    2   -0.00955      0.99957     2.00212    0.00786     3.00955
      C    3   -0.05523      0.99952     2.04109    0.01462     3.05523
      N    4   -0.09702      0.99963     2.58491    0.01248     3.59702
      C    5    0.16769      0.99944     1.81487    0.01800     2.83231
      C    6    0.07178      0.99953     1.91044    0.01824     2.92822
      N    7   -0.12294      0.99966     2.60876    0.01453     3.62294
      N    8   -0.11214      0.99977     2.59254    0.01983     3.61214
      N    9    0.15547      0.99966     2.32344    0.02144     3.34453
      O   10   -0.16915      0.99990     3.16014    0.00911     4.16915
      H   11    0.11355      0.00000     0.38517    0.00128     0.38645
      H   12    0.11353      0.00000     0.38519    0.00128     0.38647
      H   13    0.08541      0.00000     0.41339    0.00120     0.41459
      H   14    0.08604      0.00000     0.41276    0.00120     0.41396
 =======================================================================
   * Total *    0.00000      9.99628    24.85507    0.14865    35.00000

 Normal termination of Gaussian 16 at Tue Dec  8 13:17:15 2020.
