 Gaussian 16, Revision A.03,

 -----------------------------------------------------------
 # opt freq B3LYP/6-31G(d) empiricaldispersion=gd3bj scf=xqc
 -----------------------------------------------------------

 -------------------------------
 CID_154454578_JID_7166_neutraal
 -------------------------------
 Symbolic Z-matrix:
 Charge =  0 Multiplicity = 1

 SCF Done:  E(RB3LYP) =  -823.190708210     A.U. after   15 cycles
 SCF Done:  E(RB3LYP) =  -823.192803355     A.U. after   13 cycles
 SCF Done:  E(RB3LYP) =  -823.195871701     A.U. after   13 cycles
 SCF Done:  E(RB3LYP) =  -823.196592009     A.U. after   13 cycles
 SCF Done:  E(RB3LYP) =  -823.196434522     A.U. after   13 cycles
 SCF Done:  E(RB3LYP) =  -823.196943202     A.U. after   11 cycles
 SCF Done:  E(RB3LYP) =  -823.197372598     A.U. after   12 cycles
 SCF Done:  E(RB3LYP) =  -823.197533386     A.U. after   12 cycles
 SCF Done:  E(RB3LYP) =  -823.197603869     A.U. after   11 cycles
 SCF Done:  E(RB3LYP) =  -823.197651922     A.U. after   11 cycles
 SCF Done:  E(RB3LYP) =  -823.197771082     A.U. after    9 cycles
 SCF Done:  E(RB3LYP) =  -823.197771586     A.U. after    9 cycles
 SCF Done:  E(RB3LYP) =  -823.197771748     A.U. after    8 cycles
 SCF Done:  E(RB3LYP) =  -823.197771786     A.U. after    7 cycles
 Optimization completed.
    -- Stationary point found.
 Normal termination of Gaussian 16 at Fri Dec 11 11:59:06 2020.

 --------------------------------------------------------------------
 #N Geom=AllCheck Guess=TCheck SCRF=Check GenChk RB3LYP/6-31G(d) Freq
 --------------------------------------------------------------------

 Structure from the checkpoint file:  "JID_7166.chk"
 -------------------------------
 CID_154454578_JID_7166_neutraal
 -------------------------------
 Charge =  0 Multiplicity = 1

 SCF Done:  E(RB3LYP) =  -823.197771786     A.U. after    1 cycles

  Exact polarizability: 177.446  -0.289 156.150  25.850  -1.350  96.774
 Approx polarizability: 237.504   7.114 250.013  43.772  -5.139 148.639

                      1                      2                      3
                      A                      A                      A
 Frequencies --     20.0014                22.8062                38.2618
 Red. masses --      3.3969                 5.0843                 5.7213
 Frc consts  --      0.0008                 0.0016                 0.0049
 IR Inten    --      0.3593                 0.1285                 1.1601

                      4                      5                      6
                      A                      A                      A
 Frequencies --     69.2880                78.2572                86.4072
 Red. masses --      2.5068                 4.1893                 4.3453
 Frc consts  --      0.0071                 0.0151                 0.0191
 IR Inten    --      4.5534                 1.2919                 2.9709

                      7                      8                      9
                      A                      A                      A
 Frequencies --    103.6472               119.8415               154.9909
 Red. masses --      4.1970                 4.2219                 4.6760
 Frc consts  --      0.0266                 0.0357                 0.0662
 IR Inten    --      0.2767                 2.6505                 0.4766

                     10                     11                     12
                      A                      A                      A
 Frequencies --    189.7635               225.1357               247.4241
 Red. masses --      1.3830                 2.4577                 4.9343
 Frc consts  --      0.0293                 0.0734                 0.1780
 IR Inten    --      6.1660                 5.3584                12.9513

                     13                     14                     15
                      A                      A                      A
 Frequencies --    261.8376               279.7262               290.6356
 Red. masses --      5.7397                 4.3198                 2.4108
 Frc consts  --      0.2318                 0.1991                 0.1200
 IR Inten    --      6.7425                 4.4303                 4.5358

                     16                     17                     18
                      A                      A                      A
 Frequencies --    349.9170               367.5323               397.0336
 Red. masses --      3.0929                 3.5792                 4.7206
 Frc consts  --      0.2231                 0.2849                 0.4384
 IR Inten    --      3.8947                 5.0204                 5.0314

                     19                     20                     21
                      A                      A                      A
 Frequencies --    418.6417               427.7400               466.0305
 Red. masses --      2.2588                 2.0244                 1.5385
 Frc consts  --      0.2332                 0.2182                 0.1969
 IR Inten    --      2.1609                68.2124               175.2798

                     22                     23                     24
                      A                      A                      A
 Frequencies --    502.8938               535.7940               546.1238
 Red. masses --      3.0120                 3.2673                 3.5863
 Frc consts  --      0.4488                 0.5526                 0.6302
 IR Inten    --      2.7256                10.7461                 2.5205

                     25                     26                     27
                      A                      A                      A
 Frequencies --    577.1639               622.4789               643.8065
 Red. masses --      3.0354                 4.2652                 4.3180
 Frc consts  --      0.5958                 0.9737                 1.0545
 IR Inten    --      2.7134                15.7375                16.3187

                     28                     29                     30
                      A                      A                      A
 Frequencies --    654.8152               726.9494               751.6281
 Red. masses --      1.8114                 2.0142                 2.7506
 Frc consts  --      0.4576                 0.6271                 0.9155
 IR Inten    --     29.7009                 2.7056                 9.1416

                     31                     32                     33
                      A                      A                      A
 Frequencies --    775.4581               798.6733               820.5302
 Red. masses --      1.7387                 2.6668                 2.6370
 Frc consts  --      0.6160                 1.0023                 1.0461
 IR Inten    --     40.4965                 3.7772                 0.7313

                     34                     35                     36
                      A                      A                      A
 Frequencies --    840.4187               872.6904               878.6316
 Red. masses --      3.1929                 1.5123                 2.5258
 Frc consts  --      1.3287                 0.6786                 1.1489
 IR Inten    --     14.8943                 1.0792                12.6180

                     37                     38                     39
                      A                      A                      A
 Frequencies --    931.4875               946.5349               964.5008
 Red. masses --      2.6808                 2.1184                 1.3175
 Frc consts  --      1.3705                 1.1182                 0.7221
 IR Inten    --     34.5641                38.3560                 2.4964

                     40                     41                     42
                      A                      A                      A
 Frequencies --    998.2646              1011.3595              1059.4805
 Red. masses --      1.2915                 2.6858                 2.6747
 Frc consts  --      0.7583                 1.6186                 1.7689
 IR Inten    --      0.8099                18.0514                14.2203

                     43                     44                     45
                      A                      A                      A
 Frequencies --   1076.1102              1085.3293              1103.8577
 Red. masses --      2.3461                 4.2025                 1.9631
 Frc consts  --      1.6007                 2.9166                 1.4094
 IR Inten    --      9.7151                30.1463                 5.1772

                     46                     47                     48
                      A                      A                      A
 Frequencies --   1118.2773              1128.7357              1148.8517
 Red. masses --      2.0074                 2.9178                 2.9046
 Frc consts  --      1.4791                 2.1902                 2.2587
 IR Inten    --     15.6398                25.0899                91.4045

                     49                     50                     51
                      A                      A                      A
 Frequencies --   1173.2208              1177.4157              1190.5920
 Red. masses --      1.7650                 2.5726                 2.9852
 Frc consts  --      1.4313                 2.1013                 2.4931
 IR Inten    --     21.0854                79.6153                56.2433

                     52                     53                     54
                      A                      A                      A
 Frequencies --   1192.2074              1195.2666              1232.3514
 Red. masses --      1.2878                 1.1156                 1.5693
 Frc consts  --      1.0785                 0.9390                 1.4042
 IR Inten    --      4.2562                 8.8048                36.2546

                     55                     56                     57
                      A                      A                      A
 Frequencies --   1272.6788              1281.9111              1289.2609
 Red. masses --      1.6754                 1.7099                 1.1731
 Frc consts  --      1.5988                 1.6555                 1.1489
 IR Inten    --     68.0156                82.2368                 4.6470

                     58                     59                     60
                      A                      A                      A
 Frequencies --   1306.2094              1321.9466              1352.0266
 Red. masses --      1.7262                 1.2099                 1.1871
 Frc consts  --      1.7352                 1.2457                 1.2785
 IR Inten    --     79.8332                10.9259                14.7111

                     61                     62                     63
                      A                      A                      A
 Frequencies --   1356.7807              1392.3707              1411.3050
 Red. masses --      6.0645                 3.0825                 1.2682
 Frc consts  --      6.5776                 3.5210                 1.4882
 IR Inten    --      9.4075               192.7582                49.6527

                     64                     65                     66
                      A                      A                      A
 Frequencies --   1428.4773              1438.7538              1448.4473
 Red. masses --      1.2776                 1.3549                 1.4189
 Frc consts  --      1.5360                 1.6525                 1.7539
 IR Inten    --      8.3714                 7.9360                10.3627

                     67                     68                     69
                      A                      A                      A
 Frequencies --   1496.2839              1500.4626              1511.0216
 Red. masses --      1.1074                 2.4985                 1.0846
 Frc consts  --      1.4607                 3.3143                 1.4590
 IR Inten    --      0.4332                73.1819                 3.3132

                     70                     71                     72
                      A                      A                      A
 Frequencies --   1512.5358              1517.7211              1529.2365
 Red. masses --      1.0652                 1.1192                 1.9313
 Frc consts  --      1.4358                 1.5189                 2.6610
 IR Inten    --      8.3349                 2.7148                82.1007

                     73                     74                     75
                      A                      A                      A
 Frequencies --   1532.0202              1544.7987              1548.2088
 Red. masses --      1.1124                 1.0590                 1.2501
 Frc consts  --      1.5383                 1.4889                 1.7654
 IR Inten    --      9.7616                 8.7900                 1.8944

                     76                     77                     78
                      A                      A                      A
 Frequencies --   1631.8605              1639.8986              1662.4238
 Red. masses --      1.7469                 3.1717                 4.7527
 Frc consts  --      2.7408                 5.0255                 7.7389
 IR Inten    --    135.7749                50.6369                15.2952

                     79                     80                     81
                      A                      A                      A
 Frequencies --   1770.8741              3003.5912              3004.1290
 Red. masses --      8.3496                 1.0555                 1.0476
 Frc consts  --     15.4273                 5.6104                 5.5702
 IR Inten    --    361.6314                26.8073                49.5965

                     82                     83                     84
                      A                      A                      A
 Frequencies --   3013.7715              3017.6547              3035.7195
 Red. masses --      1.0679                 1.0676                 1.0604
 Frc consts  --      5.7148                 5.7279                 5.7574
 IR Inten    --     36.0193                18.3908                81.5235

                     85                     86                     87
                      A                      A                      A
 Frequencies --   3049.8006              3079.2535              3088.6093
 Red. masses --      1.1050                 1.1047                 1.0872
 Frc consts  --      6.0555                 6.1717                 6.1107
 IR Inten    --     62.5653                18.5891                46.2281

                     88                     89                     90
                      A                      A                      A
 Frequencies --   3092.2555              3122.7597              3137.9088
 Red. masses --      1.0983                 1.0958                 1.1039
 Frc consts  --      6.1876                 6.2956                 6.4042
 IR Inten    --     31.8334                30.0958                43.2126

                     91                     92                     93
                      A                      A                      A
 Frequencies --   3191.0684              3208.5390              3218.7121
 Red. masses --      1.0864                 1.0911                 1.0939
 Frc consts  --      6.5179                 6.6183                 6.6771
 IR Inten    --      4.9090                22.4496                12.0175

                     94                     95                     96
                      A                      A                      A
 Frequencies --   3233.2456              3560.9435              3695.8090
 Red. masses --      1.0926                 1.0467                 1.1044
 Frc consts  --      6.7293                 7.8199                 8.8876
 IR Inten    --      5.4254               124.2064                99.1070

 - Thermochemistry -
 -------------------
 Temperature   298.150 Kelvin.  Pressure   1.00000 Atm.
 Atom     1 has atomic number  6 and mass  12.00000

 Molecular mass:   239.11576 amu.
 Principal axes and moments of inertia in atomic units:
                           1         2         3
     Eigenvalues --  2322.675726827.317378158.15605
           X            0.99992  -0.00979   0.00844
           Y            0.00975   0.99994   0.00426
           Z           -0.00848  -0.00418   0.99996
 This molecule is an asymmetric top.
 Rotational symmetry number  1.
 Warning -- assumption of classical behavior for rotation
           may cause significant error
 Rotational temperatures (Kelvin)      0.03729     0.01269     0.01062
 Rotational constants (GHZ):           0.77701     0.26434     0.22122
 Zero-point vibrational energy     749748.2 (Joules/Mol)
                                  179.19411 (Kcal/Mol)
 Warning -- explicit consideration of  25 degrees of freedom as
           vibrations may cause significant error
 Vibrational temperatures:     28.78    32.81    55.05    99.69   112.59
          (Kelvin)            124.32   149.13   172.43   223.00   273.03
                              323.92   355.99   376.73   402.46   418.16
                              503.45   528.80   571.24   602.33   615.42
                              670.51   723.55   770.89   785.75   830.41
                              895.61   926.29   942.13  1045.92  1081.43
                             1115.71  1149.11  1180.56  1209.18  1255.61
                             1264.15  1340.20  1361.85  1387.70  1436.28
                             1455.12  1524.36  1548.28  1561.55  1588.20
                             1608.95  1624.00  1652.94  1688.00  1694.04
                             1713.00  1715.32  1719.72  1773.08  1831.10
                             1844.38  1854.96  1879.34  1901.99  1945.26
                             1952.10  2003.31  2030.55  2055.26  2070.05
                             2083.99  2152.82  2158.83  2174.02  2176.20
                             2183.66  2200.23  2204.24  2222.62  2227.53
                             2347.88  2359.45  2391.86  2547.89  4321.50
                             4322.27  4336.15  4341.73  4367.72  4387.98
                             4430.36  4443.82  4449.07  4492.95  4514.75
                             4591.24  4616.37  4631.01  4651.92  5123.40
                             5317.44

 Zero-point correction=                           0.285564 (Hartree/Particle)
 Thermal correction to Energy=                    0.302688
 Thermal correction to Enthalpy=                  0.303632
 Thermal correction to Gibbs Free Energy=         0.238157
 Sum of electronic and zero-point Energies=           -822.912208
 Sum of electronic and thermal Energies=              -822.895084
 Sum of electronic and thermal Enthalpies=            -822.894140
 Sum of electronic and thermal Free Energies=         -822.959615

                     E (Thermal)             CV                S
                      KCal/Mol        Cal/Mol-Kelvin    Cal/Mol-Kelvin
 Total                  189.939             63.069            137.804
 Electronic               0.000              0.000              0.000
 Translational            0.889              2.981             42.317
 Rotational               0.889              2.981             33.225
 Vibrational            188.162             57.108             62.262
 Vibration     1          0.593              1.986              6.634
 Vibration     2          0.593              1.985              6.374
 Vibration     3          0.594              1.982              5.347
 Vibration     4          0.598              1.969              4.173
 Vibration     5          0.600              1.964              3.934
 Vibration     6          0.601              1.959              3.740
 Vibration     7          0.605              1.946              3.385
 Vibration     8          0.609              1.933              3.103
 Vibration     9          0.620              1.897              2.610
 Vibration    10          0.633              1.854              2.230
 Vibration    11          0.650              1.803              1.917
 Vibration    12          0.661              1.767              1.749
 Vibration    13          0.669              1.743              1.649
 Vibration    14          0.680              1.711              1.535
 Vibration    15          0.687              1.691              1.470
 Vibration    16          0.727              1.575              1.167
 Vibration    17          0.740              1.539              1.090
 Vibration    18          0.764              1.476              0.974
 Vibration    19          0.781              1.430              0.897
 Vibration    20          0.789              1.410              0.866
 Vibration    21          0.823              1.325              0.749
 Vibration    22          0.858              1.244              0.651
 Vibration    23          0.891              1.171              0.574
 Vibration    24          0.901              1.148              0.552
 Vibration    25          0.934              1.081              0.491

 Optimization completed.
    -- Stationary point found.
 Normal termination of Gaussian 16 at Fri Dec 11 12:11:19 2020.

 ----------------------------------------------------------------------
 # B3LYP/6-311++G(d,p) empiricaldispersion=gd3bj scf=xqc pop=npa geom=c
 heck
 ----------------------------------------------------------------------

 ---------------------------------------
 CID_154454578_JID_7166_Energie_neutraal
 ---------------------------------------
 Structure from the checkpoint file:  "JID_7166.chk"
 Charge =  0 Multiplicity = 1

 SCF Done:  E(RB3LYP) =  -823.440283171     A.U. after   16 cycles
 Normal termination of Gaussian 16 at Fri Dec 11 12:17:52 2020.

 ----------------------------------------------------------------------
 # B3LYP/6-311++G(d,p) empiricaldispersion=gd3bj scf=xqc pop=npa geom=c
 heck
 ----------------------------------------------------------------------

 -------------------------------------
 CID_154454578_JID_7166_Energie_kation
 -------------------------------------
 Structure from the checkpoint file:  "JID_7166.chk"
 Charge =  1 Multiplicity = 2

 SCF Done:  E(UB3LYP) =  -823.131404540     A.U. after   33 cycles
 SCF Done:  E(UB3LYP) =  -823.131404540     a.u. after    1 cycles
 Normal termination of Gaussian 16 at Fri Dec 11 12:39:05 2020.
 Gaussian 16:  ES64L-G16RevA.03 25-Dec-2016

 ----------------------------------------------------------------------
 # B3LYP/6-311++G(d,p) empiricaldispersion=gd3bj scf=xqc pop=npa geom=c
 heck
 ----------------------------------------------------------------------

 ------------------------------------
 CID_154454578_JID_7166_Energie_anion
 ------------------------------------
 Structure from the checkpoint file:  "JID_7166.chk"
 Charge = -1 Multiplicity = 2

                         Standard orientation:
 ---------------------------------------------------------------------
 Center     Atomic      Atomic             Coordinates (Angstroms)
 Number     Number       Type             X           Y           Z
 ---------------------------------------------------------------------
      1          6           0       -4.712334    0.755691   -0.326687
      2          8           0       -4.362593    0.485548    1.020515
      3          6           0       -2.981535    0.574701    1.300723
      4          6           0       -2.192072   -0.678037    0.953658
      5          8           0       -2.073608   -0.788606   -0.462582
      6          6           0       -1.508743   -2.004783   -0.917063
      7          6           0       -0.049103   -2.173410   -0.508010
      8          8           0        0.612224   -0.973551   -0.889295
      9          6           0        1.789336   -0.633146   -0.272662
     10          6           0        2.683800   -1.607205    0.180470
     11          6           0        3.892227   -1.227503    0.762070
     12          6           0        4.217852    0.122906    0.883303
     13          6           0        3.321381    1.085159    0.429293
     14          6           0        2.090033    0.736828   -0.138773
     15          6           0        1.203902    1.895425   -0.536431
     16          8           0        1.653678    3.039016   -0.553387
     17          7           0       -0.105034    1.639341   -0.810727
     18          1           0       -4.352830   -0.020081   -1.011872
     19          1           0       -4.306293    1.725506   -0.655599
     20          1           0       -5.804201    0.800293   -0.362186
     21          1           0       -2.524708    1.440148    0.796117
     22          1           0       -2.898776    0.733225    2.382236
     23          1           0       -1.197839   -0.606633    1.420175
     24          1           0       -2.706145   -1.563423    1.357399
     25          1           0       -2.086220   -2.870208   -0.555009
     26          1           0       -1.582264   -1.969013   -2.007516
     27          1           0        0.056587   -2.328363    0.572614
     28          1           0        0.377608   -3.046275   -1.020998
     29          1           0        2.445496   -2.658361    0.059755
     30          1           0        4.580151   -1.993100    1.109797
     31          1           0        5.160891    0.423256    1.329294
     32          1           0        3.539701    2.144280    0.508709
     33          1           0       -0.479759    0.704169   -0.910009
     34          1           0       -0.652235    2.430180   -1.119179
 ---------------------------------------------------------------------

 SCF Done:  E(UB3LYP) =  -823.436563371     A.U. after   33 cycles
 SCF Done:  E(UB3LYP) =  -823.436563371     a.u. after    1 cycles

 The electronic state is 2-A.
 Alpha  occ. eigenvalues --  -19.04997 -19.04384 -19.04216 -18.95845 -14.20374
 Alpha  occ. eigenvalues --  -10.14712 -10.13434 -10.13213 -10.13088 -10.12921
 Alpha  occ. eigenvalues --  -10.12608 -10.12457 -10.05941 -10.05824 -10.05794
 Alpha  occ. eigenvalues --  -10.05711 -10.05292  -0.97407  -0.95889  -0.94524
 Alpha  occ. eigenvalues --   -0.91087  -0.77891  -0.74261  -0.69265  -0.66327
 Alpha  occ. eigenvalues --   -0.64212  -0.62147  -0.59801  -0.54415  -0.52439
 Alpha  occ. eigenvalues --   -0.51567  -0.48213  -0.46855  -0.43943  -0.42772
 Alpha  occ. eigenvalues --   -0.42142  -0.41132  -0.40041  -0.38338  -0.37672
 Alpha  occ. eigenvalues --   -0.37103  -0.36307  -0.35220  -0.34086  -0.33315
 Alpha  occ. eigenvalues --   -0.32132  -0.30942  -0.29966  -0.29678  -0.29390
 Alpha  occ. eigenvalues --   -0.28836  -0.27536  -0.25812  -0.24837  -0.24123
 Alpha  occ. eigenvalues --   -0.23611  -0.23039  -0.20770  -0.18973  -0.17198
 Alpha  occ. eigenvalues --   -0.15389  -0.14538  -0.13746  -0.12478   0.04203
 Alpha virt. eigenvalues --    0.06007   0.06669   0.07713   0.07877   0.08779
 Alpha virt. eigenvalues --    0.09038   0.09773   0.10166   0.10457   0.10744
 Alpha virt. eigenvalues --    0.11692   0.11890   0.12264   0.13035   0.13391

  Beta  occ. eigenvalues --  -19.04987 -19.04381 -19.04214 -18.95749 -14.20336
  Beta  occ. eigenvalues --  -10.14620 -10.13432 -10.13203 -10.13065 -10.12888
  Beta  occ. eigenvalues --  -10.12572 -10.12446 -10.05921 -10.05768 -10.05708
  Beta  occ. eigenvalues --  -10.05567 -10.05176  -0.97380  -0.95878  -0.94516
  Beta  occ. eigenvalues --   -0.90900  -0.77777  -0.74060  -0.69222  -0.66248
  Beta  occ. eigenvalues --   -0.63908  -0.62032  -0.59756  -0.54363  -0.52049
  Beta  occ. eigenvalues --   -0.51517  -0.48151  -0.46702  -0.43869  -0.42726
  Beta  occ. eigenvalues --   -0.42086  -0.41098  -0.39989  -0.38262  -0.37628
  Beta  occ. eigenvalues --   -0.37057  -0.36249  -0.35158  -0.33949  -0.33225
  Beta  occ. eigenvalues --   -0.32063  -0.30864  -0.29688  -0.29521  -0.29277
  Beta  occ. eigenvalues --   -0.28640  -0.27462  -0.25499  -0.24767  -0.24021
  Beta  occ. eigenvalues --   -0.23577  -0.22849  -0.20578  -0.18947  -0.17184
  Beta  occ. eigenvalues --   -0.14937  -0.13962  -0.13338  -0.12036
  Beta virt. eigenvalues --    0.06436   0.07220   0.07795   0.08002   0.08280
  Beta virt. eigenvalues --    0.08869   0.09380   0.10113   0.10457   0.10622
  Beta virt. eigenvalues --    0.10845   0.11741   0.12072   0.12394   0.13243

 Mulliken charges and spin densities:
               1          2
     1  C   -0.043312  -0.235992
     2  O   -0.141112   0.015955
     3  C   -0.405125  -0.242706
     4  C    0.048208  -0.050479
     5  O   -0.122448   0.045830
     6  C    0.583222  -1.404810
     7  C    0.275496  -0.059106
     8  O   -0.183568   0.036087
     9  C   -0.536563  -0.242422
    10  C    0.242579  -0.199945
    11  C   -0.271355   0.265617
    12  C   -0.508296  -0.033780
    13  C   -0.099708   0.155039
    14  C    0.933852   0.097821
    15  C   -0.176171   0.022511
    16  O   -0.392604   0.036953
    17  N   -0.494707   0.015388
    18  H    0.023930   0.143638
    19  H    0.058300   0.051400
    20  H    0.024429   0.119956
    21  H    0.215146  -0.041019
    22  H    0.110931   0.046676
    23  H    0.136437  -0.035320
    24  H   -0.019438   0.200408
    25  H   -0.508926   0.692543
    26  H   -0.085598   0.292479
    27  H    0.166475  -0.000124
    28  H   -0.803436   0.987798
    29  H   -0.118401   0.276785
    30  H    0.053453   0.071282
    31  H    0.116828   0.002912
    32  H    0.187901  -0.006765
    33  H    0.462113  -0.041218
    34  H    0.271468   0.016609
 Sum of Mulliken charges =  -1.00000   1.00000

 Dipole moment (field-independent basis, Debye):
    X=             -1.9481    Y=              2.2847    Z=              2.3876  Tot=              3.8361
 Quadrupole moment (field-independent basis, Debye-Ang):
   XX=           -159.7083   YY=           -161.0928   ZZ=           -123.9288
   XY=            -14.2250   XZ=              3.8669   YZ=             -5.0757

 Summary of Natural Population Analysis:

                                       Natural Population
                Natural  -----------------------------------------------
    Atom  No    Charge         Core      Valence    Rydberg      Total
 -----------------------------------------------------------------------
      C    1   -0.09857      0.99961     2.09024    0.00872     3.09857
      O    2   -0.29987      0.99989     3.29037    0.00962     4.29987
      C    3   -0.01770      0.99958     2.00646    0.01167     3.01770
      C    4   -0.02817      0.99957     2.01554    0.01306     3.02817
      O    5   -0.30718      0.99988     3.29651    0.01079     4.30718
      C    6   -0.01599      0.99957     2.00221    0.01421     3.01599
      C    7   -0.02566      0.99957     2.01386    0.01223     3.02566
      O    8   -0.28986      0.99985     3.27974    0.01027     4.28986
      C    9    0.17705      0.99936     1.81134    0.01225     2.82295
      C   10   -0.14457      0.99952     2.13607    0.00897     3.14457
      C   11   -0.05434      0.99958     2.04407    0.01069     3.05434
      C   12   -0.13046      0.99957     2.12225    0.00865     3.13046
      C   13   -0.05294      0.99955     2.04541    0.00798     3.05294
      C   14   -0.07496      0.99942     2.06380    0.01175     3.07496
      C   15    0.34362      0.99967     1.63430    0.02241     2.65638
      O   16   -0.32933      0.99988     3.32400    0.00544     4.32933
      N   17   -0.40711      0.99970     2.89931    0.00811     3.90711
      H   18    0.08999      0.00000     0.40808    0.00193     0.41001
      H   19    0.07519      0.00000     0.42335    0.00146     0.42481
      H   20    0.08470      0.00000     0.41414    0.00117     0.41530
      H   21    0.08627      0.00000     0.41204    0.00169     0.41373
      H   22    0.09002      0.00000     0.40894    0.00104     0.40998
      H   23    0.08662      0.00000     0.41206    0.00132     0.41338
      H   24    0.08518      0.00000     0.41325    0.00157     0.41482
      H   25    0.08721      0.00000     0.40981    0.00298     0.41279
      H   26    0.09521      0.00000     0.40312    0.00167     0.40479
      H   27    0.08571      0.00000     0.41255    0.00174     0.41429
      H   28    0.09486      0.00000     0.40209    0.00304     0.40514
      H   29    0.10251      0.00000     0.39590    0.00158     0.39749
      H   30    0.09301      0.00000     0.40626    0.00073     0.40699
      H   31    0.09477      0.00000     0.40441    0.00082     0.40523
      H   32    0.11025      0.00000     0.38874    0.00101     0.38975
      H   33    0.20850      0.00000     0.28859    0.00291     0.29150
      H   34    0.18603      0.00000     0.31160    0.00236     0.31397
 =======================================================================
   * Total *   -0.00000     16.99376    46.79041    0.21583    64.00000

 Normal termination of Gaussian 16 at Fri Dec 11 13:02:08 2020.
