 Gaussian 16, Revision A.03,

 -----------------------------------------------------------
 # opt freq B3LYP/6-31G(d) empiricaldispersion=gd3bj scf=xqc
 -----------------------------------------------------------

 -------------------------------
 CID_130673452_JID_2990_neutraal
 -------------------------------
 Symbolic Z-matrix:
 Charge =  0 Multiplicity = 1

 SCF Done:  E(RB3LYP) =  -521.302714407     A.U. after   14 cycles
 SCF Done:  E(RB3LYP) =  -521.305344261     A.U. after   12 cycles
 SCF Done:  E(RB3LYP) =  -521.305310206     A.U. after   11 cycles
 SCF Done:  E(RB3LYP) =  -521.305826789     A.U. after   11 cycles
 SCF Done:  E(RB3LYP) =  -521.305871031     A.U. after   10 cycles
 SCF Done:  E(RB3LYP) =  -521.305881086     A.U. after   10 cycles
 SCF Done:  E(RB3LYP) =  -521.305887397     A.U. after   10 cycles
 SCF Done:  E(RB3LYP) =  -521.305889492     A.U. after    8 cycles
 SCF Done:  E(RB3LYP) =  -521.305889651     A.U. after    8 cycles
 Optimization completed.
    -- Stationary point found.
 Normal termination of Gaussian 16 at Wed Dec  9 18:21:30 2020.

 --------------------------------------------------------------------
 #N Geom=AllCheck Guess=TCheck SCRF=Check GenChk RB3LYP/6-31G(d) Freq
 --------------------------------------------------------------------

 Structure from the checkpoint file:  "JID_2990.chk"
 -------------------------------
 CID_130673452_JID_2990_neutraal
 -------------------------------
 Charge =  0 Multiplicity = 1

 SCF Done:  E(RB3LYP) =  -521.305889651     A.U. after    1 cycles

  Exact polarizability: 128.254   6.601  98.089  -2.972   0.231  94.392
 Approx polarizability: 164.267  15.838 151.346  -7.320  -3.251 140.261

                      1                      2                      3
                      A                      A                      A
 Frequencies --     40.2606                57.7851               105.3263
 Red. masses --      4.0441                 4.5934                 3.9966
 Frc consts  --      0.0039                 0.0090                 0.0261
 IR Inten    --      0.0459                 2.1402                 1.4196

                      4                      5                      6
                      A                      A                      A
 Frequencies --    157.1702               192.0801               215.9114
 Red. masses --      3.8458                 3.3329                 3.2306
 Frc consts  --      0.0560                 0.0725                 0.0887
 IR Inten    --      2.1422                 1.9812                 0.2043

                      7                      8                      9
                      A                      A                      A
 Frequencies --    237.9643               263.6367               281.9465
 Red. masses --      3.8737                 2.1250                 1.2050
 Frc consts  --      0.1292                 0.0870                 0.0564
 IR Inten    --     10.0589                 1.2903                 3.0290

                     10                     11                     12
                      A                      A                      A
 Frequencies --    287.4906               330.4747               351.5152
 Red. masses --      1.9830                 1.8993                 1.3810
 Frc consts  --      0.0966                 0.1222                 0.1005
 IR Inten    --     18.6865                 0.7839               104.6222

                     13                     14                     15
                      A                      A                      A
 Frequencies --    395.5231               425.7807               446.0964
 Red. masses --      2.4001                 2.7458                 4.0945
 Frc consts  --      0.2212                 0.2933                 0.4801
 IR Inten    --     10.7738                 4.2532                16.7267

                     16                     17                     18
                      A                      A                      A
 Frequencies --    481.1766               503.9902               546.4222
 Red. masses --      2.5363                 2.2674                 3.3443
 Frc consts  --      0.3460                 0.3393                 0.5883
 IR Inten    --      0.9208                 3.0612                 7.3419

                     19                     20                     21
                      A                      A                      A
 Frequencies --    609.6036               697.6313               757.2082
 Red. masses --      6.6688                 2.2462                 3.5320
 Frc consts  --      1.4601                 0.6441                 1.1932
 IR Inten    --      1.8589                 1.4267                 0.3451

                     22                     23                     24
                      A                      A                      A
 Frequencies --    790.0886               835.2964               858.9732
 Red. masses --      1.5134                 2.5419                 2.5625
 Frc consts  --      0.5566                 1.0449                 1.1140
 IR Inten    --      0.1332                 1.3248                 5.3699

                     25                     26                     27
                      A                      A                      A
 Frequencies --    877.8793               882.1570               923.0354
 Red. masses --      1.6221                 2.0858                 2.4317
 Frc consts  --      0.7365                 0.9563                 1.2207
 IR Inten    --      4.3460                 4.6019                 1.6185

                     28                     29                     30
                      A                      A                      A
 Frequencies --    950.2864               970.0654              1025.2481
 Red. masses --      1.3425                 2.5634                 2.0191
 Frc consts  --      0.7143                 1.4212                 1.2504
 IR Inten    --      3.1589                38.6702                12.2887

                     31                     32                     33
                      A                      A                      A
 Frequencies --   1046.3691              1051.5757              1063.9938
 Red. masses --      2.0034                 2.4656                 1.9283
 Frc consts  --      1.2924                 1.6064                 1.2862
 IR Inten    --      0.5093                23.6042                12.5967

                     34                     35                     36
                      A                      A                      A
 Frequencies --   1089.3317              1099.3937              1122.7728
 Red. masses --      2.1426                 2.5348                 1.8441
 Frc consts  --      1.4980                 1.8051                 1.3697
 IR Inten    --     16.3116                50.4176                 0.1408

                     37                     38                     39
                      A                      A                      A
 Frequencies --   1149.3829              1156.4371              1173.8108
 Red. masses --      1.5295                 1.1176                 1.4950
 Frc consts  --      1.1905                 0.8806                 1.2136
 IR Inten    --      2.9606                 0.6581                 1.8459

                     40                     41                     42
                      A                      A                      A
 Frequencies --   1188.5085              1259.7757              1288.6235
 Red. masses --      2.2333                 1.3796                 1.2522
 Frc consts  --      1.8587                 1.2900                 1.2251
 IR Inten    --      2.5661                 7.3215                 4.8938

                     43                     44                     45
                      A                      A                      A
 Frequencies --   1306.3374              1316.4339              1321.5769
 Red. masses --      1.2618                 1.2335                 1.2620
 Frc consts  --      1.2686                 1.2595                 1.2987
 IR Inten    --      2.6014                 3.9220                 2.3922

                     46                     47                     48
                      A                      A                      A
 Frequencies --   1353.8545              1364.2760              1374.8992
 Red. masses --      1.4575                 1.3947                 1.3142
 Frc consts  --      1.5740                 1.5295                 1.4637
 IR Inten    --      4.1659                 2.0468                 0.1522

                     49                     50                     51
                      A                      A                      A
 Frequencies --   1388.9615              1399.4495              1401.5951
 Red. masses --      1.4117                 1.4323                 1.3855
 Frc consts  --      1.6046                 1.6527                 1.6036
 IR Inten    --      3.4642                 0.4042                 0.9236

                     52                     53                     54
                      A                      A                      A
 Frequencies --   1410.9334              1423.3923              1429.9201
 Red. masses --      1.4226                 1.3801                 1.3030
 Frc consts  --      1.6686                 1.6474                 1.5697
 IR Inten    --      5.8018                 2.2101                 5.0351

                     55                     56                     57
                      A                      A                      A
 Frequencies --   1434.8321              1452.3356              1510.5730
 Red. masses --      1.2219                 1.2657                 1.0816
 Frc consts  --      1.4821                 1.5729                 1.4542
 IR Inten    --     34.0804                15.7606                 2.5074

                     58                     59                     60
                      A                      A                      A
 Frequencies --   1514.4669              1519.2806              1520.1828
 Red. masses --      1.0938                 1.0867                 1.0742
 Frc consts  --      1.4781                 1.4779                 1.4626
 IR Inten    --      1.0778                 3.9859                 3.0297

                     61                     62                     63
                      A                      A                      A
 Frequencies --   1533.2982              1541.1846              1545.9670
 Red. masses --      1.0780                 1.0644                 1.0671
 Frc consts  --      1.4932                 1.4895                 1.5026
 IR Inten    --      9.5612                 5.0662                10.0547

                     64                     65                     66
                      A                      A                      A
 Frequencies --   2359.6803              3001.2573              3021.5137
 Red. masses --     12.6591                 1.0830                 1.0650
 Frc consts  --     41.5297                 5.7473                 5.7286
 IR Inten    --      1.7126                20.7237                17.3681

                     67                     68                     69
                      A                      A                      A
 Frequencies --   3023.2462              3029.9985              3043.5504
 Red. masses --      1.0657                 1.0635                 1.0653
 Frc consts  --      5.7389                 5.7528                 5.8142
 IR Inten    --     33.5654                23.8290                12.2192

                     70                     71                     72
                      A                      A                      A
 Frequencies --   3050.9206              3062.1750              3062.6911
 Red. masses --      1.0680                 1.0931                 1.0924
 Frc consts  --      5.8570                 6.0390                 6.0373
 IR Inten    --     28.7106                54.6949                39.9220

                     73                     74                     75
                      A                      A                      A
 Frequencies --   3066.6577              3068.3153              3074.3317
 Red. masses --      1.0793                 1.0519                 1.0934
 Frc consts  --      5.9805                 5.8350                 6.0888
 IR Inten    --     28.8280                 7.1610                57.3156

                     76                     77                     78
                      A                      A                      A
 Frequencies --   3083.0739              3088.9966              3099.2373
 Red. masses --      1.1036                 1.0838                 1.0980
 Frc consts  --      6.1808                 6.0932                 6.2136
 IR Inten    --     44.0997                15.3686                97.2510

                     79                     80                     81
                      A                      A                      A
 Frequencies --   3130.7938              3161.9414              3722.0091
 Red. masses --      1.1009                 1.0985                 1.0661
 Frc consts  --      6.3581                 6.4708                 8.7019
 IR Inten    --     20.2904                17.8042                22.0891

 - Thermochemistry -
 -------------------
 Temperature   298.150 Kelvin.  Pressure   1.00000 Atm.
 Atom     1 has atomic number  6 and mass  12.00000

 Molecular mass:   167.13101 amu.
 Principal axes and moments of inertia in atomic units:
                           1         2         3
     Eigenvalues --   967.123763566.191953726.34934
           X            0.99998  -0.00607  -0.00105
           Y            0.00611   0.99899   0.04452
           Z            0.00078  -0.04453   0.99901
 This molecule is an asymmetric top.
 Rotational symmetry number  1.
 Warning -- assumption of classical behavior for rotation
           may cause significant error
 Rotational temperatures (Kelvin)      0.08956     0.02429     0.02324
 Rotational constants (GHZ):           1.86609     0.50607     0.48432
 Zero-point vibrational energy     684276.8 (Joules/Mol)
                                  163.54607 (Kcal/Mol)
 Warning -- explicit consideration of  19 degrees of freedom as
           vibrations may cause significant error
 Vibrational temperatures:     57.93    83.14   151.54   226.13   276.36
          (Kelvin)            310.65   342.38   379.31   405.66   413.63
                              475.48   505.75   569.07   612.60   641.83
                              692.31   725.13   786.18   877.08  1003.74
                             1089.45  1136.76  1201.81  1235.87  1263.07
                             1269.23  1328.04  1367.25  1395.71  1475.10
                             1505.49  1512.98  1530.85  1567.31  1581.78
                             1615.42  1653.71  1663.86  1688.85  1710.00
                             1812.54  1854.04  1879.53  1894.05  1901.45
                             1947.89  1962.89  1978.17  1998.41  2013.50
                             2016.58  2030.02  2047.94  2057.34  2064.40
                             2089.59  2173.38  2178.98  2185.91  2187.20
                             2206.07  2217.42  2224.30  3395.05  4318.14
                             4347.28  4349.78  4359.49  4378.99  4389.59
                             4405.79  4406.53  4412.24  4414.62  4423.28
                             4435.86  4444.38  4459.11  4504.51  4549.33
                             5355.14

 Zero-point correction=                           0.260627 (Hartree/Particle)
 Thermal correction to Energy=                    0.272977
 Thermal correction to Enthalpy=                  0.273921
 Thermal correction to Gibbs Free Energy=         0.222210
 Sum of electronic and zero-point Energies=           -521.045262
 Sum of electronic and thermal Energies=              -521.032912
 Sum of electronic and thermal Enthalpies=            -521.031968
 Sum of electronic and thermal Free Energies=         -521.083679

                     E (Thermal)             CV                S
                      KCal/Mol        Cal/Mol-Kelvin    Cal/Mol-Kelvin
 Total                  171.296             47.685            108.835
 Electronic               0.000              0.000              0.000
 Translational            0.889              2.981             41.249
 Rotational               0.889              2.981             30.931
 Vibrational            169.518             41.723             36.655
 Vibration     1          0.594              1.981              5.246
 Vibration     2          0.596              1.974              4.531
 Vibration     3          0.605              1.945              3.353
 Vibration     4          0.621              1.895              2.584
 Vibration     5          0.634              1.851              2.208
 Vibration     6          0.645              1.817              1.993
 Vibration     7          0.656              1.783              1.818
 Vibration     8          0.670              1.740              1.638
 Vibration     9          0.681              1.707              1.522
 Vibration    10          0.685              1.697              1.489
 Vibration    11          0.713              1.615              1.258
 Vibration    12          0.728              1.572              1.159
 Vibration    13          0.762              1.480              0.979
 Vibration    14          0.788              1.414              0.873
 Vibration    15          0.805              1.370              0.808
 Vibration    16          0.837              1.292              0.707
 Vibration    17          0.859              1.241              0.648
 Vibration    18          0.902              1.148              0.552
 Vibration    19          0.969              1.011              0.433

 Optimization completed.
    -- Stationary point found.
 Normal termination of Gaussian 16 at Wed Dec  9 18:28:57 2020.

 ----------------------------------------------------------------------
 # B3LYP/6-311++G(d,p) empiricaldispersion=gd3bj scf=xqc pop=npa geom=c
 heck
 ----------------------------------------------------------------------

 ---------------------------------------
 CID_130673452_JID_2990_Energie_neutraal
 ---------------------------------------
 Structure from the checkpoint file:  "JID_2990.chk"
 Charge =  0 Multiplicity = 1

 SCF Done:  E(RB3LYP) =  -521.458904926     A.U. after   14 cycles
 Normal termination of Gaussian 16 at Wed Dec  9 18:31:43 2020.

 ----------------------------------------------------------------------
 # B3LYP/6-311++G(d,p) empiricaldispersion=gd3bj scf=xqc pop=npa geom=c
 heck
 ----------------------------------------------------------------------

 -------------------------------------
 CID_130673452_JID_2990_Energie_kation
 -------------------------------------
 Structure from the checkpoint file:  "JID_2990.chk"
 Charge =  1 Multiplicity = 2

 SCF Done:  E(UB3LYP) =  -521.092937943     A.U. after   29 cycles
 Normal termination of Gaussian 16 at Wed Dec  9 18:39:21 2020.
 Gaussian 16:  ES64L-G16RevA.03 25-Dec-2016

 ----------------------------------------------------------------------
 # B3LYP/6-311++G(d,p) empiricaldispersion=gd3bj scf=xqc pop=npa geom=c
 heck
 ----------------------------------------------------------------------

 ------------------------------------
 CID_130673452_JID_2990_Energie_anion
 ------------------------------------
 Structure from the checkpoint file:  "JID_2990.chk"
 Charge = -1 Multiplicity = 2

                         Standard orientation:
 ---------------------------------------------------------------------
 Center     Atomic      Atomic             Coordinates (Angstroms)
 Number     Number       Type             X           Y           Z
 ---------------------------------------------------------------------
      1          6           0       -0.524198   -1.629296    0.207346
      2          6           0       -0.714121   -0.122030    0.423408
      3          6           0        0.499163    0.794313    0.105588
      4          6           0        1.560665    0.833042    1.230111
      5          6           0        2.611502   -0.284752    1.182502
      6          6           0        3.280063   -0.348141   -0.195351
      7          6           0        2.237648   -0.543064   -1.302443
      8          6           0        1.164783    0.558485   -1.271392
      9          6           0       -1.950816    0.370791   -0.377561
     10          6           0       -3.145336   -0.450174   -0.074004
     11          7           0       -4.087509   -1.065235    0.211247
     12          8           0       -2.254762    1.744051   -0.177888
     13          1           0       -0.374472   -1.865233   -0.851625
     14          1           0       -1.402521   -2.184700    0.549700
     15          1           0        0.340439   -2.001950    0.758947
     16          1           0       -0.962572    0.034709    1.484877
     17          1           0        0.066345    1.799986    0.070432
     18          1           0        2.093763    1.790708    1.145305
     19          1           0        1.061846    0.847854    2.208122
     20          1           0        2.155445   -1.255811    1.412569
     21          1           0        3.363158   -0.107946    1.961913
     22          1           0        4.022561   -1.154829   -0.225686
     23          1           0        3.826377    0.590240   -0.372080
     24          1           0        1.779038   -1.531772   -1.190516
     25          1           0        2.725072   -0.539285   -2.285382
     26          1           0        0.403782    0.361465   -2.037797
     27          1           0        1.644217    1.501479   -1.567740
     28          1           0       -1.745291    0.278523   -1.449437
     29          1           0       -2.462642    1.865756    0.763551
 ---------------------------------------------------------------------

 SCF Done:  E(UB3LYP) =  -521.448875024     A.U. after   32 cycles

 The electronic state is 2-A.
 Alpha  occ. eigenvalues --  -19.03979 -14.21874 -10.16639 -10.11434 -10.08971
 Alpha  occ. eigenvalues --  -10.06993 -10.06956 -10.06402 -10.06260 -10.06155
 Alpha  occ. eigenvalues --  -10.06116 -10.05970  -0.94729  -0.81338  -0.74099
 Alpha  occ. eigenvalues --   -0.70179  -0.64091  -0.63864  -0.61255  -0.54242
 Alpha  occ. eigenvalues --   -0.51031  -0.48536  -0.46778  -0.42997  -0.40109
 Alpha  occ. eigenvalues --   -0.38037  -0.36988  -0.34958  -0.33869  -0.32661
 Alpha  occ. eigenvalues --   -0.31087  -0.30280  -0.29096  -0.28666  -0.27614
 Alpha  occ. eigenvalues --   -0.27075  -0.26812  -0.25550  -0.24571  -0.23920
 Alpha  occ. eigenvalues --   -0.23698  -0.23009  -0.21200  -0.19959  -0.19493
 Alpha  occ. eigenvalues --   -0.19009   0.04351
 Alpha virt. eigenvalues --    0.06470   0.07376   0.07771   0.08656   0.09382
 Alpha virt. eigenvalues --    0.10087   0.10521   0.10697   0.10990   0.11621
 Alpha virt. eigenvalues --    0.12011   0.12960   0.13026   0.13595   0.13641

  Beta  occ. eigenvalues --  -19.03912 -14.21820 -10.16621 -10.11435 -10.08947
  Beta  occ. eigenvalues --  -10.06985 -10.06950 -10.06378 -10.06246 -10.06135
  Beta  occ. eigenvalues --  -10.06101 -10.05946  -0.94588  -0.81255  -0.74056
  Beta  occ. eigenvalues --   -0.70127  -0.64047  -0.63809  -0.61192  -0.54185
  Beta  occ. eigenvalues --   -0.50970  -0.48476  -0.46688  -0.42940  -0.40025
  Beta  occ. eigenvalues --   -0.37972  -0.36938  -0.34904  -0.33837  -0.32623
  Beta  occ. eigenvalues --   -0.31045  -0.30247  -0.29054  -0.28602  -0.27569
  Beta  occ. eigenvalues --   -0.27025  -0.26754  -0.25482  -0.24421  -0.23883
  Beta  occ. eigenvalues --   -0.23657  -0.22960  -0.21148  -0.19913  -0.19451
  Beta  occ. eigenvalues --   -0.18950
  Beta virt. eigenvalues --    0.06670   0.07773   0.08022   0.08141   0.09312
  Beta virt. eigenvalues --    0.09877   0.10489   0.10837   0.10914   0.11245
  Beta virt. eigenvalues --    0.11979   0.12469   0.13183   0.13225   0.13842

 Mulliken charges and spin densities:
               1          2
     1  C    0.041809  -0.861805
     2  C    0.338217  -0.454042
     3  C   -0.258368   0.926673
     4  C   -0.172776  -0.379865
     5  C   -0.242651   0.044680
     6  C    0.889732  -1.430851
     7  C   -0.879781   0.793494
     8  C    0.790781  -1.391069
     9  C   -0.022779   0.263638
    10  C    0.869935  -1.238558
    11  N   -0.317768   0.040286
    12  O   -0.104516  -0.068777
    13  H   -0.000714   0.160284
    14  H    0.239659  -0.090983
    15  H    0.090191   0.038639
    16  H   -0.259654   0.503996
    17  H    0.018814   0.219354
    18  H   -0.251549   0.413080
    19  H   -0.408883   0.557821
    20  H    0.047235   0.050429
    21  H   -0.333778   0.515072
    22  H   -0.329081   0.498314
    23  H    0.016015   0.110108
    24  H    0.039101   0.057076
    25  H   -0.254281   0.431737
    26  H   -0.106447   0.235608
    27  H   -0.174722   0.339602
    28  H    0.015537   0.185551
    29  H   -0.279278   0.530508
 Sum of Mulliken charges =  -1.00000   1.00000

 Dipole moment (field-independent basis, Debye):
    X=              0.3503    Y=             -2.8681    Z=             -2.0154  Tot=              3.5229
 Quadrupole moment (field-independent basis, Debye-Ang):
   XX=           -153.5573   YY=           -110.8585   ZZ=           -112.5445
   XY=             -0.3397   XZ=              3.5854   YZ=             -2.7297

 Summary of Natural Population Analysis:

                                       Natural Population
                Natural  -----------------------------------------------
    Atom  No    Charge         Core      Valence    Rydberg      Total
 -----------------------------------------------------------------------
      C    1   -0.29120      0.99963     2.28667    0.00489     3.29120
      C    2   -0.10972      0.99957     2.09793    0.01222     3.10972
      C    3   -0.11526      0.99956     2.10263    0.01307     3.11526
      C    4   -0.18643      0.99961     2.17685    0.00997     3.18643
      C    5   -0.18923      0.99962     2.18149    0.00811     3.18923
      C    6   -0.18820      0.99963     2.18054    0.00803     3.18820
      C    7   -0.19141      0.99962     2.18335    0.00843     3.19141
      C    8   -0.19017      0.99961     2.18160    0.00896     3.19017
      C    9    0.01756      0.99945     1.96868    0.01432     2.98244
      C   10    0.14858      0.99964     1.83321    0.01857     2.85142
      N   11   -0.17795      0.99979     2.66645    0.01171     3.67795
      O   12   -0.35326      0.99990     3.34691    0.00645     4.35326
      H   13    0.09726      0.00000     0.40162    0.00113     0.40274
      H   14    0.10553      0.00000     0.39361    0.00086     0.39447
      H   15    0.10414      0.00000     0.39473    0.00113     0.39586
      H   16    0.10101      0.00000     0.39610    0.00289     0.39899
      H   17    0.11248      0.00000     0.38510    0.00242     0.38752
      H   18    0.09741      0.00000     0.40117    0.00142     0.40259
      H   19    0.10139      0.00000     0.39678    0.00183     0.39861
      H   20    0.08893      0.00000     0.40959    0.00148     0.41107
      H   21    0.09923      0.00000     0.39959    0.00118     0.40077
      H   22    0.09726      0.00000     0.40159    0.00115     0.40274
      H   23    0.09293      0.00000     0.40559    0.00149     0.40707
      H   24    0.09154      0.00000     0.40693    0.00153     0.40846
      H   25    0.09799      0.00000     0.40093    0.00108     0.40201
      H   26    0.09595      0.00000     0.40279    0.00126     0.40405
      H   27    0.10023      0.00000     0.39853    0.00124     0.39977
      H   28    0.10723      0.00000     0.39068    0.00208     0.39277
      H   29    0.23616      0.00000     0.25504    0.00880     0.26384
 =======================================================================
   * Total *   -0.00000     11.99563    33.84669    0.15768    46.00000

 Normal termination of Gaussian 16 at Wed Dec  9 18:46:57 2020.
