 Gaussian 16, Revision A.03,

 -----------------------------------------------------------
 # opt freq B3LYP/6-31G(d) empiricaldispersion=gd3bj scf=xqc
 -----------------------------------------------------------

 --------------------------------
 CID_115652793_JID_10143_neutraal
 --------------------------------
 Symbolic Z-matrix:
 Charge =  0 Multiplicity = 1

 SCF Done:  E(RB3LYP) =  -1275.23797126     A.U. after   15 cycles
 SCF Done:  E(RB3LYP) =  -1275.24155406     A.U. after   12 cycles
 SCF Done:  E(RB3LYP) =  -1275.24221985     A.U. after   12 cycles
 SCF Done:  E(RB3LYP) =  -1275.24248013     A.U. after   12 cycles
 SCF Done:  E(RB3LYP) =  -1275.24271624     A.U. after   12 cycles
 SCF Done:  E(RB3LYP) =  -1275.24298817     A.U. after   12 cycles
 SCF Done:  E(RB3LYP) =  -1275.24320178     A.U. after   13 cycles
 SCF Done:  E(RB3LYP) =  -1275.24323248     A.U. after   10 cycles
 SCF Done:  E(RB3LYP) =  -1275.24324987     A.U. after   11 cycles
 SCF Done:  E(RB3LYP) =  -1275.24325498     A.U. after   10 cycles
 SCF Done:  E(RB3LYP) =  -1275.24325897     A.U. after    9 cycles
 SCF Done:  E(RB3LYP) =  -1275.24325929     A.U. after    8 cycles
 SCF Done:  E(RB3LYP) =  -1275.24325956     A.U. after    9 cycles
 SCF Done:  E(RB3LYP) =  -1275.24325970     A.U. after    8 cycles
 SCF Done:  E(RB3LYP) =  -1275.24325975     A.U. after    7 cycles
 Optimization completed.
    -- Stationary point found.
 Normal termination of Gaussian 16 at Sat Dec 12 15:01:25 2020.

 --------------------------------------------------------------------
 #N Geom=AllCheck Guess=TCheck SCRF=Check GenChk RB3LYP/6-31G(d) Freq
 --------------------------------------------------------------------

 Structure from the checkpoint file:  "JID_10143.chk"
 --------------------------------
 CID_115652793_JID_10143_neutraal
 --------------------------------
 Charge =  0 Multiplicity = 1

 SCF Done:  E(RB3LYP) =  -1275.24325975     A.U. after    1 cycles

  Exact polarizability: 281.987  -7.351 157.989  22.116  -0.313 110.505
 Approx polarizability: 367.377 -10.504 286.833  54.110  -1.769 180.643

                      1                      2                      3
                      A                      A                      A
 Frequencies --     12.9645                16.8308                22.1999
 Red. masses --      6.8308                 7.8312                 4.4960
 Frc consts  --      0.0007                 0.0013                 0.0013
 IR Inten    --      4.2583                 2.1089                 4.1603

                      4                      5                      6
                      A                      A                      A
 Frequencies --     44.3962                52.6219                92.9348
 Red. masses --      4.1485                 5.7868                 5.9804
 Frc consts  --      0.0048                 0.0094                 0.0304
 IR Inten    --      0.7709                 1.2212                 0.7862

                      7                      8                      9
                      A                      A                      A
 Frequencies --    107.9573               130.3497               142.2728
 Red. masses --      4.6462                 7.1497                 5.5598
 Frc consts  --      0.0319                 0.0716                 0.0663
 IR Inten    --      2.6363                 1.4217                 1.5188

                     10                     11                     12
                      A                      A                      A
 Frequencies --    168.1948               206.1756               208.5348
 Red. masses --      3.5077                 2.4484                 1.5354
 Frc consts  --      0.0585                 0.0613                 0.0393
 IR Inten    --      1.8515                 0.4928                 0.5602

                     13                     14                     15
                      A                      A                      A
 Frequencies --    221.4184               233.3091               271.9925
 Red. masses --      3.3875                 4.4857                 3.9015
 Frc consts  --      0.0978                 0.1439                 0.1701
 IR Inten    --      1.8432                 1.5169                 8.0343

                     16                     17                     18
                      A                      A                      A
 Frequencies --    294.7357               321.7528               336.9328
 Red. masses --      4.2507                 3.1470                 3.6091
 Frc consts  --      0.2176                 0.1920                 0.2414
 IR Inten    --      0.7138                 9.2817                 3.9137

                     19                     20                     21
                      A                      A                      A
 Frequencies --    372.9649               418.0525               433.7732
 Red. masses --      5.4875                 3.0317                 4.6130
 Frc consts  --      0.4497                 0.3122                 0.5114
 IR Inten    --      1.0093                 0.5150                 2.1747

                     22                     23                     24
                      A                      A                      A
 Frequencies --    456.0129               466.7167               485.3674
 Red. masses --      5.2585                 5.7077                 9.3662
 Frc consts  --      0.6443                 0.7325                 1.3000
 IR Inten    --      7.9214                 8.9300                 6.3005

                     25                     26                     27
                      A                      A                      A
 Frequencies --    517.1973               549.9597               566.3407
 Red. masses --      5.0554                 4.3762                 7.5919
 Frc consts  --      0.7967                 0.7798                 1.4347
 IR Inten    --     39.7957                59.3925                 3.4491

                     28                     29                     30
                      A                      A                      A
 Frequencies --    605.3620               631.6393               647.7806
 Red. masses --      6.6509                 3.9935                 6.9728
 Frc consts  --      1.4360                 0.9387                 1.7239
 IR Inten    --      7.8051                 3.6644                 0.4443

                     31                     32                     33
                      A                      A                      A
 Frequencies --    658.5970               672.6849               698.3938
 Red. masses --      6.6050                 4.1185                 2.5659
 Frc consts  --      1.6880                 1.0980                 0.7374
 IR Inten    --      0.5800                33.2753                30.7563

                     34                     35                     36
                      A                      A                      A
 Frequencies --    715.0621               760.5912               791.7223
 Red. masses --      4.2789                 4.9714                 1.7423
 Frc consts  --      1.2891                 1.6945                 0.6435
 IR Inten    --     26.1474                83.1206               107.8629

                     37                     38                     39
                      A                      A                      A
 Frequencies --    806.5518               830.8749               859.4958
 Red. masses --      1.2181                 2.0661                 1.9848
 Frc consts  --      0.4669                 0.8404                 0.8639
 IR Inten    --     27.8907                28.8399                 7.7748

                     40                     41                     42
                      A                      A                      A
 Frequencies --    869.4596               876.2205               952.4943
 Red. masses --      1.2737                 1.3420                 2.2347
 Frc consts  --      0.5673                 0.6070                 1.1945
 IR Inten    --      2.9155                 1.7140                 7.5406

                     43                     44                     45
                      A                      A                      A
 Frequencies --    977.2167               981.0836               986.8953
 Red. masses --      1.3923                 3.9831                 1.3641
 Frc consts  --      0.7834                 2.2588                 0.7828
 IR Inten    --     11.2252                 6.5151                 3.7912

                     46                     47                     48
                      A                      A                      A
 Frequencies --    989.9671               993.4797               996.9117
 Red. masses --      1.4379                 1.6540                 2.8618
 Frc consts  --      0.8303                 0.9618                 1.6757
 IR Inten    --     56.1495                 2.7802                 3.5869

                     49                     50                     51
                      A                      A                      A
 Frequencies --   1008.6384              1040.0890              1052.0470
 Red. masses --      2.0296                 3.5848                 1.3075
 Frc consts  --      1.2166                 2.2849                 0.8526
 IR Inten    --      9.7527                11.4861                25.3251

                     52                     53                     54
                      A                      A                      A
 Frequencies --   1095.0138              1114.4856              1141.3065
 Red. masses --      4.3257                 2.1507                 1.3799
 Frc consts  --      3.0560                 1.5739                 1.0590
 IR Inten    --     51.7288                27.5806                 9.3001

                     55                     56                     57
                      A                      A                      A
 Frequencies --   1144.6457              1173.3844              1212.0771
 Red. masses --      5.5300                 4.1957                 1.1672
 Frc consts  --      4.2689                 3.4036                 1.0103
 IR Inten    --    223.0324                43.2040                 0.0199

                     58                     59                     60
                      A                      A                      A
 Frequencies --   1213.6595              1230.8448              1237.4296
 Red. masses --      2.0610                 1.5243                 2.5263
 Frc consts  --      1.7886                 1.3606                 2.2791
 IR Inten    --      4.3354                11.3323                 4.0293

                     61                     62                     63
                      A                      A                      A
 Frequencies --   1253.8217              1262.1853              1308.7368
 Red. masses --      2.2969                 3.5435                 1.7235
 Frc consts  --      2.1275                 3.3261                 1.7393
 IR Inten    --     10.6329                 4.7404                37.4031

                     64                     65                     66
                      A                      A                      A
 Frequencies --   1318.3638              1340.8965              1361.1864
 Red. masses --      4.2260                 1.3871                 3.8015
 Frc consts  --      4.3277                 1.4695                 4.1499
 IR Inten    --    119.8821                 2.0451                 1.8202

                     67                     68                     69
                      A                      A                      A
 Frequencies --   1368.8683              1371.2071              1409.1942
 Red. masses --      1.8485                 1.2082                 1.7682
 Frc consts  --      2.0408                 1.3385                 2.0688
 IR Inten    --     48.0189                 9.9327                21.8014

                     70                     71                     72
                      A                      A                      A
 Frequencies --   1429.7610              1458.3860              1481.4352
 Red. masses --      2.1341                 2.2722                 1.0531
 Frc consts  --      2.5703                 2.8474                 1.3617
 IR Inten    --      3.1435                24.5498                 7.1862

                     73                     74                     75
                      A                      A                      A
 Frequencies --   1483.5031              1494.8966              1516.6104
 Red. masses --      1.0505                 1.1036                 1.2530
 Frc consts  --      1.3621                 1.4531                 1.6981
 IR Inten    --      3.1402                 7.3449                48.4805

                     76                     77                     78
                      A                      A                      A
 Frequencies --   1538.3395              1545.7719              1564.3688
 Red. masses --      1.4186                 1.5413                 7.6182
 Frc consts  --      1.9780                 2.1699                10.9845
 IR Inten    --     12.3272                 0.6726                38.3072

                     79                     80                     81
                      A                      A                      A
 Frequencies --   1634.5884              1636.0047              1660.5828
 Red. masses --      6.4862                 6.1472                 5.6399
 Frc consts  --     10.2108                 9.6939                 9.1631
 IR Inten    --      2.8239                 1.3077                17.5937

                     82                     83                     84
                      A                      A                      A
 Frequencies --   2348.9956              2990.4803              3035.6810
 Red. masses --     12.6526                 1.0672                 1.0930
 Frc consts  --     41.1333                 5.6233                 5.9344
 IR Inten    --     69.3344                43.4225                20.1626

                     85                     86                     87
                      A                      A                      A
 Frequencies --   3042.3192              3083.0406              3083.3194
 Red. masses --      1.0621                 1.0290                 1.1014
 Frc consts  --      5.7922                 5.7625                 6.1692
 IR Inten    --     24.4200                 0.4894                11.0152

                     88                     89                     90
                      A                      A                      A
 Frequencies --   3184.0408              3189.7217              3190.7100
 Red. masses --      1.1063                 1.0895                 1.1081
 Frc consts  --      6.6080                 6.5312                 6.6464
 IR Inten    --      0.8315                11.7187                 1.0424

                     91                     92                     93
                      A                      A                      A
 Frequencies --   3215.4525              3226.1430              3228.4151
 Red. masses --      1.0878                 1.0925                 1.0945
 Frc consts  --      6.6265                 6.6993                 6.7214
 IR Inten    --      0.5935                 1.3038                 1.4909

                     94                     95                     96
                      A                      A                      A
 Frequencies --   3271.8252              3287.5103              3502.3987
 Red. masses --      1.0939                 1.1008                 1.0742
 Frc consts  --      6.8996                 7.0095                 7.7640
 IR Inten    --      4.5456                 0.0896                 0.2787

 - Thermochemistry -
 -------------------
 Temperature   298.150 Kelvin.  Pressure   1.00000 Atm.
 Atom     1 has atomic number  6 and mass  12.00000

 Molecular mass:   290.07251 amu.
 Principal axes and moments of inertia in atomic units:
                           1         2         3
     Eigenvalues --  1446.27161********************
           X            0.99998  -0.00018  -0.00696
           Y            0.00021   0.99999   0.00331
           Z            0.00696  -0.00331   0.99997
 This molecule is an asymmetric top.
 Rotational symmetry number  1.
 Warning -- assumption of classical behavior for rotation
           may cause significant error
 Rotational temperatures (Kelvin)      0.05989     0.00411     0.00400
 Rotational constants (GHZ):           1.24786     0.08565     0.08325
 Zero-point vibrational energy     690465.6 (Joules/Mol)
                                  165.02523 (Kcal/Mol)
 Warning -- explicit consideration of  28 degrees of freedom as
           vibrations may cause significant error
 Vibrational temperatures:     18.65    24.22    31.94    63.88    75.71
          (Kelvin)            133.71   155.33   187.54   204.70   241.99
                              296.64   300.04   318.57   335.68   391.34
                              424.06   462.93   484.77   536.61   601.48
                              624.10   656.10   671.50   698.34   744.13
                              791.27   814.84   870.98   908.79   932.01
                              947.57   967.84  1004.83  1028.81  1094.32
                             1139.11  1160.45  1195.44  1236.62  1250.96
                             1260.69  1370.43  1406.00  1411.56  1419.92
                             1424.34  1429.40  1434.33  1451.21  1496.46
                             1513.66  1575.48  1603.50  1642.09  1646.89
                             1688.24  1743.91  1746.19  1770.91  1780.39
                             1803.97  1816.00  1882.98  1896.83  1929.25
                             1958.44  1969.50  1972.86  2027.52  2057.11
                             2098.29  2131.45  2134.43  2150.82  2182.06
                             2213.33  2224.02  2250.78  2351.81  2353.85
                             2389.21  3379.68  4302.63  4367.67  4377.22
                             4435.81  4436.21  4581.12  4589.30  4590.72
                             4626.32  4641.70  4644.97  4707.43  4729.99
                             5039.17

 Zero-point correction=                           0.262984 (Hartree/Particle)
 Thermal correction to Energy=                    0.281743
 Thermal correction to Enthalpy=                  0.282687
 Thermal correction to Gibbs Free Energy=         0.211788
 Sum of electronic and zero-point Energies=          -1274.980275
 Sum of electronic and thermal Energies=             -1274.961517
 Sum of electronic and thermal Enthalpies=           -1274.960573
 Sum of electronic and thermal Free Energies=        -1275.031472

                     E (Thermal)             CV                S
                      KCal/Mol        Cal/Mol-Kelvin    Cal/Mol-Kelvin
 Total                  176.796             69.612            149.219
 Electronic               0.000              0.000              0.000
 Translational            0.889              2.981             42.892
 Rotational               0.889              2.981             34.845
 Vibrational            175.019             63.651             71.481
 Vibration     1          0.593              1.987              7.495
 Vibration     2          0.593              1.986              6.977
 Vibration     3          0.593              1.985              6.427
 Vibration     4          0.595              1.980              5.053
 Vibration     5          0.596              1.977              4.716
 Vibration     6          0.602              1.954              3.597
 Vibration     7          0.606              1.943              3.305
 Vibration     8          0.612              1.923              2.941
 Vibration     9          0.616              1.911              2.773
 Vibration    10          0.625              1.882              2.456
 Vibration    11          0.641              1.831              2.077
 Vibration    12          0.642              1.828              2.056
 Vibration    13          0.648              1.808              1.947
 Vibration    14          0.654              1.790              1.853
 Vibration    15          0.675              1.725              1.584
 Vibration    16          0.689              1.684              1.447
 Vibration    17          0.707              1.632              1.301
 Vibration    18          0.718              1.602              1.227
 Vibration    19          0.744              1.528              1.068
 Vibration    20          0.781              1.431              0.899
 Vibration    21          0.795              1.397              0.846
 Vibration    22          0.814              1.348              0.778
 Vibration    23          0.824              1.324              0.747
 Vibration    24          0.841              1.282              0.696
 Vibration    25          0.872              1.212              0.616
 Vibration    26          0.905              1.140              0.544
 Vibration    27          0.922              1.104              0.511
 Vibration    28          0.964              1.020              0.441

 Optimization completed.
    -- Stationary point found.
 Normal termination of Gaussian 16 at Sat Dec 12 15:15:45 2020.

 ----------------------------------------------------------------------
 # B3LYP/6-311++G(d,p) empiricaldispersion=gd3bj scf=xqc pop=npa geom=c
 heck
 ----------------------------------------------------------------------

 ----------------------------------------
 CID_115652793_JID_10143_Energie_neutraal
 ----------------------------------------
 Structure from the checkpoint file:  "JID_10143.chk"
 Charge =  0 Multiplicity = 1

 SCF Done:  E(RB3LYP) =  -1275.51104833     A.U. after   17 cycles
 Normal termination of Gaussian 16 at Sat Dec 12 15:23:03 2020.

 ----------------------------------------------------------------------
 # B3LYP/6-311++G(d,p) empiricaldispersion=gd3bj scf=xqc pop=npa geom=c
 heck
 ----------------------------------------------------------------------

 --------------------------------------
 CID_115652793_JID_10143_Energie_kation
 --------------------------------------
 Structure from the checkpoint file:  "JID_10143.chk"
 Charge =  1 Multiplicity = 2

 SCF Done:  E(UB3LYP) =  -1275.19124931     A.U. after   33 cycles
 SCF Done:  E(UB3LYP) =  -1275.19124931     a.u. after    1 cycles
 Normal termination of Gaussian 16 at Sat Dec 12 15:44:04 2020.
 Gaussian 16:  ES64L-G16RevA.03 25-Dec-2016

 ----------------------------------------------------------------------
 # B3LYP/6-311++G(d,p) empiricaldispersion=gd3bj scf=xqc pop=npa geom=c
 heck
 ----------------------------------------------------------------------

 -------------------------------------
 CID_115652793_JID_10143_Energie_anion
 -------------------------------------
 Structure from the checkpoint file:  "JID_10143.chk"
 Charge = -1 Multiplicity = 2

                         Standard orientation:
 ---------------------------------------------------------------------
 Center     Atomic      Atomic             Coordinates (Angstroms)
 Number     Number       Type             X           Y           Z
 ---------------------------------------------------------------------
      1          6           0       -5.765762   -0.012020    1.414429
      2         16           0       -5.077816   -0.323984   -0.227870
      3          8           0       -5.306136   -1.742856   -0.542099
      4          8           0       -5.557434    0.743288   -1.119191
      5          6           0       -3.316136   -0.089351    0.018665
      6          6           0       -2.766191    1.183043   -0.142494
      7          6           0       -1.400849    1.361262    0.062337
      8          6           0       -0.586314    0.277927    0.419383
      9          6           0       -1.158729   -0.991404    0.558852
     10          6           0       -2.524969   -1.183770    0.363409
     11          6           0        0.893960    0.477145    0.656469
     12          7           0        1.460245    1.419527   -0.307689
     13          6           0        2.874255    1.702930   -0.123714
     14          6           0        3.795753    0.531192   -0.326885
     15          6           0        3.673572   -0.654642   -1.001264
     16          6           0        4.916988   -1.337686   -0.858552
     17          6           0        5.717693   -0.521161   -0.104003
     18          8           0        5.035399    0.626781    0.227345
     19          6           0        7.042400   -0.659131    0.365548
     20          7           0        8.135676   -0.794153    0.742721
     21          1           0       -6.847408   -0.139942    1.327565
     22          1           0       -5.525059    1.009812    1.713096
     23          1           0       -5.350843   -0.736292    2.117654
     24          1           0       -3.401855    2.009327   -0.442941
     25          1           0       -0.946641    2.337645   -0.069495
     26          1           0       -0.527805   -1.838906    0.813990
     27          1           0       -2.973638   -2.167855    0.446895
     28          1           0        1.050719    0.910163    1.655085
     29          1           0        1.396917   -0.503666    0.666572
     30          1           0        1.276833    1.101684   -1.257325
     31          1           0        3.155658    2.511144   -0.811845
     32          1           0        3.026096    2.095785    0.889178
     33          1           0        2.800473   -1.001683   -1.535060
     34          1           0        5.191516   -2.304786   -1.254202
 ---------------------------------------------------------------------

 SCF Done:  E(UB3LYP) =  -1275.52940361     A.U. after   30 cycles

 The electronic state is 2-A.
 Alpha  occ. eigenvalues --  -88.94451 -19.08894 -19.01255 -19.01246 -14.21535
 Alpha  occ. eigenvalues --  -14.20069 -10.13865 -10.12884 -10.11954 -10.11847
 Alpha  occ. eigenvalues --  -10.10344 -10.10154 -10.08678 -10.08117 -10.08052
 Alpha  occ. eigenvalues --  -10.07912 -10.07777 -10.07585 -10.07145 -10.07032
 Alpha  occ. eigenvalues --   -8.00834  -5.97123  -5.97019  -5.96922  -1.01917
 Alpha  occ. eigenvalues --   -1.00538  -0.90342  -0.82718  -0.79865  -0.76394
 Alpha  occ. eigenvalues --   -0.71202  -0.69871  -0.68493  -0.66403  -0.65157
 Alpha  occ. eigenvalues --   -0.61354  -0.57192  -0.53149  -0.52432  -0.51483
 Alpha  occ. eigenvalues --   -0.48777  -0.47705  -0.45841  -0.43453  -0.41102
 Alpha  occ. eigenvalues --   -0.39118  -0.38653  -0.38090  -0.37204  -0.36956
 Alpha  occ. eigenvalues --   -0.35611  -0.35286  -0.34986  -0.33726  -0.33169
 Alpha  occ. eigenvalues --   -0.32811  -0.32665  -0.31196  -0.30708  -0.29460
 Alpha  occ. eigenvalues --   -0.28602  -0.26842  -0.26284  -0.25750  -0.25303
 Alpha  occ. eigenvalues --   -0.24899  -0.23448  -0.23431  -0.22276  -0.20703
 Alpha  occ. eigenvalues --   -0.19614  -0.19288  -0.16462  -0.16349  -0.14503
 Alpha  occ. eigenvalues --   -0.13600   0.02809
 Alpha virt. eigenvalues --    0.04317   0.06265   0.07192   0.07815   0.08016
 Alpha virt. eigenvalues --    0.08488   0.08926   0.09228   0.10086   0.10423
 Alpha virt. eigenvalues --    0.10822   0.11203   0.11711   0.11801   0.12229

  Beta  occ. eigenvalues --  -88.94445 -19.08709 -19.01234 -19.01223 -14.21518
  Beta  occ. eigenvalues --  -14.19865 -10.13738 -10.12684 -10.11969 -10.11832
  Beta  occ. eigenvalues --  -10.10367 -10.10130 -10.08466 -10.08004 -10.07999
  Beta  occ. eigenvalues --  -10.07948 -10.07675 -10.07615 -10.07043 -10.06835
  Beta  occ. eigenvalues --   -8.00828  -5.97120  -5.96993  -5.96920  -1.01603
  Beta  occ. eigenvalues --   -1.00448  -0.90281  -0.82657  -0.79555  -0.76097
  Beta  occ. eigenvalues --   -0.70977  -0.69575  -0.68265  -0.66097  -0.64941
  Beta  occ. eigenvalues --   -0.61161  -0.56947  -0.52995  -0.52187  -0.51395
  Beta  occ. eigenvalues --   -0.48574  -0.47428  -0.45679  -0.43354  -0.40954
  Beta  occ. eigenvalues --   -0.38960  -0.38464  -0.37961  -0.36931  -0.36554
  Beta  occ. eigenvalues --   -0.35464  -0.35138  -0.34724  -0.33646  -0.33077
  Beta  occ. eigenvalues --   -0.32755  -0.32564  -0.31064  -0.30518  -0.29235
  Beta  occ. eigenvalues --   -0.28450  -0.26230  -0.25939  -0.25538  -0.24871
  Beta  occ. eigenvalues --   -0.24360  -0.23376  -0.23311  -0.22246  -0.20629
  Beta  occ. eigenvalues --   -0.19171  -0.18879  -0.15773  -0.15448  -0.14145
  Beta  occ. eigenvalues --   -0.12520
  Beta virt. eigenvalues --    0.06107   0.06762   0.06823   0.07264   0.07959
  Beta virt. eigenvalues --    0.08033   0.08569   0.08920   0.09203   0.10081
  Beta virt. eigenvalues --    0.10334   0.10851   0.11226   0.11639   0.11820

 Mulliken charges and spin densities:
               1          2
     1  C   -0.642314   0.019052
     2  S    0.617984  -0.044151
     3  O   -0.206632  -0.008541
     4  O   -0.205212  -0.004527
     5  C    0.284408   0.181634
     6  C   -0.557635   0.110638
     7  C   -0.580712   0.105762
     8  C    1.128664   0.217891
     9  C   -0.539371  -0.026575
    10  C   -0.493710   0.133253
    11  C   -0.956416  -0.292884
    12  N    0.015361  -0.002625
    13  C   -0.729893  -0.075893
    14  C    0.129219   0.134326
    15  C    0.114391  -0.044345
    16  C   -0.232673   0.141954
    17  C    1.077244   0.106106
    18  O    0.007202   0.039242
    19  C   -1.172843  -0.020505
    20  N   -0.321019   0.104305
    21  H    0.198446  -0.000827
    22  H    0.184238   0.015250
    23  H    0.179497   0.018955
    24  H    0.182090   0.014040
    25  H    0.180223   0.011167
    26  H    0.110838   0.023065
    27  H    0.189380   0.007496
    28  H    0.054630   0.083362
    29  H    0.136192  -0.006526
    30  H    0.201669   0.006655
    31  H    0.188128   0.008872
    32  H    0.141476   0.048275
    33  H    0.157406   0.004422
    34  H    0.159746  -0.008323
 Sum of Mulliken charges =  -1.00000   1.00000

 Dipole moment (field-independent basis, Debye):
    X=             -6.1420    Y=              1.4619    Z=              1.3666  Tot=              6.4598
 Quadrupole moment (field-independent basis, Debye-Ang):
   XX=           -314.2151   YY=           -137.7101   ZZ=           -135.0467
   XY=              1.8057   XZ=            -33.1930   YZ=              0.7322

 Summary of Natural Population Analysis:

                                       Natural Population
                Natural  -----------------------------------------------
    Atom  No    Charge         Core      Valence    Rydberg      Total
 -----------------------------------------------------------------------
      C    1   -0.38858      0.99962     2.38288    0.00609     3.38858
      S    2    1.03483      4.99921     1.86919    0.09677     6.96517
      O    3   -0.47323      0.99991     3.46772    0.00560     4.47323
      O    4   -0.47303      0.99991     3.46751    0.00560     4.47303
      C    5   -0.11778      0.99937     2.10144    0.01698     3.11778
      C    6   -0.08561      0.99951     2.07590    0.01019     3.08561
      C    7   -0.10476      0.99952     2.09598    0.00926     3.10476
      C    8    0.03515      0.99951     1.95641    0.00893     2.96485
      C    9   -0.11202      0.99953     2.10305    0.00944     3.11202
      C   10   -0.07447      0.99951     2.06467    0.01029     3.07447
      C   11   -0.09630      0.99960     2.08644    0.01027     3.09630
      N   12   -0.33317      0.99976     2.82207    0.01134     3.83317
      C   13   -0.10686      0.99959     2.09732    0.00995     3.10686
      C   14    0.19208      0.99948     1.79575    0.01269     2.80792
      C   15   -0.17986      0.99951     2.17267    0.00769     3.17986
      C   16   -0.08785      0.99954     2.08079    0.00752     3.08785
      C   17    0.08510      0.99936     1.90165    0.01389     2.91490
      O   18   -0.21442      0.99985     3.20672    0.00785     4.21442
      C   19    0.12950      0.99963     1.85449    0.01637     2.87050
      N   20   -0.15854      0.99979     2.64983    0.00892     3.65854
      H   21    0.11156      0.00000     0.38747    0.00097     0.38844
      H   22    0.11121      0.00000     0.38705    0.00174     0.38879
      H   23    0.11135      0.00000     0.38687    0.00179     0.38865
      H   24    0.10825      0.00000     0.39038    0.00137     0.39175
      H   25    0.10652      0.00000     0.39214    0.00135     0.39348
      H   26    0.09806      0.00000     0.40077    0.00117     0.40194
      H   27    0.10856      0.00000     0.39011    0.00133     0.39144
      H   28    0.09799      0.00000     0.40059    0.00142     0.40201
      H   29    0.08535      0.00000     0.41164    0.00301     0.41465
      H   30    0.17318      0.00000     0.32488    0.00194     0.32682
      H   31    0.10227      0.00000     0.39661    0.00112     0.39773
      H   32    0.10196      0.00000     0.39683    0.00122     0.39804
      H   33    0.10818      0.00000     0.39083    0.00099     0.39182
      H   34    0.10541      0.00000     0.39384    0.00075     0.39459
 =======================================================================
   * Total *    0.00000     23.99170    51.70249    0.30580    76.00000

 Normal termination of Gaussian 16 at Sat Dec 12 16:03:13 2020.
