 Gaussian 16, Revision A.03,

 -----------------------------------------------------------
 # opt freq B3LYP/6-31G(d) empiricaldispersion=gd3bj scf=xqc
 -----------------------------------------------------------

 -------------------------------
 CID_150355923_JID_7679_neutraal
 -------------------------------
 Symbolic Z-matrix:
 Charge =  0 Multiplicity = 1

 SCF Done:  E(RB3LYP) =  -850.212339371     A.U. after   15 cycles
 SCF Done:  E(RB3LYP) =  -850.228080480     A.U. after   13 cycles
 SCF Done:  E(RB3LYP) =  -850.229678161     A.U. after   13 cycles
 SCF Done:  E(RB3LYP) =  -850.231148544     A.U. after   12 cycles
 SCF Done:  E(RB3LYP) =  -850.231596369     A.U. after   12 cycles
 SCF Done:  E(RB3LYP) =  -850.231844662     A.U. after   12 cycles
 SCF Done:  E(RB3LYP) =  -850.232023466     A.U. after   11 cycles
 SCF Done:  E(RB3LYP) =  -850.232318683     A.U. after   12 cycles
 SCF Done:  E(RB3LYP) =  -850.232572967     A.U. after   12 cycles
 SCF Done:  E(RB3LYP) =  -850.232779845     A.U. after   12 cycles
 SCF Done:  E(RB3LYP) =  -850.233157426     A.U. after   11 cycles
 SCF Done:  E(RB3LYP) =  -850.233158303     A.U. after   10 cycles
 SCF Done:  E(RB3LYP) =  -850.233158410     A.U. after    7 cycles
 SCF Done:  E(RB3LYP) =  -850.233158536     A.U. after    7 cycles
 SCF Done:  E(RB3LYP) =  -850.233158572     A.U. after    7 cycles
 Optimization completed.
    -- Stationary point found.
 Normal termination of Gaussian 16 at Fri Dec 11 13:23:10 2020.

 --------------------------------------------------------------------
 #N Geom=AllCheck Guess=TCheck SCRF=Check GenChk RB3LYP/6-31G(d) Freq
 --------------------------------------------------------------------

 Structure from the checkpoint file:  "JID_7679.chk"
 -------------------------------
 CID_150355923_JID_7679_neutraal
 -------------------------------
 Charge =  0 Multiplicity = 1

 SCF Done:  E(RB3LYP) =  -850.233158572     A.U. after    1 cycles

  Exact polarizability: 184.816  27.812 136.764 -14.307  12.136 101.068
 Approx polarizability: 290.861  71.804 225.752 -21.978  35.748 164.759

                      1                      2                      3
                      A                      A                      A
 Frequencies --     23.2864                46.8450                66.5882
 Red. masses --      5.7373                 4.8511                 5.2763
 Frc consts  --      0.0018                 0.0063                 0.0138
 IR Inten    --      0.7833                 1.4159                 0.4892

                      4                      5                      6
                      A                      A                      A
 Frequencies --    104.9547               119.3195               144.7371
 Red. masses --      3.6132                 1.5082                 2.5068
 Frc consts  --      0.0235                 0.0127                 0.0309
 IR Inten    --      1.4631                 3.5780                 0.7670

                      7                      8                      9
                      A                      A                      A
 Frequencies --    169.3765               199.8061               215.2794
 Red. masses --      4.8137                 3.9886                 5.4229
 Frc consts  --      0.0814                 0.0938                 0.1481
 IR Inten    --      0.9829                 3.5333                 0.8293

                     10                     11                     12
                      A                      A                      A
 Frequencies --    229.9020               248.6776               268.3910
 Red. masses --      3.5104                 3.6103                 2.3410
 Frc consts  --      0.1093                 0.1315                 0.0994
 IR Inten    --      9.4062                11.7586                20.9389

                     13                     14                     15
                      A                      A                      A
 Frequencies --    289.1671               352.2319               392.9794
 Red. masses --      1.6626                 2.9143                 3.8040
 Frc consts  --      0.0819                 0.2130                 0.3461
 IR Inten    --     40.0087                 6.2089                 1.9903

                     16                     17                     18
                      A                      A                      A
 Frequencies --    411.9037               435.7579               450.0673
 Red. masses --      2.9635                 2.0380                 4.7415
 Frc consts  --      0.2962                 0.2280                 0.5659
 IR Inten    --     32.3742                36.3672                 2.1699

                     19                     20                     21
                      A                      A                      A
 Frequencies --    455.4988               480.9036               495.2659
 Red. masses --      4.7222                 2.1556                 5.5244
 Frc consts  --      0.5773                 0.2937                 0.7984
 IR Inten    --      1.1924                56.0734                 8.7465

                     22                     23                     24
                      A                      A                      A
 Frequencies --    503.2125               561.4654               609.7017
 Red. masses --      4.0325                 3.4396                 5.1659
 Frc consts  --      0.6016                 0.6389                 1.1314
 IR Inten    --      5.8505                 6.3218                 4.2475

                     25                     26                     27
                      A                      A                      A
 Frequencies --    624.7853               646.9972               669.7081
 Red. masses --      4.3704                 2.2079                 3.3419
 Frc consts  --      1.0052                 0.5445                 0.8831
 IR Inten    --     17.4437                51.3141                72.2774

                     28                     29                     30
                      A                      A                      A
 Frequencies --    719.3720               726.6450               764.6525
 Red. masses --      2.8460                 6.7009                 6.3392
 Frc consts  --      0.8678                 2.0846                 2.1838
 IR Inten    --     17.9513                14.3556                16.2606

                     31                     32                     33
                      A                      A                      A
 Frequencies --    771.0083               794.4315               884.6060
 Red. masses --      5.3508                 5.4685                 1.4911
 Frc consts  --      1.8741                 2.0334                 0.6875
 IR Inten    --     10.6551                19.5535                14.5878

                     34                     35                     36
                      A                      A                      A
 Frequencies --    886.4252               899.8288               926.0124
 Red. masses --      2.5015                 4.2862                 2.2844
 Frc consts  --      1.1581                 2.0447                 1.1541
 IR Inten    --    107.4789                 5.3733               152.4314

                     37                     38                     39
                      A                      A                      A
 Frequencies --    939.0241               966.1836               975.7217
 Red. masses --      3.7121                 2.7403                 1.4625
 Frc consts  --      1.9285                 1.5072                 0.8204
 IR Inten    --     52.1189                94.8681                 2.2233

                     40                     41                     42
                      A                      A                      A
 Frequencies --    993.7940              1053.9456              1082.8490
 Red. masses --      2.7219                 1.8066                 3.5080
 Frc consts  --      1.5839                 1.1823                 2.4235
 IR Inten    --      6.5061                 4.6957               198.4121

                     43                     44                     45
                      A                      A                      A
 Frequencies --   1123.8461              1159.7675              1172.2536
 Red. masses --      5.1354                 3.8086                 1.9869
 Frc consts  --      3.8216                 3.0183                 1.6087
 IR Inten    --     37.0002                89.5146               136.9675

                     46                     47                     48
                      A                      A                      A
 Frequencies --   1191.4529              1197.3358              1199.7207
 Red. masses --      1.3215                 3.8954                 8.5545
 Frc consts  --      1.1053                 3.2903                 7.2544
 IR Inten    --     13.0560                17.2067                11.6594

                     49                     50                     51
                      A                      A                      A
 Frequencies --   1243.8647              1265.3355              1297.8906
 Red. masses --      1.6247                 1.9807                 1.5688
 Frc consts  --      1.4811                 1.8684                 1.5570
 IR Inten    --     25.4240                 5.9387                 5.8857

                     52                     53                     54
                      A                      A                      A
 Frequencies --   1315.2644              1330.1996              1338.9556
 Red. masses --      1.5093                 1.5312                 1.2021
 Frc consts  --      1.5383                 1.5964                 1.2698
 IR Inten    --      8.7284                57.8474                 1.7084

                     55                     56                     57
                      A                      A                      A
 Frequencies --   1359.6012              1385.1417              1427.8816
 Red. masses --      1.5950                 1.5693                 1.2688
 Frc consts  --      1.7372                 1.7739                 1.5241
 IR Inten    --      0.6114                 1.4151                12.8265

                     58                     59                     60
                      A                      A                      A
 Frequencies --   1446.5200              1454.8493              1469.3223
 Red. masses --      2.9357                 1.2122                 2.4737
 Frc consts  --      3.6192                 1.5117                 3.1465
 IR Inten    --     47.0020                13.0734               133.6092

                     61                     62                     63
                      A                      A                      A
 Frequencies --   1500.2832              1512.7237              1514.1538
 Red. masses --      1.1507                 1.1571                 1.0582
 Frc consts  --      1.5260                 1.5601                 1.4294
 IR Inten    --      3.2132                 3.3606                 2.8916

                     64                     65                     66
                      A                      A                      A
 Frequencies --   1537.7239              1548.3261              1560.4626
 Red. masses --      1.0533                 1.1082                 3.2756
 Frc consts  --      1.4674                 1.5652                 4.6995
 IR Inten    --      7.2509                 4.8709                20.5784

                     67                     68                     69
                      A                      A                      A
 Frequencies --   1594.2752              1635.2287              1689.1526
 Red. masses --      4.2681                 4.7852                 1.1068
 Frc consts  --      6.3916                 7.5389                 1.8607
 IR Inten    --     77.9485               219.7912                33.2522

                     70                     71                     72
                      A                      A                      A
 Frequencies --   1707.1511              1797.5419              3034.0036
 Red. masses --      7.3296                 9.1613                 1.0362
 Frc consts  --     12.5856                17.4407                 5.6199
 IR Inten    --    510.4794               535.8889                51.3244

                     73                     74                     75
                      A                      A                      A
 Frequencies --   3053.1441              3061.3470              3100.4049
 Red. masses --      1.0672                 1.0608                 1.1021
 Frc consts  --      5.8612                 5.8575                 6.2419
 IR Inten    --     48.9407                43.4555                32.0190

                     76                     77                     78
                      A                      A                      A
 Frequencies --   3121.7379              3146.0551              3147.2877
 Red. masses --      1.1075                 1.0971                 1.0904
 Frc consts  --      6.3588                 6.3980                 6.3634
 IR Inten    --     41.3640                19.1087                19.7877

                     79                     80                     81
                      A                      A                      A
 Frequencies --   3156.8660              3204.2084              3456.4527
 Red. masses --      1.1029                 1.0914                 1.0499
 Frc consts  --      6.4758                 6.6019                 7.3900
 IR Inten    --     19.5501                 7.9912                 1.7243

                     82                     83                     84
                      A                      A                      A
 Frequencies --   3528.8341              3543.7588              3574.7239
 Red. masses --      1.0772                 1.0916                 1.0775
 Frc consts  --      7.9033                 8.0771                 8.1125
 IR Inten    --    148.3333                 1.2977                36.4512

 - Thermochemistry -
 -------------------
 Temperature   298.150 Kelvin.  Pressure   1.00000 Atm.
 Atom     1 has atomic number  6 and mass  12.00000

 Molecular mass:   239.10184 amu.
 Principal axes and moments of inertia in atomic units:
                           1         2         3
     Eigenvalues --  2499.387695081.578236373.39073
           X            0.99955  -0.02928  -0.00651
           Y            0.02918   0.99948  -0.01402
           Z            0.00692   0.01383   0.99988
 This molecule is an asymmetric top.
 Rotational symmetry number  1.
 Warning -- assumption of classical behavior for rotation
           may cause significant error
 Rotational temperatures (Kelvin)      0.03465     0.01704     0.01359
 Rotational constants (GHZ):           0.72207     0.35515     0.28317
 Zero-point vibrational energy     632264.4 (Joules/Mol)
                                  151.11483 (Kcal/Mol)
 Warning -- explicit consideration of  24 degrees of freedom as
           vibrations may cause significant error
 Vibrational temperatures:     33.50    67.40    95.81   151.01   171.67
          (Kelvin)            208.24   243.70   287.48   309.74   330.78
                              357.79   386.15   416.05   506.78   565.41
                              592.64   626.96   647.55   655.36   691.91
                              712.58   724.01   807.82   877.22   898.93
                              930.88   963.56  1035.02  1045.48  1100.16
                             1109.31  1143.01  1272.75  1275.37  1294.65
                             1332.33  1351.05  1390.12  1403.85  1429.85
                             1516.39  1557.98  1616.96  1668.65  1686.61
                             1714.23  1722.70  1726.13  1789.64  1820.54
                             1867.38  1892.37  1913.86  1926.46  1956.16
                             1992.91  2054.40  2081.22  2093.20  2114.03
                             2158.57  2176.47  2178.53  2212.44  2227.70
                             2245.16  2293.81  2352.73  2430.31  2456.21
                             2586.26  4365.25  4392.79  4404.60  4460.79
                             4491.48  4526.47  4528.25  4542.03  4610.14
                             4973.06  5077.21  5098.68  5143.23

 Zero-point correction=                           0.240817 (Hartree/Particle)
 Thermal correction to Energy=                    0.256236
 Thermal correction to Enthalpy=                  0.257180
 Thermal correction to Gibbs Free Energy=         0.197459
 Sum of electronic and zero-point Energies=           -849.992342
 Sum of electronic and thermal Energies=              -849.976923
 Sum of electronic and thermal Enthalpies=            -849.975979
 Sum of electronic and thermal Free Energies=         -850.035700

                     E (Thermal)             CV                S
                      KCal/Mol        Cal/Mol-Kelvin    Cal/Mol-Kelvin
 Total                  160.790             58.884            125.694
 Electronic               0.000              0.000              0.000
 Translational            0.889              2.981             42.316
 Rotational               0.889              2.981             32.759
 Vibrational            159.013             52.922             50.618
 Vibration     1          0.593              1.985              6.332
 Vibration     2          0.595              1.979              4.946
 Vibration     3          0.598              1.970              4.252
 Vibration     4          0.605              1.945              3.360
 Vibration     5          0.609              1.933              3.111
 Vibration     6          0.616              1.908              2.740
 Vibration     7          0.625              1.880              2.442
 Vibration     8          0.638              1.840              2.135
 Vibration     9          0.645              1.818              1.998
 Vibration    10          0.652              1.795              1.880
 Vibration    11          0.662              1.765              1.740
 Vibration    12          0.673              1.731              1.607
 Vibration    13          0.686              1.694              1.479
 Vibration    14          0.729              1.571              1.156
 Vibration    15          0.760              1.485              0.989
 Vibration    16          0.776              1.444              0.920
 Vibration    17          0.796              1.392              0.840
 Vibration    18          0.809              1.361              0.796
 Vibration    19          0.814              1.349              0.779
 Vibration    20          0.837              1.292              0.708
 Vibration    21          0.851              1.261              0.670
 Vibration    22          0.859              1.243              0.650
 Vibration    23          0.917              1.115              0.521
 Vibration    24          0.969              1.011              0.433

                           ! Non-Optimized Parameters !
 Normal termination of Gaussian 16 at Fri Dec 11 13:35:22 2020.

 ----------------------------------------------------------------------
 # B3LYP/6-311++G(d,p) empiricaldispersion=gd3bj scf=xqc pop=npa geom=c
 heck
 ----------------------------------------------------------------------

 ---------------------------------------
 CID_150355923_JID_7679_Energie_neutraal
 ---------------------------------------
 Structure from the checkpoint file:  "JID_7679.chk"
 Charge =  0 Multiplicity = 1

 SCF Done:  E(RB3LYP) =  -850.485356207     A.U. after   17 cycles
 Normal termination of Gaussian 16 at Fri Dec 11 13:41:35 2020.

 ----------------------------------------------------------------------
 # B3LYP/6-311++G(d,p) empiricaldispersion=gd3bj scf=xqc pop=npa geom=c
 heck
 ----------------------------------------------------------------------

 -------------------------------------
 CID_150355923_JID_7679_Energie_kation
 -------------------------------------
 Structure from the checkpoint file:  "JID_7679.chk"
 Charge =  1 Multiplicity = 2

 SCF Done:  E(UB3LYP) =  -850.198647881     A.U. after   25 cycles
 Normal termination of Gaussian 16 at Fri Dec 11 13:54:31 2020.
 Gaussian 16:  ES64L-G16RevA.03 25-Dec-2016

 ----------------------------------------------------------------------
 # B3LYP/6-311++G(d,p) empiricaldispersion=gd3bj scf=xqc pop=npa geom=c
 heck
 ----------------------------------------------------------------------

 ------------------------------------
 CID_150355923_JID_7679_Energie_anion
 ------------------------------------
 Structure from the checkpoint file:  "JID_7679.chk"
 Charge = -1 Multiplicity = 2

                         Standard orientation:
 ---------------------------------------------------------------------
 Center     Atomic      Atomic             Coordinates (Angstroms)
 Number     Number       Type             X           Y           Z
 ---------------------------------------------------------------------
      1          6           0       -3.136458    2.605538    0.088159
      2          8           0       -1.897079    1.942641   -0.151292
      3          6           0       -1.953603    1.013524   -1.213715
      4          8           0       -2.762084   -0.104368   -0.952604
      5          6           0       -2.558005   -0.777390    0.280401
      6          6           0       -1.137052   -1.303703    0.561289
      7          7           0       -0.252458   -0.156773    0.883627
      8          6           0        0.999231   -0.079150    0.384761
      9          6           0        1.484596   -1.047100   -0.496745
     10          6           0        0.528073   -2.025371   -0.957080
     11          7           0       -0.689820   -2.124691   -0.551051
     12          7           0        2.750586   -0.987721   -0.996875
     13          6           0        3.536744   -0.008484   -0.645258
     14          6           0        3.149156    1.082063    0.247855
     15          8           0        3.835301    2.031101    0.595961
     16          7           0        1.816748    0.954613    0.717414
     17          7           0       -1.244756   -2.096850    1.789101
     18          1           0       -2.966714    3.303498    0.910424
     19          1           0       -3.926041    1.896787    0.362327
     20          1           0       -3.453942    3.164161   -0.802713
     21          1           0       -2.388911    1.475108   -2.108240
     22          1           0       -0.915617    0.730184   -1.408594
     23          1           0       -2.857923   -0.151362    1.130614
     24          1           0       -3.224973   -1.640386    0.240092
     25          1           0       -0.720255    0.707920    1.141817
     26          1           0        0.865518   -2.704944   -1.741901
     27          1           0        4.546864    0.029143   -1.043778
     28          1           0        1.508138    1.680291    1.356401
     29          1           0       -1.712141   -2.973292    1.552535
     30          1           0       -0.301302   -2.351718    2.080968
 ---------------------------------------------------------------------

 SCF Done:  E(UB3LYP) =  -850.495823099     A.U. after   33 cycles
 SCF Done:  E(UB3LYP) =  -850.495823099     a.u. after    1 cycles

 The electronic state is 2-A.
 Alpha  occ. eigenvalues --  -19.05515 -19.04147 -18.94199 -14.23601 -14.23480
 Alpha  occ. eigenvalues --  -14.20215 -14.17220 -14.15030 -10.17572 -10.16952
 Alpha  occ. eigenvalues --  -10.14726 -10.13284 -10.12525 -10.12102 -10.08540
 Alpha  occ. eigenvalues --  -10.06117 -10.04137  -0.98971  -0.92981  -0.90932
 Alpha  occ. eigenvalues --   -0.88439  -0.83545  -0.79188  -0.76994  -0.75842
 Alpha  occ. eigenvalues --   -0.66456  -0.63939  -0.60835  -0.55911  -0.54855
 Alpha  occ. eigenvalues --   -0.53490  -0.51430  -0.46501  -0.45106  -0.43520
 Alpha  occ. eigenvalues --   -0.42753  -0.41544  -0.40840  -0.38850  -0.37689
 Alpha  occ. eigenvalues --   -0.36900  -0.35146  -0.34069  -0.33408  -0.32676
 Alpha  occ. eigenvalues --   -0.32165  -0.30695  -0.29204  -0.28866  -0.28074
 Alpha  occ. eigenvalues --   -0.27513  -0.25559  -0.23642  -0.22700  -0.20640
 Alpha  occ. eigenvalues --   -0.19915  -0.18490  -0.16858  -0.15857  -0.15585
 Alpha  occ. eigenvalues --   -0.13624  -0.10308  -0.07756   0.04048
 Alpha virt. eigenvalues --    0.05449   0.07822   0.08174   0.08683   0.08833
 Alpha virt. eigenvalues --    0.09916   0.10574   0.10810   0.11545   0.12233
 Alpha virt. eigenvalues --    0.12297   0.13452   0.13665   0.14479   0.15058

  Beta  occ. eigenvalues --  -19.05507 -19.04145 -18.93925 -14.23487 -14.23478
  Beta  occ. eigenvalues --  -14.20198 -14.17109 -14.14322 -10.17569 -10.16956
  Beta  occ. eigenvalues --  -10.14701 -10.13252 -10.12517 -10.11917 -10.08460
  Beta  occ. eigenvalues --  -10.06180 -10.04010  -0.98962  -0.92971  -0.90620
  Beta  occ. eigenvalues --   -0.88219  -0.83294  -0.78637  -0.76832  -0.75313
  Beta  occ. eigenvalues --   -0.66402  -0.63808  -0.60710  -0.55854  -0.54595
  Beta  occ. eigenvalues --   -0.52862  -0.51283  -0.46437  -0.44954  -0.43444
  Beta  occ. eigenvalues --   -0.42643  -0.41521  -0.40719  -0.38747  -0.37538
  Beta  occ. eigenvalues --   -0.36830  -0.35010  -0.33969  -0.33356  -0.32152
  Beta  occ. eigenvalues --   -0.31965  -0.30646  -0.29042  -0.28602  -0.27947
  Beta  occ. eigenvalues --   -0.27276  -0.24729  -0.22923  -0.22345  -0.20345
  Beta  occ. eigenvalues --   -0.19192  -0.17838  -0.16172  -0.15443  -0.15088
  Beta  occ. eigenvalues --   -0.13355  -0.09691  -0.06742
  Beta virt. eigenvalues --    0.05988   0.07806   0.08376   0.08921   0.09322
  Beta virt. eigenvalues --    0.09839   0.10456   0.10642   0.10907   0.11546
  Beta virt. eigenvalues --    0.12147   0.12355   0.13430   0.13551   0.14466

 Mulliken charges and spin densities:
               1          2
     1  C    0.520519  -0.776285
     2  O   -0.153643   0.014001
     3  C   -0.458240   0.080020
     4  O   -0.013359  -0.002608
     5  C   -0.317839  -0.041413
     6  C   -1.286840  -0.080890
     7  N   -0.045501   0.008446
     8  C    0.067536   0.018307
     9  C   -0.223110  -0.059686
    10  C    0.196787   0.017232
    11  N    0.225514   0.053371
    12  N   -0.058666   0.310552
    13  C   -0.018705   0.120687
    14  C   -0.046236   0.144809
    15  O   -0.430500   0.091359
    16  N   -0.292247   0.040991
    17  N   -0.207901   0.007773
    18  H   -0.173357   0.317293
    19  H   -0.110084   0.272337
    20  H   -0.144320   0.279006
    21  H    0.031768   0.107677
    22  H    0.245999   0.009782
    23  H    0.148864   0.034211
    24  H    0.144655   0.032872
    25  H    0.273476   0.013579
    26  H    0.194284  -0.005914
    27  H    0.169535  -0.010401
    28  H    0.259005   0.004507
    29  H    0.238974   0.000697
    30  H    0.263633  -0.002312
 Sum of Mulliken charges =  -1.00000   1.00000

 Dipole moment (field-independent basis, Debye):
    X=             -6.5359    Y=             -1.8663    Z=              1.3762  Tot=              6.9350
 Quadrupole moment (field-independent basis, Debye-Ang):
   XX=           -169.5020   YY=           -131.6683   ZZ=           -115.5707
   XY=             -6.4923   XZ=              0.5720   YZ=             -7.4674

 Summary of Natural Population Analysis:

                                       Natural Population
                Natural  -----------------------------------------------
    Atom  No    Charge         Core      Valence    Rydberg      Total
 -----------------------------------------------------------------------
      C    1   -0.10292      0.99961     2.09360    0.00970     3.10292
      O    2   -0.30681      0.99989     3.29763    0.00929     4.30681
      C    3    0.14099      0.99962     1.84174    0.01766     2.85901
      O    4   -0.29860      0.99988     3.28971    0.00901     4.29860
      C    5   -0.01928      0.99948     2.00223    0.01758     3.01928
      C    6    0.21654      0.99962     1.76372    0.02012     2.78346
      N    7   -0.32543      0.99963     2.81453    0.01127     3.82543
      C    8    0.22353      0.99949     1.76520    0.01178     2.77647
      C    9   -0.04274      0.99946     2.02939    0.01389     3.04274
      C   10    0.07556      0.99959     1.90990    0.01495     2.92444
      N   11   -0.27186      0.99968     2.76108    0.01111     3.77186
      N   12   -0.11542      0.99968     2.60088    0.01487     3.61542
      C   13   -0.00839      0.99961     1.99489    0.01390     3.00839
      C   14    0.32702      0.99966     1.65103    0.02230     2.67298
      O   15   -0.30637      0.99988     3.29993    0.00657     4.30637
      N   16   -0.28131      0.99964     2.77256    0.00911     3.78131
      N   17   -0.42411      0.99974     2.91546    0.00891     3.92411
      H   18    0.09179      0.00000     0.40700    0.00121     0.40821
      H   19    0.08519      0.00000     0.41338    0.00143     0.41481
      H   20    0.08108      0.00000     0.41752    0.00140     0.41892
      H   21    0.07511      0.00000     0.42357    0.00132     0.42489
      H   22    0.08598      0.00000     0.41238    0.00163     0.41402
      H   23    0.08439      0.00000     0.41411    0.00150     0.41561
      H   24    0.09711      0.00000     0.40162    0.00127     0.40289
      H   25    0.20272      0.00000     0.29400    0.00328     0.29728
      H   26    0.08706      0.00000     0.41098    0.00196     0.41294
      H   27    0.08289      0.00000     0.41571    0.00140     0.41711
      H   28    0.19172      0.00000     0.30428    0.00400     0.30828
      H   29    0.17562      0.00000     0.32290    0.00149     0.32438
      H   30    0.17897      0.00000     0.31966    0.00138     0.32103
 =======================================================================
   * Total *   -0.00000     16.99416    45.76058    0.24527    63.00000

 Normal termination of Gaussian 16 at Fri Dec 11 14:11:32 2020.
