 Gaussian 16, Revision A.03,

 -----------------------------------------------------------
 # opt freq B3LYP/6-31G(d) empiricaldispersion=gd3bj scf=xqc
 -----------------------------------------------------------

 ------------------------------
 CID_83858168_JID_7130_neutraal
 ------------------------------
 Symbolic Z-matrix:
 Charge =  0 Multiplicity = 1

 SCF Done:  E(RB3LYP) =  -709.218848145     A.U. after   15 cycles
 SCF Done:  E(RB3LYP) =  -709.225564677     A.U. after   12 cycles
 SCF Done:  E(RB3LYP) =  -709.224781309     A.U. after   12 cycles
 SCF Done:  E(RB3LYP) =  -709.225293121     A.U. after   12 cycles
 SCF Done:  E(RB3LYP) =  -709.226658516     A.U. after    9 cycles
 SCF Done:  E(RB3LYP) =  -709.228335285     A.U. after   12 cycles
 SCF Done:  E(RB3LYP) =  -709.229195298     A.U. after   12 cycles
 SCF Done:  E(RB3LYP) =  -709.230658195     A.U. after   12 cycles
 SCF Done:  E(RB3LYP) =  -709.231450500     A.U. after   15 cycles
 SCF Done:  E(RB3LYP) =  -709.234780709     A.U. after   12 cycles
 SCF Done:  E(RB3LYP) =  -709.240963488     A.U. after    9 cycles
 SCF Done:  E(RB3LYP) =  -709.240966085     A.U. after    9 cycles
 SCF Done:  E(RB3LYP) =  -709.240967100     A.U. after    9 cycles
 SCF Done:  E(RB3LYP) =  -709.240967424     A.U. after    7 cycles
 SCF Done:  E(RB3LYP) =  -709.240967445     A.U. after    6 cycles
 Optimization completed.
    -- Stationary point found.
 Normal termination of Gaussian 16 at Fri Dec 11 12:14:06 2020.

 --------------------------------------------------------------------
 #N Geom=AllCheck Guess=TCheck SCRF=Check GenChk RB3LYP/6-31G(d) Freq
 --------------------------------------------------------------------

 Structure from the checkpoint file:  "JID_7130.chk"
 ------------------------------
 CID_83858168_JID_7130_neutraal
 ------------------------------
 Charge =  0 Multiplicity = 1

 SCF Done:  E(RB3LYP) =  -709.240967445     A.U. after    1 cycles

  Exact polarizability: 226.962   4.193 166.262   0.794   7.685 100.022
 Approx polarizability: 317.163   4.702 267.711   2.219  18.109 154.446

                      1                      2                      3
                      A                      A                      A
 Frequencies --     48.5450                50.9689                59.8065
 Red. masses --      1.6568                 1.4844                 3.4313
 Frc consts  --      0.0023                 0.0023                 0.0072
 IR Inten    --      0.0554                 0.5096                 0.0820

                      4                      5                      6
                      A                      A                      A
 Frequencies --     86.9459               121.4950               146.6210
 Red. masses --      2.9796                 2.5517                 3.3038
 Frc consts  --      0.0133                 0.0222                 0.0418
 IR Inten    --      0.2111                 0.3628                 0.1016

                      7                      8                      9
                      A                      A                      A
 Frequencies --    160.6300               172.0763               216.5479
 Red. masses --      3.3007                 3.7633                 1.2640
 Frc consts  --      0.0502                 0.0657                 0.0349
 IR Inten    --      0.1492                 0.3353                 2.0078

                     10                     11                     12
                      A                      A                      A
 Frequencies --    244.6545               258.0176               265.4045
 Red. masses --      2.8893                 1.1545                 2.9769
 Frc consts  --      0.1019                 0.0453                 0.1235
 IR Inten    --      7.3595                 5.2357                 2.2971

                     13                     14                     15
                      A                      A                      A
 Frequencies --    284.4117               299.1191               310.8968
 Red. masses --      1.7075                 2.5622                 1.7020
 Frc consts  --      0.0814                 0.1351                 0.0969
 IR Inten    --     15.7301                 3.7700                14.3282

                     16                     17                     18
                      A                      A                      A
 Frequencies --    335.4884               370.8098               383.0502
 Red. masses --      2.9425                 3.7160                 3.0470
 Frc consts  --      0.1951                 0.3010                 0.2634
 IR Inten    --      3.6996                 0.3435                 1.3534

                     19                     20                     21
                      A                      A                      A
 Frequencies --    393.3892               439.1100               445.5194
 Red. masses --      3.2329                 3.0243                 3.0027
 Frc consts  --      0.2948                 0.3436                 0.3512
 IR Inten    --      0.4697                 7.7285                 7.8613

                     22                     23                     24
                      A                      A                      A
 Frequencies --    484.7186               495.6849               578.3848
 Red. masses --      3.7789                 4.2128                 3.4845
 Frc consts  --      0.5231                 0.6099                 0.6868
 IR Inten    --      2.3417                 8.0272                 3.3503

                     25                     26                     27
                      A                      A                      A
 Frequencies --    596.6235               615.3632               643.4933
 Red. masses --      3.2035                 3.5342                 4.6938
 Frc consts  --      0.6718                 0.7885                 1.1451
 IR Inten    --      0.2525                 2.9374                 4.3993

                     28                     29                     30
                      A                      A                      A
 Frequencies --    700.2410               739.3652               771.3872
 Red. masses --      4.2859                 7.0620                 4.1506
 Frc consts  --      1.2382                 2.2745                 1.4551
 IR Inten    --      3.6994                 0.8631                 1.1320

                     31                     32                     33
                      A                      A                      A
 Frequencies --    787.6116               809.9309               829.6001
 Red. masses --      2.0074                 1.6033                 1.4954
 Frc consts  --      0.7337                 0.6197                 0.6064
 IR Inten    --      1.0824                 1.3716                28.0150

                     34                     35                     36
                      A                      A                      A
 Frequencies --    841.0111               850.7341               871.5520
 Red. masses --      2.3888                 1.7122                 1.3550
 Frc consts  --      0.9955                 0.7301                 0.6064
 IR Inten    --      8.5658                 2.6507                 5.0213

                     37                     38                     39
                      A                      A                      A
 Frequencies --    889.2627               924.4660               943.3464
 Red. masses --      3.4196                 3.2465                 1.9832
 Frc consts  --      1.5933                 1.6347                 1.0398
 IR Inten    --      3.9906                20.4391                80.0290

                     40                     41                     42
                      A                      A                      A
 Frequencies --    953.3951               956.3191               958.7774
 Red. masses --      1.2771                 3.8724                 1.6116
 Frc consts  --      0.6839                 2.0866                 0.8729
 IR Inten    --      0.2511                 2.7652                22.8691

                     43                     44                     45
                      A                      A                      A
 Frequencies --   1001.9703              1023.8360              1038.0275
 Red. masses --      2.4344                 1.2633                 1.6843
 Frc consts  --      1.4400                 0.7802                 1.0693
 IR Inten    --      2.7068                 0.6323                11.8925

                     46                     47                     48
                      A                      A                      A
 Frequencies --   1070.8615              1073.6095              1076.4459
 Red. masses --      1.3193                 1.4628                 1.3052
 Frc consts  --      0.8913                 0.9934                 0.8911
 IR Inten    --    102.3018                13.4840                20.5901

                     49                     50                     51
                      A                      A                      A
 Frequencies --   1083.0784              1098.8596              1101.3502
 Red. masses --      2.1481                 1.3670                 1.7032
 Frc consts  --      1.4847                 0.9726                 1.2172
 IR Inten    --     13.0467                 1.7009                12.8692

                     52                     53                     54
                      A                      A                      A
 Frequencies --   1142.8172              1156.9604              1158.3914
 Red. masses --      1.1548                 1.7610                 1.5420
 Frc consts  --      0.8886                 1.3888                 1.2191
 IR Inten    --      3.3342                 1.2868                10.5663

                     55                     56                     57
                      A                      A                      A
 Frequencies --   1204.8477              1216.8616              1226.7681
 Red. masses --      2.5269                 1.4079                 2.2941
 Frc consts  --      2.1612                 1.2283                 2.0341
 IR Inten    --    118.2384                 9.0278                 4.6949

                     58                     59                     60
                      A                      A                      A
 Frequencies --   1249.1834              1262.8032              1289.3749
 Red. masses --      2.1704                 2.7224                 2.9274
 Frc consts  --      1.9955                 2.5579                 2.8674
 IR Inten    --      1.1902                 7.6854                68.5263

                     61                     62                     63
                      A                      A                      A
 Frequencies --   1323.7654              1333.8120              1370.7795
 Red. masses --      3.0128                 2.5540                 1.6579
 Frc consts  --      3.1105                 2.6771                 1.8355
 IR Inten    --     28.9645                13.7208                10.6720

                     64                     65                     66
                      A                      A                      A
 Frequencies --   1385.3001              1402.1906              1419.4856
 Red. masses --      4.6916                 2.4194                 1.2980
 Frc consts  --      5.3046                 2.8026                 1.5410
 IR Inten    --     12.1606                12.0899                14.2584

                     67                     68                     69
                      A                      A                      A
 Frequencies --   1425.7297              1440.4458              1442.8655
 Red. masses --      2.3065                 1.3093                 1.2531
 Frc consts  --      2.7624                 1.6006                 1.5371
 IR Inten    --     74.3614                 4.2890                 1.4560

                     70                     71                     72
                      A                      A                      A
 Frequencies --   1487.2982              1490.1416              1514.2887
 Red. masses --      1.3224                 2.0238                 1.0451
 Frc consts  --      1.7235                 2.6478                 1.4120
 IR Inten    --     13.1845                15.4013                 4.1860

                     73                     74                     75
                      A                      A                      A
 Frequencies --   1514.8929              1517.6903              1519.5912
 Red. masses --      1.1577                 1.0550                 1.6360
 Frc consts  --      1.5653                 1.4318                 2.2258
 IR Inten    --      8.1324                 1.3333                33.5794

                     76                     77                     78
                      A                      A                      A
 Frequencies --   1529.7203              1530.8534              1534.5014
 Red. masses --      1.3479                 1.1987                 1.3917
 Frc consts  --      1.8583                 1.6551                 1.9308
 IR Inten    --      4.1803                 5.7489                 1.9774

                     79                     80                     81
                      A                      A                      A
 Frequencies --   1539.5091              1552.4058              1637.6224
 Red. masses --      1.3078                 3.3544                 6.9015
 Frc consts  --      1.8263                 4.7629                10.9049
 IR Inten    --     10.2534                13.9189                 1.2708

                     82                     83                     84
                      A                      A                      A
 Frequencies --   1677.6689              1718.6238              3040.4945
 Red. masses --      6.8794                 1.0884                 1.0373
 Frc consts  --     11.4081                 1.8941                 5.6500
 IR Inten    --     11.9392                26.4415                46.3257

                     85                     86                     87
                      A                      A                      A
 Frequencies --   3057.1728              3067.1711              3091.0875
 Red. masses --      1.0426                 1.0364                 1.1009
 Frc consts  --      5.7411                 5.7444                 6.1974
 IR Inten    --     25.1217                15.6346                22.5041

                     88                     89                     90
                      A                      A                      A
 Frequencies --   3121.9239              3127.9682              3136.3145
 Red. masses --      1.1008                 1.0969                 1.1021
 Frc consts  --      6.3212                 6.3230                 6.3873
 IR Inten    --     18.7050                20.4351                26.0256

                     91                     92                     93
                      A                      A                      A
 Frequencies --   3154.4375              3156.0324              3163.6973
 Red. masses --      1.0889                 1.0914                 1.0564
 Frc consts  --      6.3837                 6.4049                 6.2298
 IR Inten    --     17.2064                26.1108                 5.7051

                     94                     95                     96
                      A                      A                      A
 Frequencies --   3167.7207              3170.5413              3180.2809
 Red. masses --      1.0648                 1.0984                 1.0883
 Frc consts  --      6.2952                 6.5053                 6.4855
 IR Inten    --      9.4982                23.0700                17.4759

                     97                     98                     99
                      A                      A                      A
 Frequencies --   3212.2085              3214.3590              3246.0498
 Red. masses --      1.0925                 1.0914                 1.1186
 Frc consts  --      6.6418                 6.6440                 6.9444
 IR Inten    --     25.5040                 3.0235                 0.3550

                    100                    101                    102
                      A                      A                      A
 Frequencies --   3259.1459              3448.2040              3524.1354
 Red. masses --      1.1151                 1.0513                 1.0888
 Frc consts  --      6.9788                 7.3651                 7.9673
 IR Inten    --     10.6986                 1.5414                 2.4447

 - Thermochemistry -
 -------------------
 Temperature   298.150 Kelvin.  Pressure   1.00000 Atm.
 Atom     1 has atomic number  6 and mass  12.00000

 Molecular mass:   229.15790 amu.
 Principal axes and moments of inertia in atomic units:
                           1         2         3
     Eigenvalues --  2197.097735262.045336915.84795
           X            1.00000  -0.00204  -0.00150
           Y            0.00204   1.00000   0.00189
           Z            0.00149  -0.00189   1.00000
 This molecule is an asymmetric top.
 Rotational symmetry number  1.
 Warning -- assumption of classical behavior for rotation
           may cause significant error
 Rotational temperatures (Kelvin)      0.03942     0.01646     0.01252
 Rotational constants (GHZ):           0.82142     0.34297     0.26096
 Zero-point vibrational energy     817402.0 (Joules/Mol)
                                  195.36378 (Kcal/Mol)
 Warning -- explicit consideration of  26 degrees of freedom as
           vibrations may cause significant error
 Vibrational temperatures:     69.85    73.33    86.05   125.10   174.80
          (Kelvin)            210.95   231.11   247.58   311.56   352.00
                              371.23   381.86   409.21   430.37   447.31
                              482.69   533.51   551.12   566.00   631.78
                              641.00   697.40   713.18   832.17   858.41
                              885.37   925.84  1007.49  1063.78  1109.85
                             1133.20  1165.31  1193.61  1210.03  1224.02
                             1253.97  1279.45  1330.10  1357.27  1371.72
                             1375.93  1379.47  1441.61  1473.07  1493.49
                             1540.73  1544.68  1548.77  1558.31  1581.01
                             1584.60  1644.26  1664.61  1666.67  1733.51
                             1750.79  1765.05  1797.30  1816.89  1855.12
                             1904.60  1919.06  1972.25  1993.14  2017.44
                             2042.32  2051.31  2072.48  2075.96  2139.89
                             2143.98  2178.72  2179.59  2183.62  2186.35
                             2200.93  2202.56  2207.81  2215.01  2233.57
                             2356.17  2413.79  2472.72  4374.59  4398.59
                             4412.98  4447.39  4491.75  4500.45  4512.46
                             4538.53  4540.83  4551.85  4557.64  4561.70
                             4575.71  4621.65  4624.75  4670.34  4689.18
                             4961.20  5070.44

 Zero-point correction=                           0.311332 (Hartree/Particle)
 Thermal correction to Energy=                    0.327742
 Thermal correction to Enthalpy=                  0.328686
 Thermal correction to Gibbs Free Energy=         0.267914
 Sum of electronic and zero-point Energies=           -708.929635
 Sum of electronic and thermal Energies=              -708.913226
 Sum of electronic and thermal Enthalpies=            -708.912282
 Sum of electronic and thermal Free Energies=         -708.973053

                     E (Thermal)             CV                S
                      KCal/Mol        Cal/Mol-Kelvin    Cal/Mol-Kelvin
 Total                  205.661             64.132            127.904
 Electronic               0.000              0.000              0.000
 Translational            0.889              2.981             42.190
 Rotational               0.889              2.981             32.747
 Vibrational            203.883             58.171             52.967
 Vibration     1          0.595              1.978              4.876
 Vibration     2          0.595              1.977              4.779
 Vibration     3          0.597              1.973              4.464
 Vibration     4          0.601              1.958              3.728
 Vibration     5          0.609              1.931              3.076
 Vibration     6          0.617              1.906              2.716
 Vibration     7          0.622              1.891              2.542
 Vibration     8          0.626              1.877              2.413
 Vibration     9          0.645              1.816              1.988
 Vibration    10          0.660              1.772              1.769
 Vibration    11          0.667              1.749              1.675
 Vibration    12          0.671              1.736              1.626
 Vibration    13          0.683              1.703              1.507
 Vibration    14          0.692              1.675              1.422
 Vibration    15          0.700              1.653              1.358
 Vibration    16          0.717              1.605              1.234
 Vibration    17          0.743              1.532              1.076
 Vibration    18          0.752              1.506              1.027
 Vibration    19          0.761              1.484              0.987
 Vibration    20          0.799              1.385              0.829
 Vibration    21          0.805              1.371              0.809
 Vibration    22          0.841              1.284              0.697
 Vibration    23          0.851              1.260              0.669
 Vibration    24          0.935              1.078              0.488
 Vibration    25          0.954              1.039              0.455
 Vibration    26          0.975              0.999              0.424

 Optimization completed.
    -- Stationary point found.
 Normal termination of Gaussian 16 at Fri Dec 11 12:28:01 2020.

 ----------------------------------------------------------------------
 # B3LYP/6-311++G(d,p) empiricaldispersion=gd3bj scf=xqc pop=npa geom=c
 heck
 ----------------------------------------------------------------------

 --------------------------------------
 CID_83858168_JID_7130_Energie_neutraal
 --------------------------------------
 Structure from the checkpoint file:  "JID_7130.chk"
 Charge =  0 Multiplicity = 1

 SCF Done:  E(RB3LYP) =  -709.429802881     A.U. after   15 cycles
 Normal termination of Gaussian 16 at Fri Dec 11 12:36:36 2020.

 ----------------------------------------------------------------------
 # B3LYP/6-311++G(d,p) empiricaldispersion=gd3bj scf=xqc pop=npa geom=c
 heck
 ----------------------------------------------------------------------

 ------------------------------------
 CID_83858168_JID_7130_Energie_kation
 ------------------------------------
 Structure from the checkpoint file:  "JID_7130.chk"
 Charge =  1 Multiplicity = 2

 SCF Done:  E(UB3LYP) =  -709.148769373     A.U. after   29 cycles
 Normal termination of Gaussian 16 at Fri Dec 11 13:01:00 2020.
 Gaussian 16:  ES64L-G16RevA.03 25-Dec-2016

 ----------------------------------------------------------------------
 # B3LYP/6-311++G(d,p) empiricaldispersion=gd3bj scf=xqc pop=npa geom=c
 heck
 ----------------------------------------------------------------------

 -----------------------------------
 CID_83858168_JID_7130_Energie_anion
 -----------------------------------
 Structure from the checkpoint file:  "JID_7130.chk"
 Charge = -1 Multiplicity = 2

                         Standard orientation:
 ---------------------------------------------------------------------
 Center     Atomic      Atomic             Coordinates (Angstroms)
 Number     Number       Type             X           Y           Z
 ---------------------------------------------------------------------
      1          6           0       -4.762213    0.560603    0.217296
      2          6           0       -3.399244   -0.076417    0.082906
      3          6           0       -2.243165    0.691966    0.227641
      4          6           0       -1.010048    0.049613    0.089394
      5          6           0       -0.909762   -1.335094   -0.155731
      6          6           0       -2.071118   -2.101846   -0.303127
      7          6           0       -3.297525   -1.460935   -0.187107
      8          7           0        0.422195   -1.715860   -0.180666
      9          6           0        1.123825   -0.623887    0.029312
     10          7           0        0.307806    0.504116    0.172129
     11          6           0        0.668433    1.867918    0.444852
     12          6           0        1.417725    2.683505   -0.580174
     13          6           0       -0.032798    2.968694   -0.312874
     14          6           0        2.654567   -0.686456    0.093756
     15          6           0        3.250359   -0.359566   -1.288112
     16          6           0        3.247288    0.233631    1.171557
     17          7           0        3.081655   -2.058127    0.418438
     18          1           0       -4.683921    1.626413    0.453845
     19          1           0       -5.350556    0.084318    1.011334
     20          1           0       -5.341128    0.466629   -0.710138
     21          1           0       -2.313178    1.749814    0.455849
     22          1           0       -2.001957   -3.168142   -0.494372
     23          1           0       -4.212950   -2.037334   -0.296371
     24          1           0        0.895968    2.067554    1.489549
     25          1           0        2.173339    3.375287   -0.219769
     26          1           0        1.653855    2.202524   -1.522171
     27          1           0       -0.742827    2.674243   -1.077769
     28          1           0       -0.305283    3.862091    0.240680
     29          1           0        3.025187    0.663365   -1.598463
     30          1           0        4.336083   -0.486848   -1.246377
     31          1           0        2.848994   -1.044198   -2.042623
     32          1           0        2.761043    0.068632    2.140758
     33          1           0        4.309002   -0.006453    1.277802
     34          1           0        3.151890    1.289187    0.913698
     35          1           0        2.748290   -2.278431    1.358340
     36          1           0        2.548610   -2.689929   -0.180643
 ---------------------------------------------------------------------

 SCF Done:  E(UB3LYP) =  -709.419322164     A.U. after   33 cycles
 SCF Done:  E(UB3LYP) =  -709.419322164     a.u. after    1 cycles

 The electronic state is 2-A.
 Alpha  occ. eigenvalues --  -14.26960 -14.19505 -14.19335 -10.13423 -10.12694
 Alpha  occ. eigenvalues --  -10.12323 -10.10607 -10.09008 -10.08367 -10.08236
 Alpha  occ. eigenvalues --  -10.08161 -10.07430 -10.07359 -10.07304 -10.07089
 Alpha  occ. eigenvalues --  -10.07041 -10.06330  -0.91789  -0.81463  -0.79855
 Alpha  occ. eigenvalues --   -0.74970  -0.74463  -0.67412  -0.66065  -0.64255
 Alpha  occ. eigenvalues --   -0.60035  -0.58956  -0.55383  -0.53177  -0.52015
 Alpha  occ. eigenvalues --   -0.48804  -0.48275  -0.45313  -0.43045  -0.40696
 Alpha  occ. eigenvalues --   -0.40173  -0.38794  -0.38458  -0.36286  -0.35193
 Alpha  occ. eigenvalues --   -0.34201  -0.33824  -0.33492  -0.32496  -0.31486
 Alpha  occ. eigenvalues --   -0.30049  -0.29424  -0.29096  -0.27618  -0.27291
 Alpha  occ. eigenvalues --   -0.27022  -0.25964  -0.25597  -0.25256  -0.23795
 Alpha  occ. eigenvalues --   -0.22026  -0.21718  -0.19261  -0.17642  -0.15901
 Alpha  occ. eigenvalues --   -0.13125  -0.12295   0.04340
 Alpha virt. eigenvalues --    0.06363   0.06941   0.07281   0.08349   0.08370
 Alpha virt. eigenvalues --    0.08605   0.09238   0.09791   0.10013   0.10314
 Alpha virt. eigenvalues --    0.10682   0.10850   0.11782   0.12109   0.12554

  Beta  occ. eigenvalues --  -14.26960 -14.19497 -14.19321 -10.13340 -10.12697
  Beta  occ. eigenvalues --  -10.12300 -10.10611 -10.08996 -10.08340 -10.08208
  Beta  occ. eigenvalues --  -10.08117 -10.07415 -10.07319 -10.07280 -10.07100
  Beta  occ. eigenvalues --  -10.07035 -10.06296  -0.91740  -0.81420  -0.79822
  Beta  occ. eigenvalues --   -0.74915  -0.74422  -0.67357  -0.66015  -0.64214
  Beta  occ. eigenvalues --   -0.59992  -0.58895  -0.55329  -0.53108  -0.51942
  Beta  occ. eigenvalues --   -0.48761  -0.48219  -0.45253  -0.43002  -0.40613
  Beta  occ. eigenvalues --   -0.40110  -0.38753  -0.38422  -0.36258  -0.35148
  Beta  occ. eigenvalues --   -0.34141  -0.33744  -0.33453  -0.32426  -0.31443
  Beta  occ. eigenvalues --   -0.30015  -0.29399  -0.29063  -0.27575  -0.27258
  Beta  occ. eigenvalues --   -0.26987  -0.25917  -0.25563  -0.25214  -0.23716
  Beta  occ. eigenvalues --   -0.21905  -0.21668  -0.19171  -0.17613  -0.15872
  Beta  occ. eigenvalues --   -0.13005  -0.12049
  Beta virt. eigenvalues --    0.06455   0.06983   0.07305   0.07828   0.08626
  Beta virt. eigenvalues --    0.08798   0.09038   0.09288   0.10069   0.10415
  Beta virt. eigenvalues --    0.10581   0.10860   0.11082   0.11870   0.12201

 Mulliken charges and spin densities:
               1          2
     1  C    0.819371  -1.282891
     2  C   -0.788141   1.199485
     3  C   -0.481831  -0.084097
     4  C    1.922446  -1.798865
     5  C    0.371388  -0.213574
     6  C   -0.760253   0.516766
     7  C   -0.579678   0.399094
     8  N    0.033091  -0.013405
     9  C    0.674594  -0.587050
    10  N    0.141582   0.046304
    11  C   -1.663472   1.330914
    12  C    1.035248  -1.230336
    13  C    1.141088  -1.617288
    14  C   -1.595050   1.047095
    15  C   -0.286683  -0.131290
    16  C    0.477744  -1.084331
    17  N   -0.170316  -0.000655
    18  H   -0.302805   0.463955
    19  H   -0.016807   0.165374
    20  H    0.088855   0.054784
    21  H   -0.084931   0.232487
    22  H    0.089739   0.045191
    23  H    0.041906   0.092478
    24  H   -0.615963   0.885033
    25  H   -0.344209   0.540120
    26  H    0.137107  -0.021025
    27  H    0.200770  -0.053822
    28  H   -0.730174   0.927308
    29  H   -0.067612   0.183777
    30  H    0.140112   0.024413
    31  H    0.136158   0.024914
    32  H   -0.227706   0.392470
    33  H   -0.027502   0.206896
    34  H   -0.098502   0.250706
    35  H    0.178683   0.045596
    36  H    0.211751   0.043467
 Sum of Mulliken charges =  -1.00000   1.00000

 Dipole moment (field-independent basis, Debye):
    X=             -1.1290    Y=             -6.2555    Z=             -4.5692  Tot=              7.8284
 Quadrupole moment (field-independent basis, Debye-Ang):
   XX=           -168.0083   YY=           -167.9294   ZZ=           -133.3147
   XY=              0.1652   XZ=             -2.3962   YZ=            -11.7222

 Summary of Natural Population Analysis:

                                       Natural Population
                Natural  -----------------------------------------------
    Atom  No    Charge         Core      Valence    Rydberg      Total
 -----------------------------------------------------------------------
      C    1   -0.29200      0.99964     2.28677    0.00560     3.29200
      C    2   -0.01502      0.99954     2.00587    0.00961     3.01502
      C    3   -0.11663      0.99948     2.10792    0.00924     3.11663
      C    4    0.07625      0.99945     1.91360    0.01070     2.92375
      C    5    0.05720      0.99940     1.93136    0.01204     2.94280
      C    6   -0.09241      0.99954     2.08381    0.00906     3.09241
      C    7   -0.11698      0.99953     2.10873    0.00872     3.11698
      N    8   -0.27846      0.99967     2.76546    0.01333     3.77846
      C    9    0.25661      0.99954     1.72741    0.01644     2.74339
      N   10   -0.22417      0.99960     2.71169    0.01288     3.72417
      C   11   -0.02161      0.99956     2.00551    0.01654     3.02161
      C   12   -0.19790      0.99961     2.18870    0.00959     3.19790
      C   13   -0.19488      0.99962     2.18522    0.01004     3.19488
      C   14    0.02433      0.99958     1.96147    0.01461     2.97567
      C   15   -0.27981      0.99962     2.27436    0.00583     3.27981
      C   16   -0.28818      0.99963     2.28092    0.00764     3.28818
      N   17   -0.41847      0.99977     2.90992    0.00878     3.91847
      H   18    0.10342      0.00000     0.39570    0.00088     0.39658
      H   19    0.10204      0.00000     0.39697    0.00099     0.39796
      H   20    0.09960      0.00000     0.39956    0.00083     0.40040
      H   21    0.10706      0.00000     0.39123    0.00171     0.39294
      H   22    0.09962      0.00000     0.39878    0.00159     0.40038
      H   23    0.09532      0.00000     0.40384    0.00084     0.40468
      H   24    0.11128      0.00000     0.38347    0.00524     0.38872
      H   25    0.11084      0.00000     0.38673    0.00243     0.38916
      H   26    0.10209      0.00000     0.39673    0.00117     0.39791
      H   27    0.10608      0.00000     0.39265    0.00126     0.39392
      H   28    0.11248      0.00000     0.38384    0.00367     0.38752
      H   29    0.09880      0.00000     0.40027    0.00093     0.40120
      H   30    0.10266      0.00000     0.39642    0.00092     0.39734
      H   31    0.10037      0.00000     0.39880    0.00083     0.39963
      H   32    0.10212      0.00000     0.39660    0.00129     0.39788
      H   33    0.10459      0.00000     0.39434    0.00107     0.39541
      H   34    0.10755      0.00000     0.39094    0.00151     0.39245
      H   35    0.17370      0.00000     0.32449    0.00181     0.32630
      H   36    0.18255      0.00000     0.31528    0.00217     0.31745
 =======================================================================
   * Total *    0.00005     16.99278    44.79536    0.21181    61.99995

 Normal termination of Gaussian 16 at Fri Dec 11 13:24:35 2020.
