 Gaussian 16, Revision A.03,

 -----------------------------------------------------------
 # opt freq B3LYP/6-31G(d) empiricaldispersion=gd3bj scf=xqc
 -----------------------------------------------------------

 -------------------------------
 CID_104043493_JID_9084_neutraal
 -------------------------------
 Symbolic Z-matrix:
 Charge =  0 Multiplicity = 1

 SCF Done:  E(RB3LYP) =  -896.821021664     A.U. after   15 cycles
 SCF Done:  E(RB3LYP) =  -896.828290349     A.U. after   13 cycles
 SCF Done:  E(RB3LYP) =  -896.829799914     A.U. after   13 cycles
 SCF Done:  E(RB3LYP) =  -896.830456062     A.U. after   12 cycles
 SCF Done:  E(RB3LYP) =  -896.830881852     A.U. after   13 cycles
 SCF Done:  E(RB3LYP) =  -896.831143050     A.U. after   11 cycles
 SCF Done:  E(RB3LYP) =  -896.831383603     A.U. after   12 cycles
 SCF Done:  E(RB3LYP) =  -896.831497842     A.U. after   11 cycles
 SCF Done:  E(RB3LYP) =  -896.831546564     A.U. after   11 cycles
 SCF Done:  E(RB3LYP) =  -896.831561575     A.U. after   10 cycles
 SCF Done:  E(RB3LYP) =  -896.831564648     A.U. after    8 cycles
 SCF Done:  E(RB3LYP) =  -896.831565564     A.U. after    9 cycles
 SCF Done:  E(RB3LYP) =  -896.831565386     A.U. after    8 cycles
 SCF Done:  E(RB3LYP) =  -896.831565501     A.U. after    7 cycles
 SCF Done:  E(RB3LYP) =  -896.831565517     A.U. after    7 cycles
 Optimization completed.
    -- Stationary point found.
 Normal termination of Gaussian 16 at Thu Dec 17 20:18:13 2020.

 --------------------------------------------------------------------
 #N Geom=AllCheck Guess=TCheck SCRF=Check GenChk RB3LYP/6-31G(d) Freq
 --------------------------------------------------------------------

 Structure from the checkpoint file:  "JID_9084.chk"
 -------------------------------
 CID_104043493_JID_9084_neutraal
 -------------------------------
 Charge =  0 Multiplicity = 1

 SCF Done:  E(RB3LYP) =  -896.831565517     A.U. after    1 cycles

  Exact polarizability: 204.442  10.820 166.327 -18.199   4.596 118.478
 Approx polarizability: 285.850  15.148 263.278 -39.447   3.060 183.161

                      1                      2                      3
                      A                      A                      A
 Frequencies --     23.8957                30.7978                48.0831
 Red. masses --      4.6337                 4.4575                 5.2803
 Frc consts  --      0.0016                 0.0025                 0.0072
 IR Inten    --      1.3732                 2.9791                 3.0776

                      4                      5                      6
                      A                      A                      A
 Frequencies --     80.3271               107.6189               126.2665
 Red. masses --      5.1031                 4.0664                 4.3301
 Frc consts  --      0.0194                 0.0277                 0.0407
 IR Inten    --      1.6810                 2.4130                 2.6629

                      7                      8                      9
                      A                      A                      A
 Frequencies --    134.5537               162.8774               171.5322
 Red. masses --      3.9369                 3.5495                 3.9914
 Frc consts  --      0.0420                 0.0555                 0.0692
 IR Inten    --      5.2159                 2.7042                 1.4848

                     10                     11                     12
                      A                      A                      A
 Frequencies --    198.3090               222.9784               232.5265
 Red. masses --      2.8026                 1.2290                 1.0707
 Frc consts  --      0.0649                 0.0360                 0.0341
 IR Inten    --      1.7168                 0.0198                20.2697

                     13                     14                     15
                      A                      A                      A
 Frequencies --    267.9468               293.9524               306.7926
 Red. masses --      3.6254                 1.1642                 3.1724
 Frc consts  --      0.1534                 0.0593                 0.1759
 IR Inten    --      0.7407                 0.7252                 2.7891

                     16                     17                     18
                      A                      A                      A
 Frequencies --    338.4504               344.8407               348.3995
 Red. masses --      3.6962                 3.3330                 2.5091
 Frc consts  --      0.2495                 0.2335                 0.1794
 IR Inten    --      1.9408                 5.2451                 1.1907

                     19                     20                     21
                      A                      A                      A
 Frequencies --    371.9963               388.3305               394.7787
 Red. masses --      2.9254                 3.6799                 2.7828
 Frc consts  --      0.2385                 0.3270                 0.2555
 IR Inten    --      0.8554                 2.7038                 4.8150

                     22                     23                     24
                      A                      A                      A
 Frequencies --    425.4979               432.6328               447.7163
 Red. masses --      4.4886                 1.2734                 3.9350
 Frc consts  --      0.4788                 0.1404                 0.4647
 IR Inten    --     15.2428               181.6679                 8.2906

                     25                     26                     27
                      A                      A                      A
 Frequencies --    480.1931               519.9816               535.8814
 Red. masses --      2.5484                 4.1825                 2.1539
 Frc consts  --      0.3462                 0.6663                 0.3644
 IR Inten    --     11.3781                12.5598                29.2113

                     28                     29                     30
                      A                      A                      A
 Frequencies --    573.2186               592.3925               598.1060
 Red. masses --      3.1341                 2.7293                 2.1035
 Frc consts  --      0.6067                 0.5643                 0.4434
 IR Inten    --     10.5893                28.3701                13.2940

                     31                     32                     33
                      A                      A                      A
 Frequencies --    623.1591               650.1455               685.0655
 Red. masses --      2.9809                 3.3831                 2.1698
 Frc consts  --      0.6820                 0.8425                 0.6000
 IR Inten    --     13.7690               130.6191               262.0403

                     34                     35                     36
                      A                      A                      A
 Frequencies --    729.0748               736.4183               753.4193
 Red. masses --      3.6947                 4.3865                 5.9794
 Frc consts  --      1.1571                 1.4016                 1.9998
 IR Inten    --     49.3128                 8.5459                14.5310

                     37                     38                     39
                      A                      A                      A
 Frequencies --    783.8878               793.6099               798.2075
 Red. masses --      3.1038                 2.8172                 5.8215
 Frc consts  --      1.1237                 1.0454                 2.1853
 IR Inten    --      3.6118                 0.4081                18.5491

                     40                     41                     42
                      A                      A                      A
 Frequencies --    853.5056               874.0251               895.1735
 Red. masses --      2.9276                 2.0118                 1.9578
 Frc consts  --      1.2565                 0.9055                 0.9243
 IR Inten    --     10.7954                 1.8920                 7.4682

                     43                     44                     45
                      A                      A                      A
 Frequencies --    902.7324               930.6085               934.7652
 Red. masses --      1.6259                 1.4068                 2.3681
 Frc consts  --      0.7806                 0.7178                 1.2191
 IR Inten    --     20.6158                 3.2169                15.0372

                     46                     47                     48
                      A                      A                      A
 Frequencies --    955.6302               972.1007               985.1292
 Red. masses --      1.8609                 3.2094                 2.7823
 Frc consts  --      1.0013                 1.7869                 1.5909
 IR Inten    --      8.6118                 6.2491                 1.8858

                     49                     50                     51
                      A                      A                      A
 Frequencies --   1005.0307              1039.0892              1088.7370
 Red. masses --      2.7073                 2.3268                 1.3857
 Frc consts  --      1.6112                 1.4802                 0.9677
 IR Inten    --     44.0264                31.1743                 3.2185

                     52                     53                     54
                      A                      A                      A
 Frequencies --   1096.6495              1100.5314              1125.6067
 Red. masses --      2.2838                 2.0909                 1.6044
 Frc consts  --      1.6182                 1.4920                 1.1976
 IR Inten    --      0.9855                41.2012                 8.2357

                     55                     56                     57
                      A                      A                      A
 Frequencies --   1127.0935              1136.0688              1164.4143
 Red. masses --      1.5115                 1.6126                 1.9853
 Frc consts  --      1.1313                 1.2263                 1.5859
 IR Inten    --     53.0241                18.2533                92.3867

                     58                     59                     60
                      A                      A                      A
 Frequencies --   1170.0951              1183.8472              1257.9713
 Red. masses --      2.2820                 2.6668                 1.5646
 Frc consts  --      1.8408                 2.2021                 1.4588
 IR Inten    --     22.4063                30.5980                57.7077

                     61                     62                     63
                      A                      A                      A
 Frequencies --   1269.5761              1303.8272              1312.9304
 Red. masses --      1.6955                 1.2000                 1.9962
 Frc consts  --      1.6101                 1.2019                 2.0274
 IR Inten    --     99.8987                44.5038                29.6979

                     64                     65                     66
                      A                      A                      A
 Frequencies --   1324.0034              1334.4465              1347.5764
 Red. masses --      2.0366                 3.5233                 5.2109
 Frc consts  --      2.1035                 3.6966                 5.5753
 IR Inten    --     54.9250                51.0475               145.8707

                     67                     68                     69
                      A                      A                      A
 Frequencies --   1372.4420              1378.8353              1391.0972
 Red. masses --      1.7772                 3.1736                 1.3749
 Frc consts  --      1.9723                 3.5549                 1.5676
 IR Inten    --     27.4949               157.9137                 2.2929

                     70                     71                     72
                      A                      A                      A
 Frequencies --   1400.4206              1406.7587              1408.0779
 Red. masses --      1.4002                 1.2491                 1.3268
 Frc consts  --      1.6179                 1.4564                 1.5499
 IR Inten    --     10.1752                13.5195                 5.1452

                     73                     74                     75
                      A                      A                      A
 Frequencies --   1415.7505              1430.7971              1432.1141
 Red. masses --      1.3950                 1.2949                 1.3054
 Frc consts  --      1.6474                 1.5619                 1.5775
 IR Inten    --     12.0046                 6.4461                 2.5268

                     76                     77                     78
                      A                      A                      A
 Frequencies --   1441.6854              1487.9352              1495.3305
 Red. masses --      1.2759                 3.3031                 1.0992
 Frc consts  --      1.5625                 4.3087                 1.4482
 IR Inten    --     17.1988                46.1959                 9.7480

                     79                     80                     81
                      A                      A                      A
 Frequencies --   1508.0436              1511.6589              1515.3406
 Red. masses --      1.9482                 1.3590                 1.0607
 Frc consts  --      2.6104                 1.8297                 1.4350
 IR Inten    --    239.6273                96.4558                 5.0352

                     82                     83                     84
                      A                      A                      A
 Frequencies --   1526.7783              1532.2277              1553.0519
 Red. masses --      1.0596                 1.1030                 1.0575
 Frc consts  --      1.4552                 1.5258                 1.5028
 IR Inten    --      7.2711                37.2818                 4.8089

                     85                     86                     87
                      A                      A                      A
 Frequencies --   1623.5419              1641.9803              1668.2479
 Red. masses --      6.3245                 1.2432                 4.1990
 Frc consts  --      9.8221                 1.9749                 6.8852
 IR Inten    --     40.5122               119.9110                 9.3852

                     88                     89                     90
                      A                      A                      A
 Frequencies --   1696.1425              1796.3968              3041.7596
 Red. masses --      1.2339                 9.0743                 1.0794
 Frc consts  --      2.0915                17.2531                 5.8840
 IR Inten    --     64.5541               305.5952                14.3926

                     91                     92                     93
                      A                      A                      A
 Frequencies --   3045.2603              3052.0872              3055.1552
 Red. masses --      1.0787                 1.0487                 1.0510
 Frc consts  --      5.8940                 5.7557                 5.7802
 IR Inten    --     26.6307                13.7038                29.2659

                     94                     95                     96
                      A                      A                      A
 Frequencies --   3060.5885              3065.4154              3104.0105
 Red. masses --      1.0648                 1.0664                 1.0856
 Frc consts  --      5.8766                 5.9041                 6.1625
 IR Inten    --     67.0260                49.7252                25.4272

                     97                     98                     99
                      A                      A                      A
 Frequencies --   3106.2441              3112.0354              3116.5566
 Red. masses --      1.1012                 1.0980                 1.0992
 Frc consts  --      6.2602                 6.2654                 6.2904
 IR Inten    --     16.7049                18.1290                35.8267

                    100                    101                    102
                      A                      A                      A
 Frequencies --   3119.5345              3154.7693              3181.3441
 Red. masses --      1.0981                 1.0900                 1.0972
 Frc consts  --      6.2962                 6.3918                 6.5428
 IR Inten    --     41.2466                39.3113                13.6107

                    103                    104                    105
                      A                      A                      A
 Frequencies --   3190.6953              3195.3527              3538.0077
 Red. masses --      1.0904                 1.0950                 1.0483
 Frc consts  --      6.5404                 6.5870                 7.7315
 IR Inten    --      8.4383                 7.2511                11.6936

                    106                    107                    108
                      A                      A                      A
 Frequencies --   3569.8183              3633.2975              3691.8445
 Red. masses --      1.0458                 1.0972                 1.1028
 Frc consts  --      7.8525                 8.5337                 8.8562
 IR Inten    --     33.3560                 8.4349                22.7436

 - Thermochemistry -
 -------------------
 Temperature   298.150 Kelvin.  Pressure   1.00000 Atm.
 Atom     1 has atomic number  6 and mass  12.00000

 Molecular mass:   265.14264 amu.
 Principal axes and moments of inertia in atomic units:
                           1         2         3
     Eigenvalues --  2817.002956790.968858024.03160
           X            0.99996   0.00605  -0.00618
           Y           -0.00591   0.99973   0.02242
           Z            0.00632  -0.02238   0.99973
 This molecule is an asymmetric top.
 Rotational symmetry number  1.
 Warning -- assumption of classical behavior for rotation
           may cause significant error
 Rotational temperatures (Kelvin)      0.03075     0.01275     0.01079
 Rotational constants (GHZ):           0.64066     0.26576     0.22492
 Zero-point vibrational energy     844045.9 (Joules/Mol)
                                  201.73182 (Kcal/Mol)
 Warning -- explicit consideration of  30 degrees of freedom as
           vibrations may cause significant error
 Vibrational temperatures:     34.38    44.31    69.18   115.57   154.84
          (Kelvin)            181.67   193.59   234.34   246.80   285.32
                              320.82   334.55   385.52   422.93   441.41
                              486.95   496.15   501.27   535.22   558.72
                              568.00   612.20   622.46   644.16   690.89
                              748.14   771.01   824.73   852.32   860.54
                              896.59   935.41   985.66  1048.98  1059.54
                             1084.00  1127.84  1141.83  1148.44  1228.00
                             1257.53  1287.96  1298.83  1338.94  1344.92
                             1374.94  1398.64  1417.38  1446.02  1495.02
                             1566.45  1577.83  1583.42  1619.50  1621.64
                             1634.55  1675.33  1683.51  1703.29  1809.94
                             1826.64  1875.92  1889.01  1904.95  1919.97
                             1938.86  1974.64  1983.84  2001.48  2014.89
                             2024.01  2025.91  2036.95  2058.60  2060.49
                             2074.26  2140.81  2151.45  2169.74  2174.94
                             2180.24  2196.69  2204.53  2234.50  2335.91
                             2362.44  2400.24  2440.37  2584.61  4376.41
                             4381.45  4391.27  4395.69  4403.50  4410.45
                             4465.98  4469.19  4477.52  4484.03  4488.31
                             4539.01  4577.24  4590.70  4597.40  5090.40
                             5136.17  5227.50  5311.74

 Zero-point correction=                           0.321480 (Hartree/Particle)
 Thermal correction to Energy=                    0.339805
 Thermal correction to Enthalpy=                  0.340749
 Thermal correction to Gibbs Free Energy=         0.274854
 Sum of electronic and zero-point Energies=           -896.510085
 Sum of electronic and thermal Energies=              -896.491761
 Sum of electronic and thermal Enthalpies=            -896.490817
 Sum of electronic and thermal Free Energies=         -896.556712

                     E (Thermal)             CV                S
                      KCal/Mol        Cal/Mol-Kelvin    Cal/Mol-Kelvin
 Total                  213.231             71.327            138.688
 Electronic               0.000              0.000              0.000
 Translational            0.889              2.981             42.625
 Rotational               0.889              2.981             33.395
 Vibrational            211.453             65.366             62.669
 Vibration     1          0.593              1.985              6.281
 Vibration     2          0.594              1.984              5.777
 Vibration     3          0.595              1.978              4.895
 Vibration     4          0.600              1.963              3.883
 Vibration     5          0.606              1.943              3.311
 Vibration     6          0.611              1.927              3.002
 Vibration     7          0.613              1.919              2.880
 Vibration     8          0.623              1.888              2.516
 Vibration     9          0.626              1.878              2.419
 Vibration    10          0.637              1.842              2.149
 Vibration    11          0.649              1.806              1.935
 Vibration    12          0.653              1.791              1.859
 Vibration    13          0.673              1.732              1.609
 Vibration    14          0.689              1.685              1.451
 Vibration    15          0.697              1.661              1.380
 Vibration    16          0.719              1.599              1.219
 Vibration    17          0.723              1.586              1.190
 Vibration    18          0.726              1.579              1.173
 Vibration    19          0.744              1.530              1.072
 Vibration    20          0.757              1.495              1.007
 Vibration    21          0.762              1.481              0.982
 Vibration    22          0.787              1.415              0.873
 Vibration    23          0.794              1.399              0.850
 Vibration    24          0.807              1.366              0.803
 Vibration    25          0.837              1.294              0.710
 Vibration    26          0.875              1.206              0.610
 Vibration    27          0.891              1.171              0.574
 Vibration    28          0.929              1.089              0.498
 Vibration    29          0.950              1.048              0.463
 Vibration    30          0.956              1.036              0.453

 Optimization completed.
    -- Stationary point found.
 Normal termination of Gaussian 16 at Thu Dec 17 20:40:03 2020.

 ----------------------------------------------------------------------
 # B3LYP/6-311++G(d,p) empiricaldispersion=gd3bj scf=xqc pop=npa geom=c
 heck
 ----------------------------------------------------------------------

 ---------------------------------------
 CID_104043493_JID_9084_Energie_neutraal
 ---------------------------------------
 Structure from the checkpoint file:  "JID_9084.chk"
 Charge =  0 Multiplicity = 1

 SCF Done:  E(RB3LYP) =  -897.092874865     A.U. after   16 cycles
 Normal termination of Gaussian 16 at Thu Dec 17 20:49:52 2020.

 ----------------------------------------------------------------------
 # B3LYP/6-311++G(d,p) empiricaldispersion=gd3bj scf=xqc pop=npa geom=c
 heck
 ----------------------------------------------------------------------

 -------------------------------------
 CID_104043493_JID_9084_Energie_kation
 -------------------------------------
 Structure from the checkpoint file:  "JID_9084.chk"
 Charge =  1 Multiplicity = 2

 SCF Done:  E(UB3LYP) =  -896.811361518     A.U. after   28 cycles
 Normal termination of Gaussian 16 at Thu Dec 17 21:14:57 2020.
 Gaussian 16:  ES64L-G16RevA.03 25-Dec-2016

 ----------------------------------------------------------------------
 # B3LYP/6-311++G(d,p) empiricaldispersion=gd3bj scf=xqc pop=npa geom=c
 heck
 ----------------------------------------------------------------------

 ------------------------------------
 CID_104043493_JID_9084_Energie_anion
 ------------------------------------
 Structure from the checkpoint file:  "JID_9084.chk"
 Charge = -1 Multiplicity = 2

                         Standard orientation:
 ---------------------------------------------------------------------
 Center     Atomic      Atomic             Coordinates (Angstroms)
 Number     Number       Type             X           Y           Z
 ---------------------------------------------------------------------
      1          6           0        1.612979    0.378041    2.047466
      2          6           0        2.407169   -0.814996    1.499982
      3          6           0        1.566500   -1.821295    0.699247
      4          6           0        1.290538   -1.363075   -0.732610
      5          6           0        2.589815   -0.944063   -1.412851
      6          6           0        3.449970    0.020709   -0.576390
      7          8           0        3.580944   -0.426319    0.781430
      8          6           0        3.035127    1.491252   -0.702400
      9          8           0        0.406327   -0.217587   -0.750938
     10          6           0       -0.903372   -0.413349   -0.493585
     11          6           0       -1.698128    0.723666   -0.218129
     12          6           0       -3.045812    0.516806    0.061462
     13          6           0       -3.586717   -0.777429    0.056211
     14          6           0       -2.698192   -1.821153   -0.218599
     15          7           0       -1.397726   -1.645039   -0.475082
     16          7           0       -4.929248   -1.015249    0.382167
     17          6           0       -1.123447    2.109226   -0.237572
     18          8           0       -0.373157    2.521140   -1.108448
     19          7           0       -1.563001    2.911058    0.794628
     20          1           0        0.845651    0.020845    2.745865
     21          1           0        1.118108    0.945247    1.259818
     22          1           0        2.287799    1.048015    2.589631
     23          1           0        2.817149   -1.347380    2.366911
     24          1           0        2.122309   -2.764914    0.632816
     25          1           0        0.625145   -2.037105    1.213897
     26          1           0        0.809099   -2.168145   -1.293107
     27          1           0        2.371036   -0.500904   -2.390157
     28          1           0        3.162068   -1.863558   -1.586690
     29          1           0        4.479277   -0.054284   -0.946484
     30          1           0        3.592595    2.090543    0.024841
     31          1           0        3.288977    1.851577   -1.706831
     32          1           0        1.966128    1.653148   -0.566550
     33          1           0       -3.683014    1.372317    0.270328
     34          1           0       -3.052800   -2.851727   -0.227109
     35          1           0       -5.282350   -1.900865    0.038087
     36          1           0       -5.555879   -0.262552    0.121883
     37          1           0       -1.874241    2.483633    1.655741
     38          1           0       -1.098721    3.806812    0.875379
 ---------------------------------------------------------------------

 SCF Done:  E(UB3LYP) =  -897.092997504     A.U. after   33 cycles
 SCF Done:  E(UB3LYP) =  -897.092997504     a.u. after    1 cycles

 The electronic state is 2-A.
 Alpha  occ. eigenvalues --  -19.02515 -19.01897 -18.95605 -14.20742 -14.19707
 Alpha  occ. eigenvalues --  -14.16510 -10.13867 -10.12540 -10.12355 -10.12290
 Alpha  occ. eigenvalues --  -10.12042 -10.07923 -10.07218 -10.06542 -10.05450
 Alpha  occ. eigenvalues --  -10.05379 -10.04808 -10.04050 -10.03900  -0.95351
 Alpha  occ. eigenvalues --   -0.92975  -0.90793  -0.81059  -0.78166  -0.77983
 Alpha  occ. eigenvalues --   -0.70245  -0.69286  -0.66432  -0.62662  -0.60638
 Alpha  occ. eigenvalues --   -0.58287  -0.53612  -0.52859  -0.52349  -0.48569
 Alpha  occ. eigenvalues --   -0.46202  -0.43673  -0.42333  -0.41673  -0.39929
 Alpha  occ. eigenvalues --   -0.38521  -0.37396  -0.36686  -0.35640  -0.34996
 Alpha  occ. eigenvalues --   -0.33890  -0.33502  -0.32100  -0.32004  -0.30967
 Alpha  occ. eigenvalues --   -0.30126  -0.29383  -0.28928  -0.27854  -0.27612
 Alpha  occ. eigenvalues --   -0.27148  -0.26579  -0.25740  -0.25592  -0.24595
 Alpha  occ. eigenvalues --   -0.24245  -0.22640  -0.21381  -0.18757  -0.17577
 Alpha  occ. eigenvalues --   -0.15822  -0.15654  -0.15043  -0.14099  -0.12287
 Alpha  occ. eigenvalues --   -0.07836   0.04662
 Alpha virt. eigenvalues --    0.06853   0.06990   0.07568   0.08373   0.09158
 Alpha virt. eigenvalues --    0.09650   0.10519   0.10746   0.10949   0.11477
 Alpha virt. eigenvalues --    0.11928   0.12450   0.12946   0.13425   0.13605

  Beta  occ. eigenvalues --  -19.02526 -19.01896 -18.95452 -14.20697 -14.19678
  Beta  occ. eigenvalues --  -14.16340 -10.13753 -10.12582 -10.12355 -10.12289
  Beta  occ. eigenvalues --  -10.12043 -10.08009 -10.07218 -10.06538 -10.05376
  Beta  occ. eigenvalues --  -10.05168 -10.04805 -10.03869 -10.03646  -0.95354
  Beta  occ. eigenvalues --   -0.92973  -0.90515  -0.80824  -0.78030  -0.77828
  Beta  occ. eigenvalues --   -0.70219  -0.69282  -0.65978  -0.62630  -0.60375
  Beta  occ. eigenvalues --   -0.58277  -0.53507  -0.52515  -0.52169  -0.48441
  Beta  occ. eigenvalues --   -0.46018  -0.43577  -0.42271  -0.41593  -0.39807
  Beta  occ. eigenvalues --   -0.38467  -0.37292  -0.36675  -0.35618  -0.34975
  Beta  occ. eigenvalues --   -0.33720  -0.33300  -0.32017  -0.31976  -0.30853
  Beta  occ. eigenvalues --   -0.29883  -0.29229  -0.28824  -0.27680  -0.27470
  Beta  occ. eigenvalues --   -0.26868  -0.26300  -0.25597  -0.25477  -0.24537
  Beta  occ. eigenvalues --   -0.24154  -0.22570  -0.21342  -0.18702  -0.17181
  Beta  occ. eigenvalues --   -0.15735  -0.15217  -0.14261  -0.13384  -0.12008
  Beta  occ. eigenvalues --   -0.07113
  Beta virt. eigenvalues --    0.06779   0.07526   0.07920   0.08304   0.09123
  Beta virt. eigenvalues --    0.09586   0.10007   0.10566   0.10709   0.11008
  Beta virt. eigenvalues --    0.11539   0.12007   0.12793   0.13134   0.13366

 Mulliken charges and spin densities:
               1          2
     1  C   -0.323739  -0.124104
     2  C   -0.364707   0.088760
     3  C   -0.239653  -0.062036
     4  C    0.218017  -0.012254
     5  C   -0.661224  -0.028096
     6  C    0.115511   0.045226
     7  O   -0.124035  -0.002539
     8  C   -0.566917  -0.050145
     9  O    0.084674   0.002342
    10  C   -0.658216  -0.066533
    11  C    0.745318   0.153666
    12  C    0.156499   0.013176
    13  C   -0.446051  -0.190177
    14  C    0.046705   0.143902
    15  N   -0.002236   0.055744
    16  N   -0.310682  -0.039270
    17  C   -0.265239  -0.202108
    18  O   -0.297001   0.046292
    19  N   -0.294024  -0.008193
    20  H    0.070793   0.054008
    21  H    0.162912   0.040220
    22  H    0.127027   0.014296
    23  H    0.173488   0.019270
    24  H    0.147580   0.014513
    25  H    0.187107  -0.011795
    26  H    0.250098  -0.002382
    27  H    0.172606   0.006195
    28  H    0.140617   0.002404
    29  H    0.179551   0.005441
    30  H    0.113859   0.013246
    31  H    0.099906   0.004542
    32  H    0.220332  -0.016849
    33  H    0.099197   0.057848
    34  H   -0.040204   0.168352
    35  H   -0.198693   0.438003
    36  H    0.008155   0.215121
    37  H    0.035640   0.185388
    38  H    0.237030   0.028526
 Sum of Mulliken charges =  -1.00000   1.00000

 Dipole moment (field-independent basis, Debye):
    X=              7.2270    Y=             -0.1442    Z=              1.0575  Tot=              7.3054
 Quadrupole moment (field-independent basis, Debye-Ang):
   XX=           -181.2018   YY=           -141.7591   ZZ=           -132.4863
   XY=            -13.8417   XZ=             -2.4374   YZ=              4.1013

 Summary of Natural Population Analysis:

                                       Natural Population
                Natural  -----------------------------------------------
    Atom  No    Charge         Core      Valence    Rydberg      Total
 -----------------------------------------------------------------------
      C    1   -0.30321      0.99964     2.29659    0.00699     3.30321
      C    2    0.06811      0.99956     1.91857    0.01376     2.93189
      C    3   -0.21588      0.99958     2.20789    0.00841     3.21588
      C    4    0.06259      0.99951     1.92429    0.01361     2.93741
      C    5   -0.20704      0.99958     2.19992    0.00754     3.20704
      C    6    0.06970      0.99956     1.91824    0.01249     2.93030
      O    7   -0.31470      0.99988     3.30460    0.01022     4.31470
      C    8   -0.30507      0.99964     2.29975    0.00569     3.30507
      O    9   -0.29088      0.99985     3.27965    0.01138     4.29088
      C   10    0.26208      0.99942     1.72200    0.01651     2.73792
      C   11   -0.07069      0.99943     2.06122    0.01005     3.07069
      C   12   -0.05087      0.99950     2.04243    0.00893     3.05087
      C   13    0.03728      0.99947     1.95276    0.01049     2.96272
      C   14    0.05798      0.99955     1.92724    0.01523     2.94202
      N   15   -0.25029      0.99966     2.74063    0.01001     3.75029
      N   16   -0.40514      0.99972     2.89435    0.01107     3.90514
      C   17    0.34750      0.99967     1.62840    0.02444     2.65250
      O   18   -0.30638      0.99987     3.30086    0.00564     4.30638
      N   19   -0.41023      0.99971     2.90259    0.00793     3.91023
      H   20    0.09883      0.00000     0.40022    0.00094     0.40117
      H   21    0.11019      0.00000     0.38814    0.00167     0.38981
      H   22    0.09669      0.00000     0.40234    0.00098     0.40331
      H   23    0.08508      0.00000     0.41371    0.00121     0.41492
      H   24    0.09843      0.00000     0.40047    0.00110     0.40157
      H   25    0.11516      0.00000     0.38371    0.00113     0.38484
      H   26    0.10211      0.00000     0.39601    0.00188     0.39789
      H   27    0.10769      0.00000     0.39126    0.00105     0.39231
      H   28    0.09781      0.00000     0.40121    0.00098     0.40219
      H   29    0.08285      0.00000     0.41586    0.00129     0.41715
      H   30    0.09612      0.00000     0.40265    0.00122     0.40388
      H   31    0.09609      0.00000     0.40308    0.00082     0.40391
      H   32    0.12124      0.00000     0.37731    0.00145     0.37876
      H   33    0.09574      0.00000     0.40311    0.00115     0.40426
      H   34    0.07904      0.00000     0.41958    0.00138     0.42096
      H   35    0.18373      0.00000     0.31266    0.00361     0.31627
      H   36    0.17984      0.00000     0.31847    0.00170     0.32016
      H   37    0.19220      0.00000     0.30536    0.00244     0.30780
      H   38    0.18632      0.00000     0.31170    0.00198     0.31368
 =======================================================================
   * Total *    0.00000     18.99280    51.76882    0.23837    71.00000

 Normal termination of Gaussian 16 at Thu Dec 17 21:45:01 2020.
