 Gaussian 16, Revision A.03,

 -----------------------------------------------------------
 # opt freq B3LYP/6-31G(d) empiricaldispersion=gd3bj scf=xqc
 -----------------------------------------------------------

 ------------------------------
 CID_61859886_JID_7436_neutraal
 ------------------------------
 Symbolic Z-matrix:
 Charge =  0 Multiplicity = 1

 SCF Done:  E(RB3LYP) =  -1094.02408261     A.U. after   16 cycles
 SCF Done:  E(RB3LYP) =  -1094.02924597     A.U. after   14 cycles
 SCF Done:  E(RB3LYP) =  -1094.02343080     A.U. after   14 cycles
 SCF Done:  E(RB3LYP) =  -1094.03041392     A.U. after   13 cycles
 SCF Done:  E(RB3LYP) =  -1094.03326866     A.U. after   13 cycles
 SCF Done:  E(RB3LYP) =  -1094.02925922     A.U. after   13 cycles
 SCF Done:  E(RB3LYP) =  -1094.03292846     A.U. after   12 cycles
 SCF Done:  E(RB3LYP) =  -1094.03490218     A.U. after   10 cycles
 SCF Done:  E(RB3LYP) =  -1094.03583697     A.U. after   13 cycles
 SCF Done:  E(RB3LYP) =  -1094.03704800     A.U. after   13 cycles
 SCF Done:  E(RB3LYP) =  -1094.04625603     A.U. after   10 cycles
 SCF Done:  E(RB3LYP) =  -1094.04625782     A.U. after    9 cycles
 SCF Done:  E(RB3LYP) =  -1094.04625906     A.U. after    8 cycles
 SCF Done:  E(RB3LYP) =  -1094.04625929     A.U. after    8 cycles
 SCF Done:  E(RB3LYP) =  -1094.04625930     A.U. after    7 cycles
 Optimization completed.
    -- Stationary point found.
 Normal termination of Gaussian 16 at Mon Dec 14 17:13:56 2020.

 --------------------------------------------------------------------
 #N Geom=AllCheck Guess=TCheck SCRF=Check GenChk RB3LYP/6-31G(d) Freq
 --------------------------------------------------------------------

 Structure from the checkpoint file:  "JID_7436.chk"
 ------------------------------
 CID_61859886_JID_7436_neutraal
 ------------------------------
 Charge =  0 Multiplicity = 1

 SCF Done:  E(RB3LYP) =  -1094.04625930     A.U. after    1 cycles

  Exact polarizability: 188.748  -5.345 168.078   0.074  -6.941 152.077
 Approx polarizability: 238.677 -10.142 255.644  -1.556 -17.340 250.841

                      1                      2                      3
                      A                      A                      A
 Frequencies --     22.7655                33.6708                46.7809
 Red. masses --      3.6076                 3.8601                 2.7519
 Frc consts  --      0.0011                 0.0026                 0.0035
 IR Inten    --      0.8339                 1.0604                 0.4593

                      4                      5                      6
                      A                      A                      A
 Frequencies --     55.7102                58.9799                94.0020
 Red. masses --      4.2465                 4.0498                 4.3930
 Frc consts  --      0.0078                 0.0083                 0.0229
 IR Inten    --      1.4455                 3.6112                 1.4744

                      7                      8                      9
                      A                      A                      A
 Frequencies --    109.0700               128.3242               141.6518
 Red. masses --      4.0302                 3.1290                 2.8033
 Frc consts  --      0.0282                 0.0304                 0.0331
 IR Inten    --      0.4704                 3.1407                 1.8703

                     10                     11                     12
                      A                      A                      A
 Frequencies --    154.0583               176.0683               196.9491
 Red. masses --      2.1878                 2.1857                 1.7140
 Frc consts  --      0.0306                 0.0399                 0.0392
 IR Inten    --      1.0339                 0.6659                 0.4318

                     13                     14                     15
                      A                      A                      A
 Frequencies --    203.2391               206.8021               227.5275
 Red. masses --      3.4758                 2.4791                 1.9168
 Frc consts  --      0.0846                 0.0625                 0.0585
 IR Inten    --      0.7882                 1.2897                 1.9781

                     16                     17                     18
                      A                      A                      A
 Frequencies --    252.8956               266.3587               270.6194
 Red. masses --      1.1151                 1.3608                 1.4034
 Frc consts  --      0.0420                 0.0569                 0.0606
 IR Inten    --      0.1646                 1.7732                 0.2769

                     19                     20                     21
                      A                      A                      A
 Frequencies --    299.3174               324.2084               330.5601
 Red. masses --      3.2297                 1.8165                 2.1642
 Frc consts  --      0.1705                 0.1125                 0.1393
 IR Inten    --      2.0737                39.6258                 0.8565

                     22                     23                     24
                      A                      A                      A
 Frequencies --    360.3572               361.7045               385.8731
 Red. masses --      2.2087                 1.4621                 2.6645
 Frc consts  --      0.1690                 0.1127                 0.2338
 IR Inten    --      0.4402               111.0926                19.3811

                     25                     26                     27
                      A                      A                      A
 Frequencies --    389.5791               417.6781               453.0502
 Red. masses --      2.5015                 2.5149                 3.2266
 Frc consts  --      0.2237                 0.2585                 0.3902
 IR Inten    --      1.7240                 4.4288                 5.9403

                     28                     29                     30
                      A                      A                      A
 Frequencies --    460.7481               506.8951               507.8984
 Red. masses --      2.5165                 2.6878                 3.6058
 Frc consts  --      0.3148                 0.4069                 0.5480
 IR Inten    --      0.9748                10.2800                 7.4540

                     31                     32                     33
                      A                      A                      A
 Frequencies --    535.3722               577.1460               619.6532
 Red. masses --      3.9885                 2.8759                 3.4054
 Frc consts  --      0.6736                 0.5644                 0.7704
 IR Inten    --      4.5597                18.2358                 8.0013

                     34                     35                     36
                      A                      A                      A
 Frequencies --    644.2518               691.0570               735.5144
 Red. masses --      1.1902                 3.8405                 1.9098
 Frc consts  --      0.2911                 1.0806                 0.6087
 IR Inten    --     15.1845                19.0210                 2.9643

                     37                     38                     39
                      A                      A                      A
 Frequencies --    755.0273               784.3201               791.6597
 Red. masses --      1.5196                 1.9036                 2.7827
 Frc consts  --      0.5104                 0.6899                 1.0275
 IR Inten    --      9.1401                 6.2384                 5.4034

                     40                     41                     42
                      A                      A                      A
 Frequencies --    842.6525               861.6741               874.4380
 Red. masses --      2.2250                 1.7358                 2.7265
 Frc consts  --      0.9309                 0.7593                 1.2283
 IR Inten    --      5.6575                 1.6014                16.1884

                     43                     44                     45
                      A                      A                      A
 Frequencies --    888.6232               907.1509               934.9818
 Red. masses --      2.0149                 2.2541                 1.8676
 Frc consts  --      0.9374                 1.0929                 0.9619
 IR Inten    --      2.8903                 4.2921                 1.1961

                     46                     47                     48
                      A                      A                      A
 Frequencies --    948.5551               967.1631               983.8943
 Red. masses --      1.2313                 1.5344                 1.7505
 Frc consts  --      0.6527                 0.8456                 0.9984
 IR Inten    --      0.2663                 0.9292                 1.5560

                     49                     50                     51
                      A                      A                      A
 Frequencies --    995.1199              1018.8652              1045.0635
 Red. masses --      1.8996                 1.5629                 1.6677
 Frc consts  --      1.1083                 0.9559                 1.0731
 IR Inten    --      5.2343                 1.2597                 2.6722

                     52                     53                     54
                      A                      A                      A
 Frequencies --   1077.2261              1083.4531              1091.5803
 Red. masses --      1.4929                 2.2886                 2.8894
 Frc consts  --      1.0207                 1.5829                 2.0285
 IR Inten    --      6.1897                 8.1769                 4.4900

                     55                     56                     57
                      A                      A                      A
 Frequencies --   1121.2034              1144.7150              1151.1922
 Red. masses --      2.4229                 2.1447                 1.7323
 Frc consts  --      1.7946                 1.6558                 1.3526
 IR Inten    --     18.0100                 2.6726                16.4372

                     58                     59                     60
                      A                      A                      A
 Frequencies --   1156.6647              1180.6215              1185.0958
 Red. masses --      1.7694                 2.3218                 2.0539
 Frc consts  --      1.3947                 1.9068                 1.6996
 IR Inten    --     27.3147                 8.5615                 5.7010

                     61                     62                     63
                      A                      A                      A
 Frequencies --   1231.6872              1245.9583              1255.5140
 Red. masses --      1.5971                 1.6304                 1.8531
 Frc consts  --      1.4275                 1.4913                 1.7211
 IR Inten    --     42.3738                15.7080               105.1272

                     64                     65                     66
                      A                      A                      A
 Frequencies --   1283.0404              1309.1323              1316.0573
 Red. masses --      1.4315                 1.5174                 1.2998
 Frc consts  --      1.3884                 1.5322                 1.3264
 IR Inten    --     18.7173                82.1016                50.3822

                     67                     68                     69
                      A                      A                      A
 Frequencies --   1332.5826              1349.7994              1366.7205
 Red. masses --      1.3930                 1.1782                 1.7303
 Frc consts  --      1.4574                 1.2647                 1.9042
 IR Inten    --      3.4635                 6.0848                12.8816

                     70                     71                     72
                      A                      A                      A
 Frequencies --   1379.5017              1381.8063              1393.1872
 Red. masses --      1.6442                 1.3072                 1.4099
 Frc consts  --      1.8435                 1.4706                 1.6124
 IR Inten    --     32.9075                 5.6600                22.7723

                     73                     74                     75
                      A                      A                      A
 Frequencies --   1402.1594              1404.1722              1416.4435
 Red. masses --      1.4161                 1.5241                 2.0953
 Frc consts  --      1.6404                 1.7706                 2.4768
 IR Inten    --      2.5921                36.7037               131.4247

                     76                     77                     78
                      A                      A                      A
 Frequencies --   1418.2784              1424.7586              1435.3137
 Red. masses --      1.3769                 1.3736                 1.2623
 Frc consts  --      1.6318                 1.6428                 1.5321
 IR Inten    --      4.7195                 4.3592                 0.8043

                     79                     80                     81
                      A                      A                      A
 Frequencies --   1442.4819              1452.6740              1454.1471
 Red. masses --      1.2692                 1.2348                 1.2343
 Frc consts  --      1.5560                 1.5353                 1.5378
 IR Inten    --      2.3374                 2.8033                 9.7598

                     82                     83                     84
                      A                      A                      A
 Frequencies --   1497.2212              1508.1428              1514.5520
 Red. masses --      1.2711                 1.0783                 1.0481
 Frc consts  --      1.6788                 1.4450                 1.4166
 IR Inten    --     22.5850                 2.8061                 0.1557

                     85                     86                     87
                      A                      A                      A
 Frequencies --   1517.3324              1521.1497              1524.7336
 Red. masses --      1.0889                 1.0775                 1.1304
 Frc consts  --      1.4770                 1.4689                 1.5484
 IR Inten    --      4.9918                10.1491                 9.6690

                     88                     89                     90
                      A                      A                      A
 Frequencies --   1528.4369              1530.6962              1531.3712
 Red. masses --      1.0815                 1.0675                 1.0706
 Frc consts  --      1.4886                 1.4737                 1.4793
 IR Inten    --      7.1042                 7.0164                 8.2712

                     91                     92                     93
                      A                      A                      A
 Frequencies --   1534.1542              1538.3407              1546.5783
 Red. masses --      1.0853                 1.0519                 1.0625
 Frc consts  --      1.5050                 1.4666                 1.4973
 IR Inten    --     19.8555                 2.3607                 8.2576

                     94                     95                     96
                      A                      A                      A
 Frequencies --   1546.6671              1554.9070              1661.2752
 Red. masses --      1.0940                 1.0598                 1.2657
 Frc consts  --      1.5419                 1.5097                 2.0582
 IR Inten    --     11.7121                 6.0313               178.4382

                     97                     98                     99
                      A                      A                      A
 Frequencies --   1689.9775              3021.8892              3033.8320
 Red. masses --      7.5053                 1.0670                 1.0616
 Frc consts  --     12.6293                 5.7407                 5.7572
 IR Inten    --    238.3332                14.5709                40.2156

                    100                    101                    102
                      A                      A                      A
 Frequencies --   3039.7912              3043.7816              3050.6049
 Red. masses --      1.0451                 1.0683                 1.0697
 Frc consts  --      5.6896                 5.8316                 5.8653
 IR Inten    --     36.0647                35.9045                33.5760

                    103                    104                    105
                      A                      A                      A
 Frequencies --   3055.3003              3056.9818              3058.1749
 Red. masses --      1.0392                 1.0693                 1.0534
 Frc consts  --      5.7158                 5.8875                 5.8045
 IR Inten    --     17.9690                26.8018                14.0593

                    106                    107                    108
                      A                      A                      A
 Frequencies --   3065.0774              3074.3827              3078.3320
 Red. masses --      1.0923                 1.0675                 1.0566
 Frc consts  --      6.0461                 5.9446                 5.8989
 IR Inten    --     10.4879                21.7176                42.2116

                    109                    110                    111
                      A                      A                      A
 Frequencies --   3083.4759              3094.5445              3095.6663
 Red. masses --      1.0931                 1.0830                 1.0967
 Frc consts  --      6.1234                 6.1105                 6.1924
 IR Inten    --    102.5483                 1.9981                23.3078

                    112                    113                    114
                      A                      A                      A
 Frequencies --   3106.5807              3111.5179              3120.8321
 Red. masses --      1.0963                 1.1010                 1.1004
 Frc consts  --      6.2337                 6.2802                 6.3144
 IR Inten    --     13.0430                46.3232                25.9167

                    115                    116                    117
                      A                      A                      A
 Frequencies --   3122.7398              3124.1110              3136.6037
 Red. masses --      1.0954                 1.0968                 1.1009
 Frc consts  --      6.2934                 6.3071                 6.3816
 IR Inten    --     31.4867                41.2741                26.9089

                    118                    119                    120
                      A                      A                      A
 Frequencies --   3142.8210              3172.2607              3182.5208
 Red. masses --      1.0935                 1.0984                 1.0924
 Frc consts  --      6.3635                 6.5128                 6.5189
 IR Inten    --     12.2260                 0.9412                 6.2913

                    121                    122                    123
                      A                      A                      A
 Frequencies --   3211.6817              3575.3443              3701.7778
 Red. masses --      1.0958                 1.0446                 1.1048
 Frc consts  --      6.6594                 7.8677                 8.9197
 IR Inten    --      3.4919                46.7979                50.1097

 - Thermochemistry -
 -------------------
 Temperature   298.150 Kelvin.  Pressure   1.00000 Atm.
 Atom     1 has atomic number  6 and mass  12.00000

 Molecular mass:   258.17659 amu.
 Principal axes and moments of inertia in atomic units:
                           1         2         3
     Eigenvalues --  2822.991506940.141837684.21435
           X            0.99983   0.00273  -0.01849
           Y           -0.00290   0.99995  -0.00943
           Z            0.01847   0.00948   0.99978
 This molecule is an asymmetric top.
 Rotational symmetry number  1.
 Warning -- assumption of classical behavior for rotation
           may cause significant error
 Rotational temperatures (Kelvin)      0.03068     0.01248     0.01127
 Rotational constants (GHZ):           0.63930     0.26004     0.23486
 Zero-point vibrational energy    1017058.2 (Joules/Mol)
                                  243.08275 (Kcal/Mol)
 Warning -- explicit consideration of  33 degrees of freedom as
           vibrations may cause significant error
 Vibrational temperatures:     32.75    48.44    67.31    80.15    84.86
          (Kelvin)            135.25   156.93   184.63   203.81   221.66
                              253.32   283.37   292.42   297.54   327.36
                              363.86   383.23   389.36   430.65   466.46
                              475.60   518.47   520.41   555.19   560.52
                              600.95   651.84   662.91   729.31   730.75
                              770.28   830.38   891.54   926.93   994.28
                             1058.24  1086.32  1128.46  1139.02  1212.39
                             1239.76  1258.12  1278.53  1305.19  1345.23
                             1364.76  1391.53  1415.60  1431.76  1465.92
                             1503.61  1549.89  1558.85  1570.54  1613.16
                             1646.99  1656.31  1664.18  1698.65  1705.09
                             1772.12  1792.66  1806.40  1846.01  1883.55
                             1893.51  1917.29  1942.06  1966.41  1984.80
                             1988.11  2004.49  2017.39  2020.29  2037.95
                             2040.59  2049.91  2065.10  2075.41  2090.07
                             2092.19  2154.17  2169.88  2179.10  2183.10
                             2188.60  2193.75  2199.08  2202.33  2203.30
                             2207.31  2213.33  2225.18  2225.31  2237.16
                             2390.20  2431.50  4347.82  4365.01  4373.58
                             4379.32  4389.14  4395.90  4398.32  4400.03
                             4409.96  4423.35  4429.03  4436.43  4452.36
                             4453.97  4469.68  4476.78  4490.18  4492.93
                             4494.90  4512.87  4521.82  4564.18  4578.94
                             4620.89  5144.12  5326.03

 Zero-point correction=                           0.387377 (Hartree/Particle)
 Thermal correction to Energy=                    0.408026
 Thermal correction to Enthalpy=                  0.408970
 Thermal correction to Gibbs Free Energy=         0.337526
 Sum of electronic and zero-point Energies=          -1093.658882
 Sum of electronic and thermal Energies=             -1093.638234
 Sum of electronic and thermal Enthalpies=           -1093.637289
 Sum of electronic and thermal Free Energies=        -1093.708734

                     E (Thermal)             CV                S
                      KCal/Mol        Cal/Mol-Kelvin    Cal/Mol-Kelvin
 Total                  256.040             76.686            150.367
 Electronic               0.000              0.000              0.000
 Translational            0.889              2.981             42.545
 Rotational               0.889              2.981             33.376
 Vibrational            254.263             70.724             74.446
 Vibration     1          0.593              1.985              6.377
 Vibration     2          0.594              1.983              5.600
 Vibration     3          0.595              1.979              4.949
 Vibration     4          0.596              1.975              4.604
 Vibration     5          0.596              1.974              4.491
 Vibration     6          0.603              1.953              3.575
 Vibration     7          0.606              1.942              3.285
 Vibration     8          0.611              1.925              2.971
 Vibration     9          0.615              1.912              2.781
 Vibration    10          0.620              1.898              2.621
 Vibration    11          0.628              1.872              2.370
 Vibration    12          0.636              1.844              2.161
 Vibration    13          0.639              1.835              2.104
 Vibration    14          0.641              1.830              2.072
 Vibration    15          0.651              1.799              1.898
 Vibration    16          0.664              1.758              1.710
 Vibration    17          0.672              1.735              1.620
 Vibration    18          0.674              1.727              1.592
 Vibration    19          0.692              1.675              1.421
 Vibration    20          0.709              1.627              1.289
 Vibration    21          0.713              1.614              1.257
 Vibration    22          0.735              1.554              1.121
 Vibration    23          0.736              1.551              1.115
 Vibration    24          0.755              1.500              1.016
 Vibration    25          0.758              1.492              1.002
 Vibration    26          0.781              1.432              0.900
 Vibration    27          0.812              1.354              0.787
 Vibration    28          0.819              1.337              0.764
 Vibration    29          0.862              1.235              0.641
 Vibration    30          0.863              1.232              0.639
 Vibration    31          0.890              1.172              0.575
 Vibration    32          0.934              1.081              0.491
 Vibration    33          0.980              0.990              0.417

 Optimization completed.
    -- Stationary point found.
 Normal termination of Gaussian 16 at Mon Dec 14 17:37:38 2020.

 ----------------------------------------------------------------------
 # B3LYP/6-311++G(d,p) empiricaldispersion=gd3bj scf=xqc pop=npa geom=c
 heck
 ----------------------------------------------------------------------

 --------------------------------------
 CID_61859886_JID_7436_Energie_neutraal
 --------------------------------------
 Structure from the checkpoint file:  "JID_7436.chk"
 Charge =  0 Multiplicity = 1

 SCF Done:  E(RB3LYP) =  -1094.27367466     A.U. after   16 cycles
 Normal termination of Gaussian 16 at Mon Dec 14 17:50:57 2020.

 ----------------------------------------------------------------------
 # B3LYP/6-311++G(d,p) empiricaldispersion=gd3bj scf=xqc pop=npa geom=c
 heck
 ----------------------------------------------------------------------

 ------------------------------------
 CID_61859886_JID_7436_Energie_kation
 ------------------------------------
 Structure from the checkpoint file:  "JID_7436.chk"
 Charge =  1 Multiplicity = 2

 SCF Done:  E(UB3LYP) =  -1093.98102575     A.U. after   29 cycles
 Normal termination of Gaussian 16 at Mon Dec 14 18:21:06 2020.
 Gaussian 16:  ES64L-G16RevA.03 25-Dec-2016

 ----------------------------------------------------------------------
 # B3LYP/6-311++G(d,p) empiricaldispersion=gd3bj scf=xqc pop=npa geom=c
 heck
 ----------------------------------------------------------------------

 -----------------------------------
 CID_61859886_JID_7436_Energie_anion
 -----------------------------------
 Structure from the checkpoint file:  "JID_7436.chk"
 Charge = -1 Multiplicity = 2

                         Standard orientation:
 ---------------------------------------------------------------------
 Center     Atomic      Atomic             Coordinates (Angstroms)
 Number     Number       Type             X           Y           Z
 ---------------------------------------------------------------------
      1          6           0        5.185489   -0.204711   -0.815444
      2          6           0        3.882457   -0.933641   -0.473788
      3          6           0        3.158445   -0.379858    0.762450
      4          6           0        2.731429    1.092047    0.673738
      5          6           0        1.649234    1.408032   -0.367207
      6          7           0        0.322541    0.844046   -0.022870
      7          6           0       -0.404773    1.733396    0.921417
      8          6           0       -1.184243    2.840734    0.203072
      9          6           0       -1.215097    1.052435    2.021360
     10          6           0       -0.014660   -0.291273   -0.715868
     11          8           0        0.805569   -0.810509   -1.479031
     12          6           0       -1.314346   -1.148760   -0.604202
     13          6           0       -0.979720   -2.443777    0.186705
     14          6           0       -0.563281   -2.310275    1.654890
     15          6           0       -2.697831   -0.545426   -0.406392
     16         16           0       -3.329196    0.563557   -1.475856
     17          7           0       -3.444463   -1.049587    0.594439
     18          1           0        5.007259    0.835043   -1.113038
     19          1           0        5.702427   -0.695339   -1.647765
     20          1           0        5.871827   -0.189970    0.041196
     21          1           0        3.198199   -0.913714   -1.327202
     22          1           0        4.105105   -1.993101   -0.288452
     23          1           0        2.273245   -0.997657    0.956404
     24          1           0        3.811599   -0.491713    1.639798
     25          1           0        2.382970    1.420249    1.662989
     26          1           0        3.602715    1.719326    0.445282
     27          1           0        1.528892    2.493873   -0.445108
     28          1           0        1.931147    1.033099   -1.348416
     29          1           0        0.414650    2.225842    1.454748
     30          1           0       -2.063753    2.445239   -0.305599
     31          1           0       -1.506479    3.593889    0.931511
     32          1           0       -0.555743    3.338498   -0.542348
     33          1           0       -0.612223    0.308173    2.546385
     34          1           0       -1.509019    1.819239    2.746534
     35          1           0       -2.128807    0.584132    1.662459
     36          1           0       -1.376734   -1.478370   -1.644434
     37          1           0       -1.827229   -3.134811    0.091475
     38          1           0       -0.151637   -2.902628   -0.360013
     39          1           0       -1.346650   -1.898661    2.301336
     40          1           0       -0.292575   -3.293029    2.055122
     41          1           0        0.310103   -1.659197    1.755011
     42          1           0       -3.090873   -1.740243    1.240143
     43          1           0       -4.400984   -0.735753    0.692546
 ---------------------------------------------------------------------

 SCF Done:  E(UB3LYP) =  -1094.27191587     A.U. after   33 cycles
 SCF Done:  E(UB3LYP) =  -1094.27191587     a.u. after    1 cycles

 The electronic state is 2-A.
 Alpha  occ. eigenvalues --  -88.65718 -18.97213 -14.23867 -14.21944 -10.16576
 Alpha  occ. eigenvalues --  -10.11602 -10.10871 -10.09887 -10.07919 -10.07331
 Alpha  occ. eigenvalues --  -10.07177 -10.07129 -10.06808 -10.06667 -10.06552
 Alpha  occ. eigenvalues --  -10.05901 -10.05255  -7.74514  -5.70857  -5.70397
 Alpha  occ. eigenvalues --   -5.70079  -0.92987  -0.82640  -0.82251  -0.70948
 Alpha  occ. eigenvalues --   -0.69310  -0.68123  -0.65031  -0.63466  -0.59612
 Alpha  occ. eigenvalues --   -0.58682  -0.57889  -0.53704  -0.52436  -0.49787
 Alpha  occ. eigenvalues --   -0.47640  -0.46238  -0.43242  -0.40949  -0.39725
 Alpha  occ. eigenvalues --   -0.38482  -0.37931  -0.35946  -0.34834  -0.34309
 Alpha  occ. eigenvalues --   -0.33734  -0.33595  -0.32440  -0.31387  -0.31058
 Alpha  occ. eigenvalues --   -0.30802  -0.29375  -0.29183  -0.28592  -0.28070
 Alpha  occ. eigenvalues --   -0.26815  -0.26560  -0.26128  -0.25625  -0.25257
 Alpha  occ. eigenvalues --   -0.24200  -0.23621  -0.23282  -0.22499  -0.22380
 Alpha  occ. eigenvalues --   -0.21383  -0.21159  -0.14550  -0.13965  -0.10518
 Alpha  occ. eigenvalues --   -0.08368   0.04128
 Alpha virt. eigenvalues --    0.05790   0.06545   0.06842   0.07745   0.08500
 Alpha virt. eigenvalues --    0.08648   0.09336   0.09826   0.10136   0.10785
 Alpha virt. eigenvalues --    0.10997   0.11496   0.12112   0.12305   0.12517

  Beta  occ. eigenvalues --  -88.65701 -18.97212 -14.23868 -14.21827 -10.16517
  Beta  occ. eigenvalues --  -10.11596 -10.10314 -10.09886 -10.07961 -10.07316
  Beta  occ. eigenvalues --  -10.07169 -10.07113 -10.06801 -10.06653 -10.06550
  Beta  occ. eigenvalues --  -10.05889 -10.05253  -7.74499  -5.70866  -5.70326
  Beta  occ. eigenvalues --   -5.70069  -0.92969  -0.82621  -0.81789  -0.70929
  Beta  occ. eigenvalues --   -0.69221  -0.68104  -0.65001  -0.63096  -0.59563
  Beta  occ. eigenvalues --   -0.58624  -0.57735  -0.53665  -0.52419  -0.49680
  Beta  occ. eigenvalues --   -0.47359  -0.46111  -0.43077  -0.40921  -0.39672
  Beta  occ. eigenvalues --   -0.38348  -0.37856  -0.35911  -0.34800  -0.34286
  Beta  occ. eigenvalues --   -0.33674  -0.33561  -0.32228  -0.31271  -0.31028
  Beta  occ. eigenvalues --   -0.30695  -0.29327  -0.29118  -0.28535  -0.27983
  Beta  occ. eigenvalues --   -0.26775  -0.26365  -0.25907  -0.25399  -0.25134
  Beta  occ. eigenvalues --   -0.24142  -0.23504  -0.23254  -0.22457  -0.22273
  Beta  occ. eigenvalues --   -0.21091  -0.20594  -0.14513  -0.13961  -0.09734
  Beta  occ. eigenvalues --   -0.08311
  Beta virt. eigenvalues --    0.05941   0.06838   0.07121   0.07996   0.08536
  Beta virt. eigenvalues --    0.08732   0.09179   0.09535   0.09958   0.10534
  Beta virt. eigenvalues --    0.10903   0.11016   0.11555   0.12137   0.12527

 Mulliken charges and spin densities:
               1          2
     1  C   -0.249482  -0.406467
     2  C   -0.363002   0.115280
     3  C   -0.121954   0.184643
     4  C    0.489290  -0.849134
     5  C   -0.425909   0.251996
     6  N    0.288239   0.028380
     7  C   -0.132066  -0.023935
     8  C   -0.485583   0.021454
     9  C   -0.249552  -0.273931
    10  C   -0.712458  -0.061783
    11  O   -0.218791   0.012632
    12  C    0.806801  -0.338404
    13  C   -0.873825   0.273428
    14  C    0.440385  -0.861281
    15  C    0.233220   0.233407
    16  S   -0.531197  -0.084402
    17  N   -0.363463   0.068132
    18  H    0.083401   0.051088
    19  H    0.097135   0.031482
    20  H    0.035723   0.092375
    21  H    0.174254   0.031254
    22  H    0.073890   0.043554
    23  H    0.082428   0.081862
    24  H   -0.115573   0.277740
    25  H   -0.036361   0.165175
    26  H    0.044602   0.092312
    27  H    0.087229   0.066101
    28  H    0.175368  -0.005540
    29  H   -0.083202   0.245309
    30  H    0.110511   0.010272
    31  H    0.109055   0.004464
    32  H    0.103219   0.005300
    33  H   -0.020444   0.180317
    34  H   -0.058418   0.209374
    35  H    0.416823  -0.169414
    36  H    0.083967   0.189140
    37  H   -0.253288   0.452301
    38  H    0.205454  -0.040454
    39  H    0.112080  -0.021105
    40  H   -0.155221   0.312530
    41  H    0.115412  -0.031146
    42  H   -0.032956   0.295743
    43  H    0.114257   0.139950
 Sum of Mulliken charges =  -1.00000   1.00000

 Dipole moment (field-independent basis, Debye):
    X=              4.7028    Y=              1.7860    Z=              2.2997  Tot=              5.5313
 Quadrupole moment (field-independent basis, Debye-Ang):
   XX=           -185.8311   YY=           -147.8888   ZZ=           -152.2566
   XY=             -2.8380   XZ=            -14.3554   YZ=              0.4310

 Summary of Natural Population Analysis:

                                       Natural Population
                Natural  -----------------------------------------------
    Atom  No    Charge         Core      Valence    Rydberg      Total
 -----------------------------------------------------------------------
      C    1   -0.28667      0.99967     2.28306    0.00395     3.28667
      C    2   -0.19761      0.99963     2.19100    0.00698     3.19761
      C    3   -0.19070      0.99962     2.18152    0.00956     3.19070
      C    4   -0.19491      0.99961     2.18693    0.00836     3.19491
      C    5   -0.08679      0.99959     2.07667    0.01053     3.08679
      N    6   -0.26190      0.99963     2.75004    0.01223     3.76190
      C    7    0.00032      0.99959     1.98986    0.01024     2.99968
      C    8   -0.29580      0.99963     2.29051    0.00566     3.29580
      C    9   -0.29205      0.99963     2.28678    0.00565     3.29205
      C   10    0.37100      0.99960     1.60576    0.02364     2.62900
      O   11   -0.34484      0.99988     3.33989    0.00507     4.34484
      C   12   -0.18106      0.99946     2.16729    0.01431     3.18106
      C   13   -0.19406      0.99961     2.18499    0.00946     3.19406
      C   14   -0.28894      0.99965     2.28408    0.00520     3.28894
      C   15    0.14766      0.99961     1.83231    0.02042     2.85234
      S   16   -0.13781      4.99953     3.12507    0.01321     8.13781
      N   17   -0.37311      0.99966     2.86179    0.01165     3.87311
      H   18    0.09417      0.00000     0.40492    0.00091     0.40583
      H   19    0.09603      0.00000     0.40317    0.00080     0.40397
      H   20    0.09238      0.00000     0.40659    0.00103     0.40762
      H   21    0.11203      0.00000     0.38660    0.00137     0.38797
      H   22    0.09222      0.00000     0.40678    0.00100     0.40778
      H   23    0.10099      0.00000     0.39752    0.00149     0.39901
      H   24    0.09156      0.00000     0.40750    0.00095     0.40844
      H   25    0.09717      0.00000     0.40156    0.00128     0.40283
      H   26    0.09489      0.00000     0.40415    0.00096     0.40511
      H   27    0.09238      0.00000     0.40671    0.00092     0.40762
      H   28    0.11348      0.00000     0.38531    0.00121     0.38652
      H   29    0.09156      0.00000     0.40630    0.00214     0.40844
      H   30    0.11999      0.00000     0.37862    0.00138     0.38001
      H   31    0.09288      0.00000     0.40645    0.00067     0.40712
      H   32    0.09538      0.00000     0.40393    0.00069     0.40462
      H   33    0.10018      0.00000     0.39866    0.00117     0.39982
      H   34    0.09876      0.00000     0.40059    0.00065     0.40124
      H   35    0.11056      0.00000     0.38768    0.00177     0.38944
      H   36    0.13580      0.00000     0.36266    0.00154     0.36420
      H   37    0.09908      0.00000     0.39967    0.00125     0.40092
      H   38    0.10838      0.00000     0.39045    0.00117     0.39162
      H   39    0.09133      0.00000     0.40750    0.00116     0.40867
      H   40    0.09934      0.00000     0.39983    0.00083     0.40066
      H   41    0.09871      0.00000     0.39994    0.00135     0.40129
      H   42    0.19195      0.00000     0.30574    0.00231     0.30805
      H   43    0.19608      0.00000     0.30202    0.00190     0.30392
 =======================================================================
   * Total *   -0.00000     20.99361    49.79840    0.20799    71.00000

 Normal termination of Gaussian 16 at Mon Dec 14 18:57:37 2020.
