 Gaussian 16, Revision A.03,

 -----------------------------------------------------------
 # opt freq B3LYP/6-31G(d) empiricaldispersion=gd3bj scf=xqc
 -----------------------------------------------------------

 -----------------------------
 CID_87600966_JID_753_neutraal
 -----------------------------
 Symbolic Z-matrix:
 Charge =  0 Multiplicity = 1

 SCF Done:  E(RB3LYP) =  -425.225717100     A.U. after   14 cycles
 SCF Done:  E(RB3LYP) =  -425.228125444     A.U. after   11 cycles
 SCF Done:  E(RB3LYP) =  -425.227989778     A.U. after   12 cycles
 SCF Done:  E(RB3LYP) =  -425.228682629     A.U. after   11 cycles
 SCF Done:  E(RB3LYP) =  -425.228829579     A.U. after   10 cycles
 SCF Done:  E(RB3LYP) =  -425.228848344     A.U. after    9 cycles
 SCF Done:  E(RB3LYP) =  -425.228854834     A.U. after    9 cycles
 SCF Done:  E(RB3LYP) =  -425.228859368     A.U. after    9 cycles
 SCF Done:  E(RB3LYP) =  -425.228862786     A.U. after    9 cycles
 SCF Done:  E(RB3LYP) =  -425.228863427     A.U. after    8 cycles
 SCF Done:  E(RB3LYP) =  -425.228863664     A.U. after    7 cycles
 SCF Done:  E(RB3LYP) =  -425.228863828     A.U. after    7 cycles
 Optimization completed.
    -- Stationary point found.

 1\1\GINC-NODE125\FOpt\RB3LYP\6-31G(d)\C8H18N2\VSC10255\08-Dec-2020\0\\
 # opt freq B3LYP/6-31G(d) empiricaldispersion=gd3bj scf=xqc\\CID_87600
 966_JID_753_neutraal\\0,1\C,1.104546248,0.0507218458,-0.0663346669\C,0
 .7641279028,0.0072410604,-1.5591762201\C,0.7326436994,-1.4104170232,-2
 .1518027043\C,-0.4066062886,-2.3026267127,-1.6369944667\C,-1.794264936
 6,-1.9336858706,-2.1835869875\N,-1.9271644007,-2.1628894833,-3.6168601
 909\C,-2.3093932821,-3.5021994037,-4.0507845386\C,-3.8154917618,-3.767
 2636599,-3.9645496816\C,-1.8658366322,-1.1446663974,-4.5424016344\N,-1

 Normal termination of Gaussian 16 at Tue Dec  8 12:51:28 2020.

 --------------------------------------------------------------------
 #N Geom=AllCheck Guess=TCheck SCRF=Check GenChk RB3LYP/6-31G(d) Freq
 --------------------------------------------------------------------

 Structure from the checkpoint file:  "JID_753.chk"
 -----------------------------
 CID_87600966_JID_753_neutraal
 -----------------------------
 Charge =  0 Multiplicity = 1

 SCF Done:  E(RB3LYP) =  -425.228863828     A.U. after    1 cycles

  Exact polarizability: 115.056  -5.603 100.379   6.127  -0.556  79.617
 Approx polarizability: 137.794 -11.715 153.407  11.798  -3.764 118.410

                      1                      2                      3
                      A                      A                      A
 Frequencies --     36.9392                48.9801                61.7387
 Red. masses --      2.9181                 2.4130                 2.9097
 Frc consts  --      0.0023                 0.0034                 0.0065
 IR Inten    --      0.3260                 0.1343                 0.0802

                      4                      5                      6
                      A                      A                      A
 Frequencies --     88.9846               112.3117               163.1733
 Red. masses --      3.7731                 2.6659                 1.8108
 Frc consts  --      0.0176                 0.0198                 0.0284
 IR Inten    --      1.9164                 0.1995                 1.5445

                      7                      8                      9
                      A                      A                      A
 Frequencies --    179.0638               225.9242               233.1651
 Red. masses --      2.5334                 1.6869                 1.1818
 Frc consts  --      0.0479                 0.0507                 0.0379
 IR Inten    --      0.9670                 0.6511                 1.0175

                     10                     11                     12
                      A                      A                      A
 Frequencies --    252.6158               340.0587               344.8902
 Red. masses --      1.4289                 2.2783                 2.3061
 Frc consts  --      0.0537                 0.1552                 0.1616
 IR Inten    --      0.6502                 1.6362                 2.4398

                     13                     14                     15
                      A                      A                      A
 Frequencies --    402.2158               435.6321               448.3399
 Red. masses --      2.0585                 2.1718                 1.8584
 Frc consts  --      0.1962                 0.2428                 0.2201
 IR Inten    --      1.7301                 1.4713                 0.1803

                     16                     17                     18
                      A                      A                      A
 Frequencies --    526.7067               612.6684               726.8740
 Red. masses --      2.4415                 2.8757                 1.5950
 Frc consts  --      0.3991                 0.6360                 0.4965
 IR Inten    --      2.7639                 0.4958                 9.0837

                     19                     20                     21
                      A                      A                      A
 Frequencies --    766.4696               797.4825               803.8366
 Red. masses --      1.6383                 1.2647                 1.7621
 Frc consts  --      0.5671                 0.4739                 0.6708
 IR Inten    --      1.0954                 8.7691                54.2401

                     22                     23                     24
                      A                      A                      A
 Frequencies --    811.1210               866.0455               899.1145
 Red. masses --      2.3875                 1.5949                 1.8296
 Frc consts  --      0.9255                 0.7048                 0.8714
 IR Inten    --      2.2580                 2.1121                 6.0830

                     25                     26                     27
                      A                      A                      A
 Frequencies --    942.7859               979.1200              1011.4781
 Red. masses --      2.0258                 2.0185                 1.5732
 Frc consts  --      1.0609                 1.1401                 0.9483
 IR Inten    --      0.0532                 2.5211                 5.6091

                     28                     29                     30
                      A                      A                      A
 Frequencies --   1030.3706              1066.2819              1082.5025
 Red. masses --      1.6202                 1.1734                 2.0611
 Frc consts  --      1.0134                 0.7860                 1.4230
 IR Inten    --      0.0707                40.2951                 4.4933

                     31                     32                     33
                      A                      A                      A
 Frequencies --   1107.0938              1116.1981              1138.0521
 Red. masses --      1.8765                 1.8648                 1.7231
 Frc consts  --      1.3551                 1.3689                 1.3149
 IR Inten    --      2.0977                22.0440                21.7559

                     34                     35                     36
                      A                      A                      A
 Frequencies --   1144.7176              1186.0195              1218.2574
 Red. masses --      2.0152                 1.8020                 1.3868
 Frc consts  --      1.5558                 1.4935                 1.2127
 IR Inten    --      3.8674                98.7163                25.7250

                     37                     38                     39
                      A                      A                      A
 Frequencies --   1244.3182              1294.7115              1303.7631
 Red. masses --      1.3783                 1.4117                 1.4828
 Frc consts  --      1.2573                 1.3942                 1.4850
 IR Inten    --      1.4907                 5.5443                63.4571

                     40                     41                     42
                      A                      A                      A
 Frequencies --   1328.4553              1352.6353              1381.6974
 Red. masses --      1.3708                 1.1602                 1.3339
 Frc consts  --      1.4253                 1.2507                 1.5004
 IR Inten    --      5.6092                 3.6008                18.4367

                     43                     44                     45
                      A                      A                      A
 Frequencies --   1394.5955              1410.7764              1412.9079
 Red. masses --      1.3889                 1.3893                 1.4559
 Frc consts  --      1.5916                 1.6292                 1.7124
 IR Inten    --     11.1110                 6.6093                 2.3681

                     46                     47                     48
                      A                      A                      A
 Frequencies --   1422.7250              1439.2081              1443.5640
 Red. masses --      1.3305                 1.2616                 1.2630
 Frc consts  --      1.5867                 1.5396                 1.5507
 IR Inten    --     13.0470                14.4465                 2.5974

                     49                     50                     51
                      A                      A                      A
 Frequencies --   1454.6171              1460.7340              1511.7104
 Red. masses --      1.9533                 1.1926                 1.0819
 Frc consts  --      2.4351                 1.4993                 1.4567
 IR Inten    --     90.1588                 7.1021                 2.3263

                     52                     53                     54
                      A                      A                      A
 Frequencies --   1512.3004              1517.5531              1522.3046
 Red. masses --      1.0733                 1.0639                 1.0551
 Frc consts  --      1.4463                 1.4435                 1.4406
 IR Inten    --      2.6678                 2.5978                 5.0638

                     55                     56                     57
                      A                      A                      A
 Frequencies --   1523.0805              1528.5331              1534.3205
 Red. masses --      1.0797                 1.0686                 1.0664
 Frc consts  --      1.4757                 1.4710                 1.4791
 IR Inten    --      3.7601                 8.3152                 8.3410

                     58                     59                     60
                      A                      A                      A
 Frequencies --   1535.9465              1539.6162              1712.9232
 Red. masses --      1.0743                 1.0641                 6.7013
 Frc consts  --      1.4932                 1.4862                11.5847
 IR Inten    --      4.0634                 7.9417               293.6314

                     61                     62                     63
                      A                      A                      A
 Frequencies --   3031.8804              3039.6078              3040.7501
 Red. masses --      1.0669                 1.0618                 1.0543
 Frc consts  --      5.7783                 5.7801                 5.7437
 IR Inten    --     15.2087                14.8766                24.9562

                     64                     65                     66
                      A                      A                      A
 Frequencies --   3046.5970              3048.9962              3052.8732
 Red. masses --      1.0455                 1.0585                 1.0413
 Frc consts  --      5.7176                 5.7977                 5.7180
 IR Inten    --     38.4291                13.6979                33.5979

                     67                     68                     69
                      A                      A                      A
 Frequencies --   3057.5205              3071.4490              3072.5941
 Red. masses --      1.0619                 1.1011                 1.0974
 Frc consts  --      5.8488                 6.1203                 6.1042
 IR Inten    --     32.3870                34.8208                20.5058

                     70                     71                     72
                      A                      A                      A
 Frequencies --   3090.2590              3092.1494              3101.0758
 Red. masses --      1.0971                 1.1027                 1.0991
 Frc consts  --      6.1731                 6.2120                 6.2272
 IR Inten    --     50.4544                 4.9321                32.8016

                     73                     74                     75
                      A                      A                      A
 Frequencies --   3110.8431              3113.9599              3115.2678
 Red. masses --      1.1018                 1.0886                 1.1015
 Frc consts  --      6.2822                 6.2194                 6.2981
 IR Inten    --     60.1663                27.5200                41.7475

                     76                     77                     78
                      A                      A                      A
 Frequencies --   3121.4851              3131.0048              3454.8529
 Red. masses --      1.1012                 1.1039                 1.0727
 Frc consts  --      6.3217                 6.3762                 7.5436
 IR Inten    --     51.6319                41.9075                11.0936

 - Thermochemistry -
 -------------------
 Temperature   298.150 Kelvin.  Pressure   1.00000 Atm.
 Atom     1 has atomic number  6 and mass  12.00000

 Molecular mass:   142.14700 amu.
 Principal axes and moments of inertia in atomic units:
                           1         2         3
     Eigenvalues --   809.957742702.764343170.44504
           X            0.99996  -0.00885   0.00230
           Y            0.00883   0.99992   0.00894
           Z           -0.00237  -0.00892   0.99996
 This molecule is an asymmetric top.
 Rotational symmetry number  1.
 Warning -- assumption of classical behavior for rotation
           may cause significant error
 Rotational temperatures (Kelvin)      0.10694     0.03205     0.02732
 Rotational constants (GHZ):           2.22819     0.66774     0.56924
 Zero-point vibrational energy     680575.8 (Joules/Mol)
                                  162.66153 (Kcal/Mol)
 Warning -- explicit consideration of  17 degrees of freedom as
           vibrations may cause significant error
 Vibrational temperatures:     53.15    70.47    88.83   128.03   161.59
          (Kelvin)            234.77   257.63   325.05   335.47   363.46
                              489.27   496.22   578.70   626.78   645.06
                              757.81   881.49  1045.81  1102.78  1147.40
                             1156.54  1167.02  1246.05  1293.63  1356.46
                             1408.74  1455.29  1482.47  1534.14  1557.48
                             1592.86  1605.96  1637.40  1646.99  1706.42
                             1752.80  1790.30  1862.80  1875.82  1911.35
                             1946.14  1987.95  2006.51  2029.79  2032.86
                             2046.98  2070.70  2076.97  2092.87  2101.67
                             2175.01  2175.86  2183.42  2190.26  2191.37
                             2199.22  2207.54  2209.88  2215.16  2464.51
                             4362.20  4373.32  4374.96  4383.37  4386.83
                             4392.40  4399.09  4419.13  4420.78  4446.19
                             4448.91  4461.76  4475.81  4480.29  4482.18
                             4491.12  4504.82  4970.76

 Zero-point correction=                           0.259218 (Hartree/Particle)
 Thermal correction to Energy=                    0.271732
 Thermal correction to Enthalpy=                  0.272676
 Thermal correction to Gibbs Free Energy=         0.219622
 Sum of electronic and zero-point Energies=           -424.969646
 Sum of electronic and thermal Energies=              -424.957132
 Sum of electronic and thermal Enthalpies=            -424.956188
 Sum of electronic and thermal Free Energies=         -425.009242

                     E (Thermal)             CV                S
                      KCal/Mol        Cal/Mol-Kelvin    Cal/Mol-Kelvin
 Total                  170.514             44.831            111.663
 Electronic               0.000              0.000              0.000
 Translational            0.889              2.981             40.766
 Rotational               0.889              2.981             30.319
 Vibrational            168.737             38.870             40.578
 Vibration     1          0.594              1.982              5.417
 Vibration     2          0.595              1.978              4.858
 Vibration     3          0.597              1.973              4.401
 Vibration     4          0.602              1.957              3.682
 Vibration     5          0.607              1.939              3.229
 Vibration     6          0.623              1.888              2.513
 Vibration     7          0.629              1.868              2.338
 Vibration     8          0.650              1.802              1.911
 Vibration     9          0.654              1.790              1.854
 Vibration    10          0.664              1.758              1.712
 Vibration    11          0.720              1.595              1.212
 Vibration    12          0.723              1.586              1.189
 Vibration    13          0.768              1.465              0.955
 Vibration    14          0.796              1.393              0.840
 Vibration    15          0.807              1.365              0.801
 Vibration    16          0.882              1.191              0.595
 Vibration    17          0.972              1.005              0.428

                           ! Non-Optimized Parameters !

 1\1\GINC-NODE125\Freq\RB3LYP\6-31G(d)\C8H18N2\VSC10255\08-Dec-2020\0\\
 #N Geom=AllCheck Guess=TCheck SCRF=Check GenChk RB3LYP/6-31G(d) Freq\\
 CID_87600966_JID_753_neutraal\\0,1\C,1.104546248,0.0507218458,-0.06633
 46669\C,0.7641279028,0.0072410604,-1.5591762201\C,0.7326436994,-1.4104
 170232,-2.1518027043\C,-0.4066062886,-2.3026267127,-1.6369944667\C,-1.
 7942649366,-1.9336858706,-2.1835869875\N,-1.9271644007,-2.1628894833,-
 3.6168601909\C,-2.3093932821,-3.5021994037,-4.0507845386\C,-3.81549176
 18,-3.7672636599,-3.9645496816\C,-1.8658366322,-1.1446663974,-4.542401

 Normal termination of Gaussian 16 at Tue Dec  8 13:09:10 2020.

 ----------------------------------------------------------------------
 # B3LYP/6-311++G(d,p) empiricaldispersion=gd3bj scf=xqc pop=npa geom=c
 heck
 ----------------------------------------------------------------------

 -------------------------------------
 CID_87600966_JID_753_Energie_neutraal
 -------------------------------------
 Structure from the checkpoint file:  "JID_753.chk"
 Charge =  0 Multiplicity = 1

 SCF Done:  E(RB3LYP) =  -425.353920920     A.U. after   13 cycles
 Normal termination of Gaussian 16 at Tue Dec  8 13:11:50 2020.

 ----------------------------------------------------------------------
 # B3LYP/6-311++G(d,p) empiricaldispersion=gd3bj scf=xqc pop=npa geom=c
 heck
 ----------------------------------------------------------------------

 -----------------------------------
 CID_87600966_JID_753_Energie_kation
 -----------------------------------
 Structure from the checkpoint file:  "JID_753.chk"
 Charge =  1 Multiplicity = 2

 SCF Done:  E(UB3LYP) =  -425.057017686     A.U. after   20 cycles
 Normal termination of Gaussian 16 at Tue Dec  8 13:23:33 2020.
 Gaussian 16:  ES64L-G16RevA.03 25-Dec-2016

 ----------------------------------
 CID_87600966_JID_753_Energie_anion
 ----------------------------------
 Structure from the checkpoint file:  "JID_753.chk"
 Charge = -1 Multiplicity = 2

                         Standard orientation:
 ---------------------------------------------------------------------
 Center     Atomic      Atomic             Coordinates (Angstroms)
 Number     Number       Type             X           Y           Z
 ---------------------------------------------------------------------
      1          6           0       -3.803062   -0.466830   -0.494144
      2          6           0       -2.715548    0.456942    0.062910
      3          6           0       -1.680731   -0.257886    0.946157
      4          6           0       -0.772479   -1.250760    0.205728
      5          6           0        0.292359   -0.590734   -0.683633
      6          7           0        1.295802    0.147819    0.072748
      7          6           0        2.440472   -0.600686    0.580303
      8          6           0        3.535005   -0.829952   -0.466340
      9          6           0        1.284106    1.520794    0.182142
     10          7           0        0.454504    2.398559   -0.244043
     11          1           0       -3.388106   -1.237625   -1.153508
     12          1           0       -4.541140    0.097479   -1.074694
     13          1           0       -4.335478   -0.978217    0.317262
     14          1           0       -2.214531    0.968001   -0.770248
     15          1           0       -3.186257    1.251802    0.654600
     16          1           0       -1.052571    0.488806    1.446194
     17          1           0       -2.215783   -0.794068    1.741756
     18          1           0       -0.259879   -1.886714    0.939317
     19          1           0       -1.371320   -1.929166   -0.415808
     20          1           0        0.803799   -1.361042   -1.273693
     21          1           0       -0.170182    0.086231   -1.409123
     22          1           0        2.851549   -0.055242    1.436691
     23          1           0        2.081074   -1.560726    0.969707
     24          1           0        3.933904    0.126632   -0.819886
     25          1           0        4.359858   -1.414002   -0.042221
     26          1           0        3.147852   -1.375110   -1.334113
     27          1           0        2.146459    1.885695    0.748353
     28          1           0       -0.322119    1.977299   -0.760244
 ---------------------------------------------------------------------

 SCF Done:  E(UB3LYP) =  -425.340574397     A.U. after   29 cycles

 The electronic state is 2-A.
 Alpha  occ. eigenvalues --  -14.23504 -14.17075 -10.13308 -10.10508 -10.10297
 Alpha  occ. eigenvalues --  -10.06948 -10.06541 -10.06403 -10.06084 -10.06011
 Alpha  occ. eigenvalues --   -0.86216  -0.76686  -0.70634  -0.66340  -0.63744
 Alpha  occ. eigenvalues --   -0.59120  -0.53764  -0.53544  -0.48177  -0.44854
 Alpha  occ. eigenvalues --   -0.42326  -0.39392  -0.36560  -0.36414  -0.33922
 Alpha  occ. eigenvalues --   -0.33438  -0.31738  -0.30783  -0.29828  -0.28702
 Alpha  occ. eigenvalues --   -0.27610  -0.26747  -0.26115  -0.25368  -0.24207
 Alpha  occ. eigenvalues --   -0.23227  -0.22185  -0.22122  -0.16595  -0.12168
 Alpha  occ. eigenvalues --    0.04471
 Alpha virt. eigenvalues --    0.06388   0.07698   0.07977   0.09083   0.09238
 Alpha virt. eigenvalues --    0.09356   0.10706   0.11092   0.11347   0.12010
 Alpha virt. eigenvalues --    0.12340   0.12853   0.13048   0.13852   0.14815

  Beta  occ. eigenvalues --  -14.23506 -14.17074 -10.13301 -10.10476 -10.10270
  Beta  occ. eigenvalues --  -10.06940 -10.06513 -10.06394 -10.06048 -10.05962
  Beta  occ. eigenvalues --   -0.86204  -0.76677  -0.70601  -0.66293  -0.63694
  Beta  occ. eigenvalues --   -0.59070  -0.53684  -0.53468  -0.48129  -0.44800
  Beta  occ. eigenvalues --   -0.42292  -0.39344  -0.36518  -0.36386  -0.33880
  Beta  occ. eigenvalues --   -0.33388  -0.31695  -0.30752  -0.29777  -0.28654
  Beta  occ. eigenvalues --   -0.27549  -0.26707  -0.26074  -0.25324  -0.24182
  Beta  occ. eigenvalues --   -0.23198  -0.22147  -0.22091  -0.16591  -0.12157
  Beta virt. eigenvalues --    0.06751   0.07459   0.08323   0.08708   0.09523
  Beta virt. eigenvalues --    0.09635   0.09999   0.11011   0.11539   0.11926
  Beta virt. eigenvalues --    0.12289   0.12560   0.13157   0.13296   0.14112

 Mulliken charges and spin densities:
               1          2
     1  C    0.948762  -1.576004
     2  C   -0.790411   0.682005
     3  C   -0.278293   0.147167
     4  C    0.666111  -0.925825
     5  C    0.212036  -0.646249
     6  N   -0.041424   0.184250
     7  C   -0.393919   0.144533
     8  C    1.397052  -1.808843
     9  C    0.036417  -0.217344
    10  N   -0.309756   0.003265
    11  H   -0.134423   0.274807
    12  H   -0.187895   0.318742
    13  H   -0.235827   0.367244
    14  H    0.053027   0.009890
    15  H    0.055345   0.104031
    16  H    0.062005   0.121905
    17  H   -0.117385   0.260085
    18  H   -0.147300   0.300007
    19  H   -0.268341   0.398596
    20  H   -0.233415   0.404771
    21  H    0.009070   0.121589
    22  H   -0.254165   0.410882
    23  H   -0.263224   0.401357
    24  H   -0.090487   0.224672
    25  H   -0.614122   0.759344
    26  H   -0.267802   0.410777
    27  H    0.021951   0.114321
    28  H    0.166412   0.010024
 Sum of Mulliken charges =  -1.00000   1.00000

 Dipole moment (field-independent basis, Debye):
    X=             -2.1676    Y=              3.0759    Z=              0.4280  Tot=              3.7872
 Quadrupole moment (field-independent basis, Debye-Ang):
   XX=           -141.3839   YY=           -115.9948   ZZ=            -94.7008
   XY=              5.0139   XZ=             -2.4437   YZ=             -0.6106

 Summary of Natural Population Analysis:

                                       Natural Population
                Natural  -----------------------------------------------
    Atom  No    Charge         Core      Valence    Rydberg      Total
 -----------------------------------------------------------------------
      C    1   -0.28685      0.99967     2.28243    0.00475     3.28685
      C    2   -0.19021      0.99964     2.18209    0.00848     3.19021
      C    3   -0.19367      0.99962     2.18503    0.00902     3.19367
      C    4   -0.19503      0.99961     2.18629    0.00913     3.19503
      C    5   -0.08619      0.99959     2.07410    0.01251     3.08619
      N    6   -0.26168      0.99967     2.74946    0.01256     3.76168
      C    7   -0.08064      0.99961     2.06967    0.01135     3.08064
      C    8   -0.29082      0.99966     2.28613    0.00503     3.29082
      C    9    0.15956      0.99966     1.82384    0.01694     2.84044
      N   10   -0.37330      0.99975     2.86439    0.00916     3.87330
      H   11    0.09802      0.00000     0.40069    0.00129     0.40198
      H   12    0.09742      0.00000     0.40168    0.00090     0.40258
      H   13    0.09594      0.00000     0.40285    0.00121     0.40406
      H   14    0.08892      0.00000     0.40947    0.00161     0.41108
      H   15    0.09532      0.00000     0.40367    0.00100     0.40468
      H   16    0.10154      0.00000     0.39715    0.00131     0.39846
      H   17    0.09589      0.00000     0.40304    0.00107     0.40411
      H   18    0.09998      0.00000     0.39838    0.00163     0.40002
      H   19    0.09973      0.00000     0.39866    0.00161     0.40027
      H   20    0.10315      0.00000     0.39517    0.00168     0.39685
      H   21    0.09406      0.00000     0.40410    0.00184     0.40594
      H   22    0.09564      0.00000     0.40274    0.00162     0.40436
      H   23    0.09902      0.00000     0.39883    0.00216     0.40098
      H   24    0.09642      0.00000     0.40244    0.00114     0.40358
      H   25    0.10354      0.00000     0.39400    0.00246     0.39646
      H   26    0.10030      0.00000     0.39816    0.00153     0.39970
      H   27    0.07678      0.00000     0.42169    0.00153     0.42322
      H   28    0.15715      0.00000     0.34009    0.00277     0.34285
 =======================================================================
   * Total *    0.00000      9.99648    29.87625    0.12727    40.00000

 Normal termination of Gaussian 16 at Tue Dec  8 13:37:53 2020.
