 Gaussian 16, Revision A.03,

 -----------------------------------------------------------
 # opt freq B3LYP/6-31G(d) empiricaldispersion=gd3bj scf=xqc
 -----------------------------------------------------------

 ------------------------------
 CID_88815032_JID_1587_neutraal
 ------------------------------
 Symbolic Z-matrix:
 Charge =  0 Multiplicity = 1

 SCF Done:  E(RB3LYP) =  -907.641594084     A.U. after   15 cycles
 SCF Done:  E(RB3LYP) =  -907.649580381     A.U. after   13 cycles
 SCF Done:  E(RB3LYP) =  -907.650519957     A.U. after   12 cycles
 SCF Done:  E(RB3LYP) =  -907.649766182     A.U. after   13 cycles
 SCF Done:  E(RB3LYP) =  -907.651282588     A.U. after   13 cycles
 SCF Done:  E(RB3LYP) =  -907.651461424     A.U. after   12 cycles
 SCF Done:  E(RB3LYP) =  -907.651566085     A.U. after   11 cycles
 SCF Done:  E(RB3LYP) =  -907.651603308     A.U. after   11 cycles
 SCF Done:  E(RB3LYP) =  -907.651611057     A.U. after   10 cycles
 SCF Done:  E(RB3LYP) =  -907.651611848     A.U. after    8 cycles
 SCF Done:  E(RB3LYP) =  -907.651612044     A.U. after    8 cycles
 Optimization completed.
    -- Stationary point found.
 Normal termination of Gaussian 16 at Tue Dec  8 20:24:50 2020.

 --------------------------------------------------------------------
 #N Geom=AllCheck Guess=TCheck SCRF=Check GenChk RB3LYP/6-31G(d) Freq
 --------------------------------------------------------------------

 Structure from the checkpoint file:  "JID_1587.chk"
 ------------------------------
 CID_88815032_JID_1587_neutraal
 ------------------------------
 Charge =  0 Multiplicity = 1

 SCF Done:  E(RB3LYP) =  -907.651612044     A.U. after    1 cycles

  Exact polarizability: 121.988   0.782  89.605  -7.719   2.050  60.613
 Approx polarizability: 164.052  -1.518 154.910 -17.766   5.721 103.407

                      1                      2                      3
                      A                      A                      A
 Frequencies --     37.2221                56.9653                76.9712
 Red. masses --      5.7354                 6.2713                 6.3819
 Frc consts  --      0.0047                 0.0120                 0.0223
 IR Inten    --      1.2298                 4.4086                 2.1552

                      4                      5                      6
                      A                      A                      A
 Frequencies --    103.9581               189.5731               236.4760
 Red. masses --      2.7395                 1.1340                 4.4907
 Frc consts  --      0.0174                 0.0240                 0.1480
 IR Inten    --      5.0863                69.1698                10.1651

                      7                      8                      9
                      A                      A                      A
 Frequencies --    262.1825               286.3325               298.0046
 Red. masses --      4.4120                 1.5117                 2.9431
 Frc consts  --      0.1787                 0.0730                 0.1540
 IR Inten    --      8.4919                26.2518                 6.0375

                     10                     11                     12
                      A                      A                      A
 Frequencies --    325.7318               355.6432               446.7842
 Red. masses --      4.1870                 6.1207                 5.9902
 Frc consts  --      0.2617                 0.4561                 0.7045
 IR Inten    --      2.7818                 4.7856                 2.5105

                     13                     14                     15
                      A                      A                      A
 Frequencies --    531.3906               568.6825               576.9873
 Red. masses --      2.3608                 3.3902                 7.2324
 Frc consts  --      0.3928                 0.6460                 1.4186
 IR Inten    --    138.0209                13.1370                 1.4659

                     16                     17                     18
                      A                      A                      A
 Frequencies --    622.0483               654.7948               660.5098
 Red. masses --      3.0771                 6.3657                 2.2402
 Frc consts  --      0.7015                 1.6081                 0.5758
 IR Inten    --    128.6937                45.8095               104.2177

                     19                     20                     21
                      A                      A                      A
 Frequencies --    684.9245               688.5658               757.4193
 Red. masses --      2.3361                 2.6240                 4.9779
 Frc consts  --      0.6457                 0.7330                 1.6825
 IR Inten    --      9.8835                12.4241                 7.4031

                     22                     23                     24
                      A                      A                      A
 Frequencies --    850.6935               875.2651               919.6154
 Red. masses --      3.7165                 1.3400                 6.2919
 Frc consts  --      1.5846                 0.6048                 3.1351
 IR Inten    --     19.3905               173.4503                 7.4509

                     25                     26                     27
                      A                      A                      A
 Frequencies --   1006.0547              1035.6800              1114.7716
 Red. masses --      4.1531                 2.2398                 2.3020
 Frc consts  --      2.4767                 1.4155                 1.6855
 IR Inten    --     28.0404                12.9245                35.5081

                     28                     29                     30
                      A                      A                      A
 Frequencies --   1141.3639              1164.2563              1188.8278
 Red. masses --      2.0164                 1.4578                 2.3748
 Frc consts  --      1.5476                 1.1643                 1.9775
 IR Inten    --     12.6388                15.1182               408.8435

                     31                     32                     33
                      A                      A                      A
 Frequencies --   1236.6165              1279.6706              1329.9689
 Red. masses --      1.6604                 1.3543                 3.9343
 Frc consts  --      1.4960                 1.3066                 4.1002
 IR Inten    --    315.4192                15.8844                76.9043

                     34                     35                     36
                      A                      A                      A
 Frequencies --   1372.0796              1456.1290              1524.5805
 Red. masses --      4.3920                 1.6455                 1.0810
 Frc consts  --      4.8716                 2.0556                 1.4804
 IR Inten    --    192.9526                24.5805                 9.6913

                     37                     38                     39
                      A                      A                      A
 Frequencies --   1596.5226              1608.8490              1678.4177
 Red. masses --      3.7763                 7.4409                 1.3972
 Frc consts  --      5.6710                11.3477                 2.3190
 IR Inten    --     61.5023               160.2481               152.6805

                     40                     41                     42
                      A                      A                      A
 Frequencies --   1679.6189              1861.3099              2947.3695
 Red. masses --      1.1138                10.4314                 1.0741
 Frc consts  --      1.8514                21.2926                 5.4977
 IR Inten    --     76.3279               177.8620                50.3705

                     43                     44                     45
                      A                      A                      A
 Frequencies --   3084.6193              3301.9310              3489.1524
 Red. masses --      1.0856                 1.0959                 1.0496
 Frc consts  --      6.0861                 7.0397                 7.5286
 IR Inten    --     19.0324                 4.8240                 4.0501

                     46                     47                     48
                      A                      A                      A
 Frequencies --   3557.1073              3580.1708              3664.2239
 Red. masses --      1.0472                 1.0931                 1.0996
 Frc consts  --      7.8069                 8.2553                 8.6989
 IR Inten    --     41.8316                 2.7242                28.9018

 - Thermochemistry -
 -------------------
 Temperature   298.150 Kelvin.  Pressure   1.00000 Atm.
 Atom     1 has atomic number  6 and mass  12.00000

 Molecular mass:   173.02590 amu.
 Principal axes and moments of inertia in atomic units:
                           1         2         3
     Eigenvalues --   685.376873890.408954206.30522
           X            0.99997   0.00608  -0.00568
           Y           -0.00614   0.99993  -0.01025
           Z            0.00562   0.01028   0.99993
 This molecule is an asymmetric top.
 Rotational symmetry number  1.
 Warning -- assumption of classical behavior for rotation
           may cause significant error
 Rotational temperatures (Kelvin)      0.12637     0.02226     0.02059
 Rotational constants (GHZ):           2.63321     0.46389     0.42906
 Zero-point vibrational energy     346713.9 (Joules/Mol)
                                   82.86660 (Kcal/Mol)
 Warning -- explicit consideration of  15 degrees of freedom as
           vibrations may cause significant error
 Vibrational temperatures:     53.55    81.96   110.74   149.57   272.75
          (Kelvin)            340.24   377.22   411.97   428.76   468.66
                              511.69   642.82   764.55   818.21   830.16
                              894.99   942.10   950.33   985.45   990.69
                             1089.76  1223.96  1259.31  1323.12  1447.49
                             1490.11  1603.91  1642.17  1675.11  1710.46
                             1779.22  1841.16  1913.53  1974.12  2095.04
                             2193.53  2297.04  2314.77  2414.87  2416.60
                             2678.01  4240.61  4438.08  4750.74  5020.11
                             5117.88  5151.07  5272.00

 Zero-point correction=                           0.132056 (Hartree/Particle)
 Thermal correction to Energy=                    0.143183
 Thermal correction to Enthalpy=                  0.144128
 Thermal correction to Gibbs Free Energy=         0.093806
 Sum of electronic and zero-point Energies=           -907.519556
 Sum of electronic and thermal Energies=              -907.508429
 Sum of electronic and thermal Enthalpies=            -907.507484
 Sum of electronic and thermal Free Energies=         -907.557806

                     E (Thermal)             CV                S
                      KCal/Mol        Cal/Mol-Kelvin    Cal/Mol-Kelvin
 Total                   89.849             39.942            105.910
 Electronic               0.000              0.000              0.000
 Translational            0.889              2.981             41.352
 Rotational               0.889              2.981             30.795
 Vibrational             88.072             33.981             33.763
 Vibration     1          0.594              1.982              5.402
 Vibration     2          0.596              1.975              4.560
 Vibration     3          0.599              1.965              3.967
 Vibration     4          0.605              1.946              3.379
 Vibration     5          0.633              1.854              2.232
 Vibration     6          0.655              1.785              1.829
 Vibration     7          0.669              1.742              1.647
 Vibration     8          0.684              1.699              1.496
 Vibration     9          0.691              1.677              1.428
 Vibration    10          0.710              1.624              1.281
 Vibration    11          0.731              1.564              1.141
 Vibration    12          0.806              1.368              0.806
 Vibration    13          0.886              1.181              0.584
 Vibration    14          0.925              1.099              0.507
 Vibration    15          0.933              1.081              0.491

                           ! Non-Optimized Parameters !
 Normal termination of Gaussian 16 at Tue Dec  8 20:27:51 2020.

 ----------------------------------------------------------------------
 # B3LYP/6-311++G(d,p) empiricaldispersion=gd3bj scf=xqc pop=npa geom=c
 heck
 ----------------------------------------------------------------------

 --------------------------------------
 CID_88815032_JID_1587_Energie_neutraal
 --------------------------------------
 Structure from the checkpoint file:  "JID_1587.chk"
 Charge =  0 Multiplicity = 1

 SCF Done:  E(RB3LYP) =  -907.841885104     A.U. after   15 cycles
 Normal termination of Gaussian 16 at Tue Dec  8 20:30:16 2020.

 ----------------------------------------------------------------------
 # B3LYP/6-311++G(d,p) empiricaldispersion=gd3bj scf=xqc pop=npa geom=c
 heck
 ----------------------------------------------------------------------

 ------------------------------------
 CID_88815032_JID_1587_Energie_kation
 ------------------------------------
 Structure from the checkpoint file:  "JID_1587.chk"
 Charge =  1 Multiplicity = 2

 SCF Done:  E(UB3LYP) =  -907.543880177     A.U. after   24 cycles
 Normal termination of Gaussian 16 at Tue Dec  8 20:33:22 2020.
 Gaussian 16:  ES64L-G16RevA.03 25-Dec-2016

 ----------------------------------------------------------------------
 # B3LYP/6-311++G(d,p) empiricaldispersion=gd3bj scf=xqc pop=npa geom=c
 heck
 ----------------------------------------------------------------------

 -----------------------------------
 CID_88815032_JID_1587_Energie_anion
 -----------------------------------
 Structure from the checkpoint file:  "JID_1587.chk"
 Charge = -1 Multiplicity = 2

                         Standard orientation:
 ---------------------------------------------------------------------
 Center     Atomic      Atomic             Coordinates (Angstroms)
 Number     Number       Type             X           Y           Z
 ---------------------------------------------------------------------
      1          6           0        1.053913   -1.473610   -0.000593
      2          6           0        0.314338   -0.407344    0.393301
      3          7           0        0.925242    0.818137    0.459299
      4          6           0        2.174116    0.705302    0.104974
      5         16           0        2.689205   -0.935491   -0.316745
      6          7           0        3.073904    1.745249    0.128809
      7          8           0       -1.008079   -0.505395    0.780119
      8          6           0       -1.944312    0.022472   -0.071406
      9          8           0       -1.700746    0.436433   -1.175423
     10          6           0       -3.301341    0.045361    0.596327
     11          7           0       -4.344357    0.147881   -0.413436
     12          1           0        0.748345   -2.499366   -0.135153
     13          1           0        3.821520    1.710121   -0.551980
     14          1           0        2.621829    2.650722    0.182471
     15          1           0       -3.418976   -0.870196    1.186872
     16          1           0       -3.257464    0.878271    1.324205
     17          1           0       -5.196733    0.517646   -0.001423
     18          1           0       -4.039021    0.800408   -1.132947
 ---------------------------------------------------------------------

 SCF Done:  E(UB3LYP) =  -907.832212099     A.U. after   32 cycles

 The electronic state is 2-A.
 Alpha  occ. eigenvalues --  -88.78266 -19.08396 -19.02264 -14.22931 -14.20764
 Alpha  occ. eigenvalues --  -14.19870 -10.20987 -10.17471 -10.16441 -10.11407
 Alpha  occ. eigenvalues --  -10.09806  -7.86875  -5.83184  -5.82837  -5.82401
 Alpha  occ. eigenvalues --   -1.02563  -0.94237  -0.88323  -0.80456  -0.79271
 Alpha  occ. eigenvalues --   -0.70443  -0.65802  -0.60074  -0.52575  -0.50871
 Alpha  occ. eigenvalues --   -0.45703  -0.43165  -0.41850  -0.40496  -0.39315
 Alpha  occ. eigenvalues --   -0.37845  -0.35850  -0.33639  -0.31948  -0.31831
 Alpha  occ. eigenvalues --   -0.30529  -0.29510  -0.28010  -0.23687  -0.21985
 Alpha  occ. eigenvalues --   -0.19639  -0.18915  -0.18136  -0.15244  -0.11747
 Alpha  occ. eigenvalues --    0.04368
 Alpha virt. eigenvalues --    0.05633   0.07758   0.07944   0.09119   0.09193
 Alpha virt. eigenvalues --    0.09396   0.10790   0.11200   0.11941   0.12609
 Alpha virt. eigenvalues --    0.12951   0.13749   0.15050   0.15634   0.15850

  Beta  occ. eigenvalues --  -88.78259 -19.08394 -19.02238 -14.22821 -14.20748
  Beta  occ. eigenvalues --  -14.19827 -10.20945 -10.17439 -10.16434 -10.11392
  Beta  occ. eigenvalues --  -10.09775  -7.86866  -5.83173  -5.82833  -5.82394
  Beta  occ. eigenvalues --   -1.02531  -0.94194  -0.88264  -0.80330  -0.79193
  Beta  occ. eigenvalues --   -0.70386  -0.65716  -0.59980  -0.52526  -0.50733
  Beta  occ. eigenvalues --   -0.45625  -0.43103  -0.41768  -0.40395  -0.39221
  Beta  occ. eigenvalues --   -0.37744  -0.35789  -0.33554  -0.31856  -0.31766
  Beta  occ. eigenvalues --   -0.30469  -0.29438  -0.27930  -0.23615  -0.21892
  Beta  occ. eigenvalues --   -0.19593  -0.18843  -0.18102  -0.15194  -0.11656
  Beta virt. eigenvalues --    0.06944   0.07787   0.07940   0.08222   0.09540
  Beta virt. eigenvalues --    0.09689   0.09802   0.11187   0.11598   0.12472
  Beta virt. eigenvalues --    0.12843   0.13403   0.13880   0.15077   0.15633

 Mulliken charges and spin densities:
               1          2
     1  C    1.068222  -0.182147
     2  C   -1.015382  -0.060423
     3  N    0.025665  -0.114439
     4  C    0.894413  -0.731592
     5  S   -0.389202   0.091159
     6  N   -0.317509   0.082422
     7  O   -0.052153   0.011588
     8  C   -0.059425   0.125237
     9  O   -0.230155   0.001493
    10  C    0.527018  -0.929205
    11  N   -0.383211   0.019038
    12  H    0.234826  -0.007172
    13  H   -0.835803   1.116973
    14  H   -0.098038   0.366096
    15  H    0.063491   0.126295
    16  H   -0.344870   0.528477
    17  H   -0.292202   0.524340
    18  H    0.204314   0.031862
 Sum of Mulliken charges =  -1.00000   1.00000

 Dipole moment (field-independent basis, Debye):
    X=             -0.4411    Y=             -6.1900    Z=              1.6772  Tot=              6.4283
 Quadrupole moment (field-independent basis, Debye-Ang):
   XX=           -170.0304   YY=            -97.2277   ZZ=            -94.5633
   XY=            -13.5414   XZ=              7.3032   YZ=              1.5505

 Summary of Natural Population Analysis:

                                       Natural Population
                Natural  -----------------------------------------------
    Atom  No    Charge         Core      Valence    Rydberg      Total
 -----------------------------------------------------------------------
      C    1   -0.23009      0.99944     2.22216    0.00848     3.23009
      C    2    0.22276      0.99933     1.76036    0.01755     2.77724
      N    3   -0.27757      0.99960     2.76477    0.01320     3.77757
      C    4    0.14568      0.99963     1.83353    0.02116     2.85432
      S    5    0.16729      4.99947     2.81229    0.02094     7.83271
      N    6   -0.39246      0.99969     2.88037    0.01240     3.89246
      O    7   -0.27737      0.99984     3.26919    0.00834     4.27737
      C    8    0.41391      0.99969     1.56106    0.02534     2.58609
      O    9   -0.28855      0.99986     3.28309    0.00559     4.28855
      C   10   -0.13702      0.99960     2.12570    0.01172     3.13702
      N   11   -0.42256      0.99977     2.91112    0.01166     3.92256
      H   12    0.11272      0.00000     0.38649    0.00079     0.38728
      H   13    0.20225      0.00000     0.26344    0.03430     0.29775
      H   14    0.19767      0.00000     0.29821    0.00412     0.30233
      H   15    0.10077      0.00000     0.39786    0.00137     0.39923
      H   16    0.10081      0.00000     0.39656    0.00263     0.39919
      H   17    0.17936      0.00000     0.31544    0.00520     0.32064
      H   18    0.18236      0.00000     0.31562    0.00202     0.31764
 =======================================================================
   * Total *    0.00000     14.99593    29.79728    0.20680    45.00000

 Normal termination of Gaussian 16 at Tue Dec  8 20:41:04 2020.
