 Gaussian 16, Revision A.03,

 -----------------------------------------------------------
 # opt freq B3LYP/6-31G(d) empiricaldispersion=gd3bj scf=xqc
 -----------------------------------------------------------

 ------------------------------
 CID_55255505_JID_1929_neutraal
 ------------------------------
 Symbolic Z-matrix:
 Charge =  0 Multiplicity = 1

 SCF Done:  E(RB3LYP) =  -503.037561379     A.U. after   13 cycles
 SCF Done:  E(RB3LYP) =  -503.040668467     A.U. after   11 cycles
 SCF Done:  E(RB3LYP) =  -503.041019738     A.U. after   10 cycles
 SCF Done:  E(RB3LYP) =  -503.041083626     A.U. after   10 cycles
 SCF Done:  E(RB3LYP) =  -503.041114035     A.U. after   10 cycles
 SCF Done:  E(RB3LYP) =  -503.041132995     A.U. after   10 cycles
 SCF Done:  E(RB3LYP) =  -503.041149063     A.U. after   10 cycles
 SCF Done:  E(RB3LYP) =  -503.041159775     A.U. after   10 cycles
 SCF Done:  E(RB3LYP) =  -503.041162179     A.U. after    9 cycles
 SCF Done:  E(RB3LYP) =  -503.041162708     A.U. after    8 cycles
 SCF Done:  E(RB3LYP) =  -503.041162920     A.U. after    8 cycles
 SCF Done:  E(RB3LYP) =  -503.041163094     A.U. after    8 cycles
 SCF Done:  E(RB3LYP) =  -503.041163154     A.U. after    7 cycles
 Optimization completed.
    -- Stationary point found.

 1\1\GINC-NODE109\FOpt\RB3LYP\6-31G(d)\C9H16O2\VSC10255\08-Dec-2020\0\\
 # opt freq B3LYP/6-31G(d) empiricaldispersion=gd3bj scf=xqc\\CID_55255
 505_JID_1929_neutraal\\0,1\C,1.1739808053,-0.1844040273,0.1866388827\C
 ,0.8783782722,0.3282212014,-1.2325342964\C,1.1708421504,-0.7101165075,
 -2.2816350462\C,0.3100913615,-1.3266545708,-3.0997870511\C,-1.17633172
 4,-1.1009299426,-3.1857291202\C,-1.6484643686,-0.5466246019,-4.5451128
 841\C,-1.6361972457,-1.5663152794,-5.6754544025\O,-2.216053914,-0.9726
 628448,-6.83168287\C,-1.3884076367,-1.3008384456,-7.9422870512\C,-0.01

 Normal termination of Gaussian 16 at Tue Dec  8 21:36:04 2020.

 --------------------------------------------------------------------
 #N Geom=AllCheck Guess=TCheck SCRF=Check GenChk RB3LYP/6-31G(d) Freq
 --------------------------------------------------------------------

 Structure from the checkpoint file:  "JID_1929.chk"
 ------------------------------
 CID_55255505_JID_1929_neutraal
 ------------------------------
 Charge =  0 Multiplicity = 1

 SCF Done:  E(RB3LYP) =  -503.041163154     A.U. after    1 cycles

  Exact polarizability: 131.267   1.418  91.936   6.233   2.372  80.873
 Approx polarizability: 152.081   6.394 133.191  11.818   3.041 121.537

                      1                      2                      3
                      A                      A                      A
 Frequencies --     16.5329                32.3727                41.6971
 Red. masses --      3.3872                 3.8232                 2.3036
 Frc consts  --      0.0005                 0.0024                 0.0024
 IR Inten    --      1.2825                 4.3270                 0.1133

                      4                      5                      6
                      A                      A                      A
 Frequencies --     47.4365                85.9586               182.7588
 Red. masses --      3.4076                 3.8370                 2.4815
 Frc consts  --      0.0045                 0.0167                 0.0488
 IR Inten    --      1.0036                 1.9832                 0.2614

                      7                      8                      9
                      A                      A                      A
 Frequencies --    193.3080               233.1578               264.5577
 Red. masses --      2.7827                 1.3134                 2.0125
 Frc consts  --      0.0613                 0.0421                 0.0830
 IR Inten    --      0.4749                 0.4743                 1.2210

                     10                     11                     12
                      A                      A                      A
 Frequencies --    303.0406               344.2798               426.4696
 Red. masses --      2.8011                 2.1379                 2.7010
 Frc consts  --      0.1516                 0.1493                 0.2894
 IR Inten    --      1.5491                 2.3776                 1.1647

                     13                     14                     15
                      A                      A                      A
 Frequencies --    453.9651               544.1057               570.6897
 Red. masses --      2.4790                 2.7186                 2.1294
 Frc consts  --      0.3010                 0.4742                 0.4086
 IR Inten    --      7.8866                 2.7996                 8.4242

                     16                     17                     18
                      A                      A                      A
 Frequencies --    650.2520               731.0898               771.1050
 Red. masses --      2.1890                 4.6294                 1.4380
 Frc consts  --      0.5453                 1.4579                 0.5038
 IR Inten    --      2.7912                 3.7428                34.5967

                     19                     20                     21
                      A                      A                      A
 Frequencies --    799.3178               810.0539               863.5968
 Red. masses --      1.3329                 2.5640                 2.0474
 Frc consts  --      0.5018                 0.9913                 0.8996
 IR Inten    --      5.1380                 7.1237                 8.3819

                     22                     23                     24
                      A                      A                      A
 Frequencies --    888.0520               921.4653               950.8500
 Red. masses --      1.9384                 1.9171                 2.2651
 Frc consts  --      0.9007                 0.9591                 1.2066
 IR Inten    --     15.2057                 3.6581                41.6260

                     25                     26                     27
                      A                      A                      A
 Frequencies --    957.4750               994.2014              1014.4387
 Red. masses --      2.2903                 4.1011                 1.3693
 Frc consts  --      1.2371                 2.3883                 0.8302
 IR Inten    --      9.4094                19.3064                 7.8147

                     28                     29                     30
                      A                      A                      A
 Frequencies --   1033.2228              1046.5022              1070.9356
 Red. masses --      2.0398                 2.5072                 2.2814
 Frc consts  --      1.2830                 1.6178                 1.5416
 IR Inten    --      2.3469                12.2571                 8.9601

                     31                     32                     33
                      A                      A                      A
 Frequencies --   1085.9897              1092.9237              1105.2616
 Red. masses --      3.5491                 2.3148                 1.6946
 Frc consts  --      2.4661                 1.6291                 1.2197
 IR Inten    --     25.7893                18.8861                 8.0043

                     34                     35                     36
                      A                      A                      A
 Frequencies --   1153.8018              1162.7679              1182.0084
 Red. masses --      2.2171                 1.9180                 2.7949
 Frc consts  --      1.7390                 1.5279                 2.3007
 IR Inten    --     92.2276                 3.6647               177.0349

                     37                     38                     39
                      A                      A                      A
 Frequencies --   1228.2954              1236.8600              1260.5579
 Red. masses --      1.3487                 1.1658                 1.2142
 Frc consts  --      1.1989                 1.0508                 1.1367
 IR Inten    --      9.9100                 1.9982                20.5686

                     40                     41                     42
                      A                      A                      A
 Frequencies --   1262.9540              1299.9687              1322.5000
 Red. masses --      1.2242                 1.2004                 1.1631
 Frc consts  --      1.1505                 1.1952                 1.1986
 IR Inten    --      0.1750                 0.4692                 0.2468

                     43                     44                     45
                      A                      A                      A
 Frequencies --   1334.1995              1353.9323              1364.4173
 Red. masses --      1.1813                 1.3379                 1.3315
 Frc consts  --      1.2389                 1.4450                 1.4604
 IR Inten    --     12.4262                11.5165                 1.5672

                     46                     47                     48
                      A                      A                      A
 Frequencies --   1375.0211              1400.1664              1412.7704
 Red. masses --      1.3369                 1.3226                 1.3932
 Frc consts  --      1.4893                 1.5277                 1.6383
 IR Inten    --      4.3159                13.4353                 8.4350

                     49                     50                     51
                      A                      A                      A
 Frequencies --   1434.2610              1441.8442              1462.4489
 Red. masses --      1.2370                 1.4144                 1.4135
 Frc consts  --      1.4993                 1.7325                 1.7812
 IR Inten    --      0.8923                34.5159                 2.2236

                     52                     53                     54
                      A                      A                      A
 Frequencies --   1503.6083              1509.4714              1524.0057
 Red. masses --      1.0955                 1.1019                 1.0718
 Frc consts  --      1.4592                 1.4793                 1.4667
 IR Inten    --      3.4328                 4.4629                 1.8600

                     55                     56                     57
                      A                      A                      A
 Frequencies --   1527.7565              1539.4056              1540.4189
 Red. masses --      1.0421                 1.0808                 1.0932
 Frc consts  --      1.4331                 1.5090                 1.5284
 IR Inten    --      6.0064                 4.7878                 0.8851

                     58                     59                     60
                      A                      A                      A
 Frequencies --   1548.1534              1747.1403              3000.8883
 Red. masses --      1.1079                 6.4530                 1.0845
 Frc consts  --      1.5645                11.6055                 5.7540
 IR Inten    --      0.8426                 0.7385                51.7182

                     61                     62                     63
                      A                      A                      A
 Frequencies --   3012.2294              3018.6687              3024.7488
 Red. masses --      1.0722                 1.0738                 1.0701
 Frc consts  --      5.7320                 5.7652                 5.7682
 IR Inten    --     54.6386                45.8694                26.4040

                     64                     65                     66
                      A                      A                      A
 Frequencies --   3029.3740              3045.6928              3053.4382
 Red. masses --      1.0665                 1.0348                 1.0612
 Frc consts  --      5.7667                 5.6558                 5.8293
 IR Inten    --     75.5189                41.1186                21.2868

                     67                     68                     69
                      A                      A                      A
 Frequencies --   3083.3676              3101.6890              3102.2451
 Red. masses --      1.0923                 1.1032                 1.0901
 Frc consts  --      6.1186                 6.2530                 6.1810
 IR Inten    --      9.2705                34.9110                12.4130

                     70                     71                     72
                      A                      A                      A
 Frequencies --   3113.9294              3120.2763              3123.6584
 Red. masses --      1.0996                 1.1023                 1.0936
 Frc consts  --      6.2818                 6.3232                 6.2867
 IR Inten    --     50.8615                33.1493                31.5545

                     73                     74                     75
                      A                      A                      A
 Frequencies --   3128.4690              3131.4435              3192.2081
 Red. masses --      1.1001                 1.0878                 1.0906
 Frc consts  --      6.3438                 6.2847                 6.5481
 IR Inten    --     39.7018                46.8549                14.1964

 - Thermochemistry -
 -------------------
 Temperature   298.150 Kelvin.  Pressure   1.00000 Atm.
 Atom     1 has atomic number  6 and mass  12.00000

 Molecular mass:   156.11503 amu.
 Principal axes and moments of inertia in atomic units:
                           1         2         3
     Eigenvalues --   567.251044379.165834646.89588
           X            0.99998  -0.00652   0.00007
           Y            0.00652   0.99960   0.02746
           Z           -0.00025  -0.02746   0.99962
 This molecule is an asymmetric top.
 Rotational symmetry number  1.
 Warning -- assumption of classical behavior for rotation
           may cause significant error
 Rotational temperatures (Kelvin)      0.15269     0.01978     0.01864
 Rotational constants (GHZ):           3.18156     0.41212     0.38838
 Zero-point vibrational energy     633650.7 (Joules/Mol)
                                  151.44615 (Kcal/Mol)
 Warning -- explicit consideration of  15 degrees of freedom as
           vibrations may cause significant error
 Vibrational temperatures:     23.79    46.58    59.99    68.25   123.68
          (Kelvin)            262.95   278.13   335.46   380.64   436.01
                              495.34   613.59   653.15   782.85   821.10
                              935.57  1051.88  1109.45  1150.04  1165.49
                             1242.52  1277.71  1325.78  1368.06  1377.59
                             1430.43  1459.55  1486.58  1505.68  1540.84
                             1562.50  1572.47  1590.22  1660.06  1672.96
                             1700.65  1767.24  1779.57  1813.66  1817.11
                             1870.36  1902.78  1919.62  1948.01  1963.09
                             1978.35  2014.53  2032.66  2063.58  2074.49
                             2104.14  2163.36  2171.79  2192.70  2198.10
                             2214.86  2216.32  2227.45  2513.75  4317.61
                             4333.93  4343.19  4351.94  4358.59  4382.07
                             4393.22  4436.28  4462.64  4463.44  4480.25
                             4489.38  4494.25  4501.17  4505.45  4592.88

 Zero-point correction=                           0.241345 (Hartree/Particle)
 Thermal correction to Energy=                    0.253455
 Thermal correction to Enthalpy=                  0.254399
 Thermal correction to Gibbs Free Energy=         0.199845
 Sum of electronic and zero-point Energies=           -502.799818
 Sum of electronic and thermal Energies=              -502.787708
 Sum of electronic and thermal Enthalpies=            -502.786764
 Sum of electronic and thermal Free Energies=         -502.841318

                     E (Thermal)             CV                S
                      KCal/Mol        Cal/Mol-Kelvin    Cal/Mol-Kelvin
 Total                  159.045             43.170            114.818
 Electronic               0.000              0.000              0.000
 Translational            0.889              2.981             41.046
 Rotational               0.889              2.981             30.824
 Vibrational            157.268             37.208             42.948
 Vibration     1          0.593              1.986              7.012
 Vibration     2          0.594              1.983              5.678
 Vibration     3          0.594              1.981              5.177
 Vibration     4          0.595              1.979              4.921
 Vibration     5          0.601              1.959              3.750
 Vibration     6          0.630              1.863              2.300
 Vibration     7          0.635              1.849              2.196
 Vibration     8          0.654              1.790              1.854
 Vibration     9          0.671              1.738              1.632
 Vibration    10          0.694              1.668              1.400
 Vibration    11          0.723              1.587              1.192
 Vibration    12          0.788              1.413              0.870
 Vibration    13          0.812              1.352              0.784
 Vibration    14          0.899              1.153              0.557
 Vibration    15          0.927              1.095              0.503

                           ! Non-Optimized Parameters !

 1\1\GINC-NODE109\Freq\RB3LYP\6-31G(d)\C9H16O2\VSC10255\08-Dec-2020\0\\
 #N Geom=AllCheck Guess=TCheck SCRF=Check GenChk RB3LYP/6-31G(d) Freq\\
 CID_55255505_JID_1929_neutraal\\0,1\C,1.1739808053,-0.1844040273,0.186
 6388827\C,0.8783782722,0.3282212014,-1.2325342964\C,1.1708421504,-0.71
 01165075,-2.2816350462\C,0.3100913615,-1.3266545708,-3.0997870511\C,-1
 .176331724,-1.1009299426,-3.1857291202\C,-1.6484643686,-0.5466246019,-
 4.5451128841\C,-1.6361972457,-1.5663152794,-5.6754544025\O,-2.21605391
 4,-0.9726628448,-6.83168287\C,-1.3884076367,-1.3008384456,-7.942287051

 Normal termination of Gaussian 16 at Tue Dec  8 21:41:26 2020.

 ----------------------------------------------------------------------
 # B3LYP/6-311++G(d,p) empiricaldispersion=gd3bj scf=xqc pop=npa geom=c
 heck
 ----------------------------------------------------------------------

 --------------------------------------
 CID_55255505_JID_1929_Energie_neutraal
 --------------------------------------
 Structure from the checkpoint file:  "JID_1929.chk"
 Charge =  0 Multiplicity = 1

 SCF Done:  E(RB3LYP) =  -503.186678211     A.U. after   13 cycles
 Normal termination of Gaussian 16 at Tue Dec  8 21:43:43 2020.

 ----------------------------------------------------------------------
 # B3LYP/6-311++G(d,p) empiricaldispersion=gd3bj scf=xqc pop=npa geom=c
 heck
 ----------------------------------------------------------------------

 ------------------------------------
 CID_55255505_JID_1929_Energie_kation
 ------------------------------------
 Structure from the checkpoint file:  "JID_1929.chk"
 Charge =  1 Multiplicity = 2

 SCF Done:  E(UB3LYP) =  -502.874969421     A.U. after   18 cycles
 Normal termination of Gaussian 16 at Tue Dec  8 21:49:26 2020.
 Gaussian 16:  ES64L-G16RevA.03 25-Dec-2016

 -----------------------------------
 CID_55255505_JID_1929_Energie_anion
 -----------------------------------
 Structure from the checkpoint file:  "JID_1929.chk"
 Charge = -1 Multiplicity = 2

                         Standard orientation:
 ---------------------------------------------------------------------
 Center     Atomic      Atomic             Coordinates (Angstroms)
 Number     Number       Type             X           Y           Z
 ---------------------------------------------------------------------
      1          6           0        4.861509    0.029019   -0.044107
      2          6           0        3.532852    0.071646    0.728596
      3          6           0        2.476228    0.852234   -0.005244
      4          6           0        1.329485    0.404373   -0.529443
      5          6           0        0.802538   -1.005527   -0.481511
      6          6           0       -0.521093   -1.153764    0.295738
      7          6           0       -1.741586   -0.615260   -0.437748
      8          8           0       -2.904829   -0.931633    0.318754
      9          6           0       -3.722913    0.232707    0.353267
     10          6           0       -2.690519    1.351626    0.278495
     11          8           0       -1.724103    0.801817   -0.611660
     12          1           0        4.734120   -0.480416   -1.005515
     13          1           0        5.635268   -0.498940    0.524929
     14          1           0        5.228302    1.041247   -0.251876
     15          1           0        3.197277   -0.950218    0.934631
     16          1           0        3.708169    0.540374    1.708036
     17          1           0        2.707706    1.911086   -0.135144
     18          1           0        0.680479    1.120239   -1.027680
     19          1           0        0.644779   -1.368827   -1.509118
     20          1           0        1.542340   -1.676733   -0.035095
     21          1           0       -0.715121   -2.216414    0.488180
     22          1           0       -0.451710   -0.654853    1.269224
     23          1           0       -1.812133   -1.051276   -1.446864
     24          1           0       -4.305066    0.216757    1.278262
     25          1           0       -4.405837    0.263611   -0.508837
     26          1           0       -2.251567    1.557277    1.265529
     27          1           0       -3.064555    2.283298   -0.153672
 ---------------------------------------------------------------------

 SCF Done:  E(UB3LYP) =  -503.169712969     A.U. after   31 cycles

 The electronic state is 2-A.
 Alpha  occ. eigenvalues --  -19.03666 -19.03487 -10.17273 -10.12324 -10.12300
 Alpha  occ. eigenvalues --  -10.07460 -10.07230 -10.06992 -10.06439 -10.06188
 Alpha  occ. eigenvalues --  -10.06119  -0.99714  -0.90266  -0.71848  -0.69340
 Alpha  occ. eigenvalues --   -0.65827  -0.61792  -0.55931  -0.53836  -0.52009
 Alpha  occ. eigenvalues --   -0.49260  -0.43504  -0.42225  -0.41126  -0.38183
 Alpha  occ. eigenvalues --   -0.36696  -0.35491  -0.34281  -0.32674  -0.32027
 Alpha  occ. eigenvalues --   -0.31603  -0.30160  -0.27875  -0.27354  -0.26790
 Alpha  occ. eigenvalues --   -0.25546  -0.24907  -0.24853  -0.24088  -0.21981
 Alpha  occ. eigenvalues --   -0.18225  -0.16278  -0.14553   0.04528
 Alpha virt. eigenvalues --    0.05880   0.07516   0.07952   0.08384   0.08869
 Alpha virt. eigenvalues --    0.09040   0.10129   0.10371   0.11156   0.11285
 Alpha virt. eigenvalues --    0.11838   0.12170   0.12691   0.13455   0.14209

  Beta  occ. eigenvalues --  -19.03663 -19.03487 -10.17263 -10.12289 -10.12265
  Beta  occ. eigenvalues --  -10.07449 -10.07219 -10.06975 -10.06428 -10.06172
  Beta  occ. eigenvalues --  -10.06080  -0.99704  -0.90256  -0.71815  -0.69303
  Beta  occ. eigenvalues --   -0.65782  -0.61748  -0.55886  -0.53758  -0.51941
  Beta  occ. eigenvalues --   -0.49220  -0.43467  -0.42186  -0.41085  -0.38151
  Beta  occ. eigenvalues --   -0.36642  -0.35456  -0.34241  -0.32640  -0.31986
  Beta  occ. eigenvalues --   -0.31567  -0.30122  -0.27825  -0.27317  -0.26753
  Beta  occ. eigenvalues --   -0.25519  -0.24888  -0.24818  -0.24060  -0.21954
  Beta  occ. eigenvalues --   -0.18199  -0.16255  -0.14483
  Beta virt. eigenvalues --    0.06638   0.07298   0.07976   0.08349   0.08857
  Beta virt. eigenvalues --    0.09517   0.09679   0.10537   0.10626   0.11549
  Beta virt. eigenvalues --    0.11657   0.12035   0.12438   0.12806   0.13730

 Mulliken charges and spin densities:
               1          2
     1  C    1.094594  -1.719505
     2  C   -0.549380   0.400004
     3  C   -0.226481   0.145236
     4  C    0.239910  -0.401490
     5  C   -0.145711   0.031616
     6  C    0.870809  -0.843725
     7  C   -1.120944   0.271811
     8  O   -0.145309   0.054648
     9  C    1.124627  -1.289002
    10  C    0.348594  -0.477066
    11  O   -0.141959   0.055564
    12  H   -0.112403   0.245242
    13  H   -0.465313   0.601350
    14  H   -0.183973   0.316706
    15  H   -0.116437   0.226626
    16  H   -0.177031   0.316725
    17  H   -0.120213   0.270181
    18  H    0.168288   0.054059
    19  H   -0.029209   0.154971
    20  H   -0.016475   0.176668
    21  H    0.055387   0.103040
    22  H    0.002107   0.157025
    23  H   -0.063597   0.251633
    24  H   -0.625607   0.788266
    25  H   -0.220823   0.353774
    26  H    0.009769   0.134550
    27  H   -0.453222   0.621093
 Sum of Mulliken charges =  -1.00000   1.00000

 Dipole moment (field-independent basis, Debye):
    X=             -0.6166    Y=             -1.4611    Z=             -1.6080  Tot=              2.2584
 Quadrupole moment (field-independent basis, Debye-Ang):
   XX=           -182.2398   YY=           -101.7936   ZZ=            -98.7341
   XY=              9.2528   XZ=             -0.2747   YZ=              0.3640

 Summary of Natural Population Analysis:

                                       Natural Population
                Natural  -----------------------------------------------
    Atom  No    Charge         Core      Valence    Rydberg      Total
 -----------------------------------------------------------------------
      C    1   -0.28055      0.99966     2.27588    0.00500     3.28055
      C    2   -0.20974      0.99962     2.20110    0.00901     3.20974
      C    3   -0.09122      0.99952     2.08176    0.00994     3.09122
      C    4   -0.09102      0.99951     2.08132    0.01019     3.09102
      C    5   -0.20910      0.99960     2.20006    0.00943     3.20910
      C    6   -0.20177      0.99959     2.19380    0.00838     3.20177
      C    7    0.22910      0.99958     1.75382    0.01751     2.77090
      O    8   -0.30316      0.99989     3.29437    0.00891     4.30316
      C    9   -0.02279      0.99960     2.01089    0.01230     3.02279
      C   10   -0.02444      0.99960     2.01179    0.01305     3.02444
      O   11   -0.30551      0.99989     3.29671    0.00891     4.30551
      H   12    0.09633      0.00000     0.40249    0.00118     0.40367
      H   13    0.09916      0.00000     0.39897    0.00186     0.40084
      H   14    0.09494      0.00000     0.40374    0.00132     0.40506
      H   15    0.09634      0.00000     0.40212    0.00154     0.40366
      H   16    0.09943      0.00000     0.39919    0.00137     0.40057
      H   17    0.09101      0.00000     0.40796    0.00102     0.40899
      H   18    0.10205      0.00000     0.39628    0.00167     0.39795
      H   19    0.09913      0.00000     0.39954    0.00133     0.40087
      H   20    0.10102      0.00000     0.39749    0.00150     0.39898
      H   21    0.10314      0.00000     0.39545    0.00141     0.39686
      H   22    0.10196      0.00000     0.39640    0.00163     0.39804
      H   23    0.07156      0.00000     0.42680    0.00164     0.42844
      H   24    0.09563      0.00000     0.40180    0.00257     0.40437
      H   25    0.08112      0.00000     0.41704    0.00184     0.41888
      H   26    0.08196      0.00000     0.41657    0.00147     0.41804
      H   27    0.09539      0.00000     0.40246    0.00215     0.40461
 =======================================================================
   * Total *   -0.00000     10.99607    31.86580    0.13813    43.00000

 Normal termination of Gaussian 16 at Tue Dec  8 21:57:20 2020.
