 Gaussian 16, Revision A.03,

 -----------------------------------------------------------
 # opt freq B3LYP/6-31G(d) empiricaldispersion=gd3bj scf=xqc
 -----------------------------------------------------------

 -------------------------------
 CID_113607246_JID_7790_neutraal
 -------------------------------
 Symbolic Z-matrix:
 Charge =  0 Multiplicity = 1

 SCF Done:  E(RB3LYP) =  -694.359749205     A.U. after   13 cycles
 SCF Done:  E(RB3LYP) =  -694.371381860     A.U. after   12 cycles
 SCF Done:  E(RB3LYP) =  -694.372248058     A.U. after   11 cycles
 SCF Done:  E(RB3LYP) =  -694.372708674     A.U. after   11 cycles
 SCF Done:  E(RB3LYP) =  -694.373058110     A.U. after   12 cycles
 SCF Done:  E(RB3LYP) =  -694.373392826     A.U. after   11 cycles
 SCF Done:  E(RB3LYP) =  -694.373976627     A.U. after   12 cycles
 SCF Done:  E(RB3LYP) =  -694.374121961     A.U. after   11 cycles
 SCF Done:  E(RB3LYP) =  -694.374248012     A.U. after   12 cycles
 SCF Done:  E(RB3LYP) =  -694.374277714     A.U. after   11 cycles
 SCF Done:  E(RB3LYP) =  -694.382027041     A.U. after    8 cycles
 SCF Done:  E(RB3LYP) =  -694.382027700     A.U. after    7 cycles
 SCF Done:  E(RB3LYP) =  -694.382027873     A.U. after    7 cycles
 SCF Done:  E(RB3LYP) =  -694.382027925     A.U. after    7 cycles
 SCF Done:  E(RB3LYP) =  -694.382027947     A.U. after    6 cycles
 Optimization completed.
    -- Stationary point found.
 Normal termination of Gaussian 16 at Fri Dec 11 13:24:21 2020.

 --------------------------------------------------------------------
 #N Geom=AllCheck Guess=TCheck SCRF=Check GenChk RB3LYP/6-31G(d) Freq
 --------------------------------------------------------------------

 Structure from the checkpoint file:  "JID_7790.chk"
 -------------------------------
 CID_113607246_JID_7790_neutraal
 -------------------------------
 Charge =  0 Multiplicity = 1

 SCF Done:  E(RB3LYP) =  -694.382027948     A.U. after    1 cycles

  Exact polarizability: 213.810   0.470 170.755 -14.800  -8.535 114.810
 Approx polarizability: 284.218   5.267 266.604 -34.947 -17.272 179.037

                      1                      2                      3
                      A                      A                      A
 Frequencies --     26.9615                33.5366                58.6480
 Red. masses --      2.7988                 3.5963                 4.1389
 Frc consts  --      0.0012                 0.0024                 0.0084
 IR Inten    --      0.0233                 0.2519                 0.0410

                      4                      5                      6
                      A                      A                      A
 Frequencies --     92.4859               101.9871               143.2294
 Red. masses --      3.1528                 3.0824                 2.7103
 Frc consts  --      0.0159                 0.0189                 0.0328
 IR Inten    --      0.2944                 0.1540                 0.4519

                      7                      8                      9
                      A                      A                      A
 Frequencies --    162.2960               193.2424               215.7034
 Red. masses --      2.4370                 2.3604                 3.3057
 Frc consts  --      0.0378                 0.0519                 0.0906
 IR Inten    --      1.0916                 0.6057                 0.1712

                     10                     11                     12
                      A                      A                      A
 Frequencies --    279.5508               289.2427               320.4984
 Red. masses --      3.0485                 3.5740                 3.4636
 Frc consts  --      0.1404                 0.1762                 0.2096
 IR Inten    --      0.6764                 0.3998                 0.5073

                     13                     14                     15
                      A                      A                      A
 Frequencies --    351.3751               358.3830               404.2310
 Red. masses --      3.3474                 2.4025                 2.8226
 Frc consts  --      0.2435                 0.1818                 0.2717
 IR Inten    --      3.5830                23.2731                 1.8955

                     16                     17                     18
                      A                      A                      A
 Frequencies --    437.2707               463.3672               491.2790
 Red. masses --      3.1989                 3.0319                 2.8681
 Frc consts  --      0.3604                 0.3835                 0.4079
 IR Inten    --      2.0002                 0.3056                 3.2192

                     19                     20                     21
                      A                      A                      A
 Frequencies --    502.3065               534.7649               574.5998
 Red. masses --      2.6485                 3.3359                 1.6788
 Frc consts  --      0.3937                 0.5621                 0.3266
 IR Inten    --      3.8573                 3.2258                 5.2517

                     22                     23                     24
                      A                      A                      A
 Frequencies --    611.1966               638.4948               665.8394
 Red. masses --      2.4026                 2.8049                 3.8872
 Frc consts  --      0.5288                 0.6737                 1.0154
 IR Inten    --      9.7362                 2.9928                 3.2738

                     25                     26                     27
                      A                      A                      A
 Frequencies --    708.2791               711.5617               726.2576
 Red. masses --      2.3274                 2.1557                 2.0130
 Frc consts  --      0.6879                 0.6431                 0.6256
 IR Inten    --     41.7997                89.1890                14.4413

                     28                     29                     30
                      A                      A                      A
 Frequencies --    763.8543               786.2188               793.6171
 Red. masses --      1.2753                 1.5196                 2.1645
 Frc consts  --      0.4384                 0.5535                 0.8032
 IR Inten    --     15.6622                26.9328                 2.0715

                     31                     32                     33
                      A                      A                      A
 Frequencies --    803.8269               845.9459               863.0259
 Red. masses --      1.2933                 2.4856                 1.5123
 Frc consts  --      0.4924                 1.0480                 0.6636
 IR Inten    --      0.1757                17.3938                16.1782

                     34                     35                     36
                      A                      A                      A
 Frequencies --    864.5687               868.4651               898.0109
 Red. masses --      1.4730                 2.3032                 2.2300
 Frc consts  --      0.6487                 1.0235                 1.0596
 IR Inten    --      5.1719                 7.1415                 2.7939

                     37                     38                     39
                      A                      A                      A
 Frequencies --    923.3325               944.4554               952.9129
 Red. masses --      2.1198                 2.2055                 2.1577
 Frc consts  --      1.0648                 1.1591                 1.1544
 IR Inten    --      0.4452                 2.3191                19.1105

                     40                     41                     42
                      A                      A                      A
 Frequencies --    958.7461               962.2417               969.5709
 Red. masses --      1.2597                 1.9249                 1.4646
 Frc consts  --      0.6822                 1.0501                 0.8112
 IR Inten    --      0.6351                 5.3548                 2.0466

                     43                     44                     45
                      A                      A                      A
 Frequencies --    987.6034              1013.2473              1031.0982
 Red. masses --      2.0992                 5.1084                 2.8113
 Frc consts  --      1.2063                 3.0901                 1.7610
 IR Inten    --     10.6640                 5.9036                 1.3970

                     46                     47                     48
                      A                      A                      A
 Frequencies --   1041.8798              1060.4168              1063.1109
 Red. masses --      2.4141                 2.2600                 2.5942
 Frc consts  --      1.5439                 1.4973                 1.7275
 IR Inten    --      5.8931                 1.7063                21.6920

                     49                     50                     51
                      A                      A                      A
 Frequencies --   1097.8865              1135.2794              1140.6082
 Red. masses --      1.7071                 1.6692                 2.1887
 Frc consts  --      1.2124                 1.2675                 1.6777
 IR Inten    --      4.5521                 2.3516                 0.5637

                     52                     53                     54
                      A                      A                      A
 Frequencies --   1149.7914              1177.5506              1206.4705
 Red. masses --      1.8448                 3.6406                 2.1744
 Frc consts  --      1.4369                 2.9743                 1.8648
 IR Inten    --      9.1192                32.7557                37.1863

                     55                     56                     57
                      A                      A                      A
 Frequencies --   1211.8882              1217.3317              1220.9917
 Red. masses --      1.3496                 1.1566                 1.5722
 Frc consts  --      1.1678                 1.0098                 1.3810
 IR Inten    --      4.6675                 4.4447                20.3023

                     58                     59                     60
                      A                      A                      A
 Frequencies --   1248.8468              1257.0921              1267.9993
 Red. masses --      1.3529                 1.4037                 1.1349
 Frc consts  --      1.2431                 1.3069                 1.0750
 IR Inten    --      2.5724                 8.0680                 1.4679

                     61                     62                     63
                      A                      A                      A
 Frequencies --   1270.2863              1285.1052              1291.1590
 Red. masses --      1.3503                 1.4932                 1.4521
 Frc consts  --      1.2838                 1.4530                 1.4262
 IR Inten    --      0.1097                13.7020                 5.9951

                     64                     65                     66
                      A                      A                      A
 Frequencies --   1293.7767              1300.1041              1322.0073
 Red. masses --      1.5815                 1.4008                 1.2540
 Frc consts  --      1.5596                 1.3950                 1.2912
 IR Inten    --     25.8577                 3.4899                 7.0992

                     67                     68                     69
                      A                      A                      A
 Frequencies --   1341.1211              1354.5303              1371.5722
 Red. masses --      1.5670                 1.6380                 1.9355
 Frc consts  --      1.6606                 1.7707                 2.1453
 IR Inten    --      4.7868                 1.5925                 6.2299

                     70                     71                     72
                      A                      A                      A
 Frequencies --   1375.9396              1382.1611              1391.1620
 Red. masses --      1.5860                 1.6352                 1.3751
 Frc consts  --      1.7691                 1.8405                 1.5680
 IR Inten    --     13.6267                38.3826                12.9298

                     73                     74                     75
                      A                      A                      A
 Frequencies --   1407.8712              1417.8561              1425.2608
 Red. masses --      1.2472                 1.3483                 1.4303
 Frc consts  --      1.4565                 1.5969                 1.7119
 IR Inten    --     20.5173                53.5511                30.5645

                     76                     77                     78
                      A                      A                      A
 Frequencies --   1445.3706              1494.0707              1504.3799
 Red. masses --      1.4537                 3.0298                 1.0912
 Frc consts  --      1.7893                 3.9848                 1.4550
 IR Inten    --     12.0115                37.8073                 2.6272

                     79                     80                     81
                      A                      A                      A
 Frequencies --   1511.2998              1511.5369              1516.3999
 Red. masses --      1.1634                 1.1066                 1.0877
 Frc consts  --      1.5656                 1.4896                 1.4736
 IR Inten    --     15.1202                 3.4283                 1.6987

                     82                     83                     84
                      A                      A                      A
 Frequencies --   1516.6042              1526.4110              1529.4458
 Red. masses --      1.1600                 1.1180                 1.1079
 Frc consts  --      1.5720                 1.5347                 1.5269
 IR Inten    --      8.1588                 4.0942                 4.5399

                     85                     86                     87
                      A                      A                      A
 Frequencies --   1542.9515              1547.9263              1551.3183
 Red. masses --      1.1373                 1.2398                 1.9970
 Frc consts  --      1.5952                 1.7503                 2.8315
 IR Inten    --      0.8624                 3.1585                95.4243

                     88                     89                     90
                      A                      A                      A
 Frequencies --   1636.4922              1664.8855              3026.5777
 Red. masses --      5.3418                 5.6318                 1.0837
 Frc consts  --      8.4288                 9.1974                 5.8487
 IR Inten    --     42.4610               199.3669                16.3102

                     91                     92                     93
                      A                      A                      A
 Frequencies --   3028.8883              3036.5501              3040.4361
 Red. masses --      1.0666                 1.0633                 1.0665
 Frc consts  --      5.7655                 5.7763                 5.8086
 IR Inten    --     16.6194                44.5815                73.8701

                     94                     95                     96
                      A                      A                      A
 Frequencies --   3045.8282              3062.0153              3065.0784
 Red. masses --      1.0631                 1.0640                 1.0569
 Frc consts  --      5.8106                 5.8777                 5.8499
 IR Inten    --     46.1472                61.5674                48.0620

                     97                     98                     99
                      A                      A                      A
 Frequencies --   3068.2528              3073.0331              3073.4025
 Red. masses --      1.0569                 1.0981                 1.0630
 Frc consts  --      5.8623                 6.1096                 5.9160
 IR Inten    --     33.5482                 8.6278                27.2566

                    100                    101                    102
                      A                      A                      A
 Frequencies --   3082.5791              3094.4322              3096.2454
 Red. masses --      1.0992                 1.1032                 1.0988
 Frc consts  --      6.1540                 6.2238                 6.2065
 IR Inten    --     35.3648                11.1879                16.7806

                    103                    104                    105
                      A                      A                      A
 Frequencies --   3106.3332              3109.4912              3117.6738
 Red. masses --      1.1010                 1.1073                 1.1093
 Frc consts  --      6.2593                 6.3081                 6.3529
 IR Inten    --    100.9264                20.2482                18.2570

                    106                    107                    108
                      A                      A                      A
 Frequencies --   3131.3719              3179.1718              3200.3594
 Red. masses --      1.1082                 1.0866                 1.0932
 Frc consts  --      6.4022                 6.4704                 6.5971
 IR Inten    --     72.9941                13.4031                25.3248

                    109                    110                    111
                      A                      A                      A
 Frequencies --   3225.4476              3230.9469              3493.7558
 Red. masses --      1.0876                 1.0906                 1.0736
 Frc consts  --      6.6665                 6.7078                 7.7214
 IR Inten    --     10.9467                17.4750                 2.3155

 - Thermochemistry -
 -------------------
 Temperature   298.150 Kelvin.  Pressure   1.00000 Atm.
 Atom     1 has atomic number  6 and mass  12.00000

 Molecular mass:   230.17830 amu.
 Principal axes and moments of inertia in atomic units:
                           1         2         3
     Eigenvalues --  2002.084746711.621537820.13778
           X            0.99996  -0.00837  -0.00078
           Y            0.00836   0.99987  -0.01400
           Z            0.00090   0.01399   0.99990
 This molecule is an asymmetric top.
 Rotational symmetry number  1.
 Warning -- assumption of classical behavior for rotation
           may cause significant error
 Rotational temperatures (Kelvin)      0.04326     0.01291     0.01108
 Rotational constants (GHZ):           0.90143     0.26890     0.23078
 Zero-point vibrational energy     921970.0 (Joules/Mol)
                                  220.35612 (Kcal/Mol)
 Warning -- explicit consideration of  22 degrees of freedom as
           vibrations may cause significant error
 Vibrational temperatures:     38.79    48.25    84.38   133.07   146.74
          (Kelvin)            206.08   233.51   278.03   310.35   402.21
                              416.16   461.13   505.55   515.63   581.60
                              629.13   666.68   706.84   722.71   769.41
                              826.72   879.38   918.65   957.99  1019.06
                             1023.78  1044.92  1099.02  1131.19  1141.84
                             1156.53  1217.13  1241.70  1243.92  1249.53
                             1292.04  1328.47  1358.86  1371.03  1379.42
                             1384.45  1395.00  1420.94  1457.84  1483.52
                             1499.03  1525.70  1529.58  1579.61  1633.41
                             1641.08  1654.29  1694.23  1735.84  1743.64
                             1751.47  1756.73  1796.81  1808.68  1824.37
                             1827.66  1848.98  1857.69  1861.46  1870.56
                             1902.07  1929.57  1948.87  1973.39  1979.67
                             1988.62  2001.57  2025.61  2039.98  2050.63
                             2079.57  2149.63  2164.47  2174.42  2174.76
                             2181.76  2182.06  2196.16  2200.53  2219.96
                             2227.12  2232.00  2354.55  2395.40  4354.57
                             4357.89  4368.92  4374.51  4382.27  4405.56
                             4409.96  4414.53  4421.41  4421.94  4435.14
                             4452.20  4454.81  4469.32  4473.86  4485.64
                             4505.35  4574.12  4604.60  4640.70  4648.61
                             5026.74

 Zero-point correction=                           0.351160 (Hartree/Particle)
 Thermal correction to Energy=                    0.366324
 Thermal correction to Enthalpy=                  0.367269
 Thermal correction to Gibbs Free Energy=         0.307729
 Sum of electronic and zero-point Energies=           -694.030868
 Sum of electronic and thermal Energies=              -694.015704
 Sum of electronic and thermal Enthalpies=            -694.014759
 Sum of electronic and thermal Free Energies=         -694.074299

                     E (Thermal)             CV                S
                      KCal/Mol        Cal/Mol-Kelvin    Cal/Mol-Kelvin
 Total                  229.872             61.119            125.311
 Electronic               0.000              0.000              0.000
 Translational            0.889              2.981             42.203
 Rotational               0.889              2.981             33.019
 Vibrational            228.095             55.158             50.089
 Vibration     1          0.593              1.984              6.041
 Vibration     2          0.594              1.983              5.608
 Vibration     3          0.596              1.974              4.502
 Vibration     4          0.602              1.955              3.607
 Vibration     5          0.604              1.948              3.416
 Vibration     6          0.616              1.910              2.760
 Vibration     7          0.622              1.889              2.523
 Vibration     8          0.635              1.849              2.196
 Vibration     9          0.645              1.817              1.995
 Vibration    10          0.680              1.711              1.536
 Vibration    11          0.686              1.694              1.478
 Vibration    12          0.706              1.634              1.308
 Vibration    13          0.728              1.572              1.160
 Vibration    14          0.733              1.558              1.129
 Vibration    15          0.769              1.461              0.947
 Vibration    16          0.798              1.389              0.835
 Vibration    17          0.821              1.331              0.756
 Vibration    18          0.847              1.269              0.680
 Vibration    19          0.858              1.245              0.652
 Vibration    20          0.890              1.173              0.577
 Vibration    21          0.931              1.086              0.495
 Vibration    22          0.970              1.008              0.431

                           ! Non-Optimized Parameters !
 Normal termination of Gaussian 16 at Fri Dec 11 13:38:45 2020.

 ----------------------------------------------------------------------
 # B3LYP/6-311++G(d,p) empiricaldispersion=gd3bj scf=xqc pop=npa geom=c
 heck
 ----------------------------------------------------------------------

 ---------------------------------------
 CID_113607246_JID_7790_Energie_neutraal
 ---------------------------------------
 Structure from the checkpoint file:  "JID_7790.chk"
 Charge =  0 Multiplicity = 1

 SCF Done:  E(RB3LYP) =  -694.565413585     A.U. after   15 cycles
 Normal termination of Gaussian 16 at Fri Dec 11 13:45:40 2020.

 ----------------------------------------------------------------------
 # B3LYP/6-311++G(d,p) empiricaldispersion=gd3bj scf=xqc pop=npa geom=c
 heck
 ----------------------------------------------------------------------

 -------------------------------------
 CID_113607246_JID_7790_Energie_kation
 -------------------------------------
 Structure from the checkpoint file:  "JID_7790.chk"
 Charge =  1 Multiplicity = 2

 SCF Done:  E(UB3LYP) =  -694.315355381     A.U. after   20 cycles
 Normal termination of Gaussian 16 at Fri Dec 11 13:57:28 2020.
 Gaussian 16:  ES64L-G16RevA.03 25-Dec-2016

 ----------------------------------------------------------------------
 # B3LYP/6-311++G(d,p) empiricaldispersion=gd3bj scf=xqc pop=npa geom=c
 heck
 ----------------------------------------------------------------------

 ------------------------------------
 CID_113607246_JID_7790_Energie_anion
 ------------------------------------
 Structure from the checkpoint file:  "JID_7790.chk"
 Charge = -1 Multiplicity = 2

                         Standard orientation:
 ---------------------------------------------------------------------
 Center     Atomic      Atomic             Coordinates (Angstroms)
 Number     Number       Type             X           Y           Z
 ---------------------------------------------------------------------
      1          6           0        4.831484   -1.218216    0.129519
      2          6           0        3.328948   -1.582926    0.244290
      3          6           0        2.999891   -0.302101   -0.573991
      4          6           0        4.413189    0.235970   -0.207363
      5          6           0        1.783175    0.518397   -0.234675
      6          6           0        0.629245   -0.109394    0.236947
      7          6           0       -0.541594    0.614904    0.546906
      8          6           0       -0.512473    2.011564    0.343058
      9          6           0        0.640077    2.634794   -0.125344
     10          6           0        1.790873    1.905547   -0.415911
     11          7           0       -1.676122   -0.012866    1.063103
     12          6           0       -2.959550    0.678753    1.043122
     13          6           0       -3.562229    0.918647   -0.359512
     14          6           0       -3.206491   -0.168075   -1.394763
     15          7           0       -3.284118   -1.566260   -0.969886
     16          6           0       -2.101972   -2.087646   -0.292913
     17          6           0       -1.775530   -1.467503    1.078590
     18          1           0        5.303646   -1.712231   -0.726150
     19          1           0        5.459058   -1.373752    1.012041
     20          1           0        3.001458   -2.547298   -0.156936
     21          1           0        2.969253   -1.488395    1.274497
     22          1           0        2.982407   -0.556089   -1.643210
     23          1           0        4.367630    0.862919    0.689320
     24          1           0        4.976146    0.767040   -0.981116
     25          1           0        0.652677   -1.184827    0.360856
     26          1           0       -1.383160    2.617304    0.560661
     27          1           0        0.633134    3.712977   -0.264592
     28          1           0        2.682917    2.403527   -0.784243
     29          1           0       -2.878130    1.627772    1.584759
     30          1           0       -3.645542    0.060929    1.629881
     31          1           0       -4.653046    0.993060   -0.250288
     32          1           0       -3.228540    1.882544   -0.762473
     33          1           0       -3.858190   -0.030738   -2.268246
     34          1           0       -2.181854   -0.002909   -1.745106
     35          1           0       -4.126478   -1.740071   -0.425207
     36          1           0       -1.251404   -1.935763   -0.967596
     37          1           0       -2.219930   -3.172983   -0.170707
     38          1           0       -0.853212   -1.898560    1.483864
     39          1           0       -2.569400   -1.726870    1.789706
 ---------------------------------------------------------------------

 SCF Done:  E(UB3LYP) =  -694.551758608     A.U. after   33 cycles
 SCF Done:  E(UB3LYP) =  -694.551758608     a.u. after    1 cycles

 The electronic state is 2-A.
 Alpha  occ. eigenvalues --  -14.23171 -14.19824 -10.11994 -10.10410 -10.10177
 Alpha  occ. eigenvalues --  -10.09527 -10.09515 -10.08737 -10.08416 -10.08047
 Alpha  occ. eigenvalues --  -10.07965 -10.07928 -10.07746 -10.07042 -10.07038
 Alpha  occ. eigenvalues --  -10.06849 -10.06653  -0.85830  -0.80245  -0.76961
 Alpha  occ. eigenvalues --   -0.74309  -0.68848  -0.66229  -0.65339  -0.60526
 Alpha  occ. eigenvalues --   -0.58970  -0.57244  -0.56786  -0.53362  -0.50493
 Alpha  occ. eigenvalues --   -0.49428  -0.47444  -0.45213  -0.43182  -0.40425
 Alpha  occ. eigenvalues --   -0.39611  -0.38744  -0.38128  -0.37527  -0.36657
 Alpha  occ. eigenvalues --   -0.35463  -0.34438  -0.32725  -0.32150  -0.31188
 Alpha  occ. eigenvalues --   -0.30866  -0.30042  -0.29252  -0.28543  -0.27561
 Alpha  occ. eigenvalues --   -0.26762  -0.26238  -0.25859  -0.25070  -0.24919
 Alpha  occ. eigenvalues --   -0.24047  -0.23226  -0.22176  -0.21811  -0.19191
 Alpha  occ. eigenvalues --   -0.15078  -0.12900  -0.09827   0.04166
 Alpha virt. eigenvalues --    0.05462   0.06510   0.07241   0.07332   0.07603
 Alpha virt. eigenvalues --    0.08011   0.08404   0.09001   0.09336   0.09662
 Alpha virt. eigenvalues --    0.09999   0.10181   0.10882   0.10961   0.11531

  Beta  occ. eigenvalues --  -14.23171 -14.19800 -10.11992 -10.10385 -10.10154
  Beta  occ. eigenvalues --  -10.09522 -10.09500 -10.08731 -10.08416 -10.08030
  Beta  occ. eigenvalues --  -10.07960 -10.07916 -10.07731 -10.07032 -10.07022
  Beta  occ. eigenvalues --  -10.06835 -10.06649  -0.85816  -0.80204  -0.76944
  Beta  occ. eigenvalues --   -0.74295  -0.68812  -0.66211  -0.65318  -0.60487
  Beta  occ. eigenvalues --   -0.58937  -0.57208  -0.56755  -0.53320  -0.50461
  Beta  occ. eigenvalues --   -0.49376  -0.47404  -0.45179  -0.43156  -0.40393
  Beta  occ. eigenvalues --   -0.39568  -0.38710  -0.38105  -0.37498  -0.36623
  Beta  occ. eigenvalues --   -0.35436  -0.34414  -0.32694  -0.32116  -0.31156
  Beta  occ. eigenvalues --   -0.30834  -0.30023  -0.29224  -0.28512  -0.27542
  Beta  occ. eigenvalues --   -0.26730  -0.26214  -0.25837  -0.25046  -0.24882
  Beta  occ. eigenvalues --   -0.24013  -0.23201  -0.22156  -0.21788  -0.19167
  Beta  occ. eigenvalues --   -0.15046  -0.12862  -0.09797
  Beta virt. eigenvalues --    0.05942   0.06563   0.07035   0.07392   0.07847
  Beta virt. eigenvalues --    0.08084   0.08336   0.08553   0.09079   0.09572
  Beta virt. eigenvalues --    0.10097   0.10359   0.10386   0.10986   0.11132

 Mulliken charges and spin densities:
               1          2
     1  C    0.417963  -0.763662
     2  C    0.025643  -0.617273
     3  C   -0.593513   1.277221
     4  C   -0.101531  -0.534283
     5  C    1.573979  -1.106013
     6  C   -0.490448  -0.080753
     7  C   -0.992568   1.109634
     8  C   -0.067076  -0.155679
     9  C    0.364016  -0.809154
    10  C   -0.471474   0.090569
    11  N    0.137156   0.006849
    12  C    0.565809  -0.838240
    13  C   -0.426608   0.159441
    14  C    0.617805  -0.984706
    15  N   -0.204963   0.089705
    16  C    0.147623  -0.559133
    17  C    0.088866  -0.322826
    18  H   -0.120871   0.273129
    19  H   -0.015285   0.147731
    20  H   -0.187238   0.332332
    21  H    0.045484   0.105091
    22  H   -0.034395   0.254206
    23  H    0.084234   0.066033
    24  H   -0.092246   0.222851
    25  H    0.528176  -0.461304
    26  H    0.079221   0.034167
    27  H   -0.023951   0.194055
    28  H    0.025665   0.112547
    29  H   -0.129117   0.300241
    30  H   -0.551596   0.738588
    31  H   -0.542350   0.713774
    32  H    0.050772   0.075349
    33  H    0.025685   0.171521
    34  H    0.128896  -0.008785
    35  H    0.036530   0.191006
    36  H    0.051281   0.136178
    37  H   -0.386972   0.546097
    38  H   -0.134086   0.274394
    39  H   -0.428519   0.619103
 Sum of Mulliken charges =  -1.00000   1.00000

 Dipole moment (field-independent basis, Debye):
    X=              4.2439    Y=              3.3056    Z=             -0.8552  Tot=              5.4470
 Quadrupole moment (field-independent basis, Debye-Ang):
   XX=           -209.4044   YY=           -151.4600   ZZ=           -140.9347
   XY=             -3.1902   XZ=             10.1641   YZ=             -0.6558

 Summary of Natural Population Analysis:

                                       Natural Population
                Natural  -----------------------------------------------
    Atom  No    Charge         Core      Valence    Rydberg      Total
 -----------------------------------------------------------------------
      C    1   -0.19071      0.99965     2.18292    0.00813     3.19071
      C    2   -0.18635      0.99964     2.17840    0.00832     3.18635
      C    3   -0.11406      0.99957     2.10311    0.01138     3.11406
      C    4   -0.18519      0.99964     2.17694    0.00861     3.18519
      C    5   -0.00452      0.99951     1.99593    0.00908     3.00452
      C    6   -0.13024      0.99948     2.12361    0.00715     3.13024
      C    7    0.10313      0.99949     1.88651    0.01087     2.89687
      C    8   -0.13661      0.99953     2.12827    0.00881     3.13661
      C    9   -0.08866      0.99957     2.07996    0.00912     3.08866
      C   10   -0.12861      0.99951     2.12078    0.00832     3.12861
      N   11   -0.25359      0.99966     2.74107    0.01286     3.75359
      C   12   -0.08637      0.99961     2.07399    0.01277     3.08637
      C   13   -0.20709      0.99962     2.19880    0.00868     3.20709
      C   14   -0.08994      0.99962     2.07863    0.01170     3.08994
      N   15   -0.34038      0.99975     2.82860    0.01203     3.84038
      C   16   -0.09370      0.99961     2.08248    0.01162     3.09370
      C   17   -0.09128      0.99960     2.07971    0.01198     3.09128
      H   18    0.09613      0.00000     0.40245    0.00142     0.40387
      H   19    0.09442      0.00000     0.40473    0.00085     0.40558
      H   20    0.09875      0.00000     0.40008    0.00117     0.40125
      H   21    0.09790      0.00000     0.40093    0.00118     0.40210
      H   22    0.10381      0.00000     0.39496    0.00122     0.39619
      H   23    0.09734      0.00000     0.40153    0.00113     0.40266
      H   24    0.09644      0.00000     0.40259    0.00098     0.40356
      H   25    0.10240      0.00000     0.39573    0.00187     0.39760
      H   26    0.10191      0.00000     0.39667    0.00141     0.39809
      H   27    0.09743      0.00000     0.40180    0.00078     0.40257
      H   28    0.09892      0.00000     0.39977    0.00131     0.40108
      H   29    0.09768      0.00000     0.40097    0.00134     0.40232
      H   30    0.10155      0.00000     0.39625    0.00220     0.39845
      H   31    0.09866      0.00000     0.39928    0.00205     0.40134
      H   32    0.09750      0.00000     0.40128    0.00121     0.40250
      H   33    0.09214      0.00000     0.40688    0.00098     0.40786
      H   34    0.09426      0.00000     0.40426    0.00148     0.40574
      H   35    0.17333      0.00000     0.32302    0.00365     0.32667
      H   36    0.09214      0.00000     0.40647    0.00139     0.40786
      H   37    0.09568      0.00000     0.40310    0.00121     0.40432
      H   38    0.09756      0.00000     0.40100    0.00144     0.40244
      H   39    0.09824      0.00000     0.39975    0.00201     0.40176
 =======================================================================
   * Total *   -0.00000     16.99306    45.80323    0.20371    63.00000

 Normal termination of Gaussian 16 at Fri Dec 11 14:17:03 2020.
