 Gaussian 16, Revision A.03,

 -----------------------------------------------------------
 # opt freq B3LYP/6-31G(d) empiricaldispersion=gd3bj scf=xqc
 -----------------------------------------------------------

 ------------------------------
 CID_64969441_JID_9654_neutraal
 ------------------------------
 Symbolic Z-matrix:
 Charge =  0 Multiplicity = 1

 SCF Done:  E(RB3LYP) =  -842.452951428     A.U. after   15 cycles
 SCF Done:  E(RB3LYP) =  -842.460253303     A.U. after   13 cycles
 SCF Done:  E(RB3LYP) =  -842.461187307     A.U. after   12 cycles
 SCF Done:  E(RB3LYP) =  -842.461478414     A.U. after   12 cycles
 SCF Done:  E(RB3LYP) =  -842.462132109     A.U. after   12 cycles
 SCF Done:  E(RB3LYP) =  -842.462346106     A.U. after   12 cycles
 SCF Done:  E(RB3LYP) =  -842.462464230     A.U. after   11 cycles
 SCF Done:  E(RB3LYP) =  -842.462530979     A.U. after   11 cycles
 SCF Done:  E(RB3LYP) =  -842.462568055     A.U. after   11 cycles
 SCF Done:  E(RB3LYP) =  -842.462588660     A.U. after   11 cycles
 SCF Done:  E(RB3LYP) =  -842.462612565     A.U. after   11 cycles
 SCF Done:  E(RB3LYP) =  -842.462617667     A.U. after   10 cycles
 SCF Done:  E(RB3LYP) =  -842.462617827     A.U. after    9 cycles
 SCF Done:  E(RB3LYP) =  -842.462617901     A.U. after    8 cycles
 Optimization completed.
    -- Stationary point found.
 Normal termination of Gaussian 16 at Mon Dec 14 17:11:36 2020.

 --------------------------------------------------------------------
 #N Geom=AllCheck Guess=TCheck SCRF=Check GenChk RB3LYP/6-31G(d) Freq
 --------------------------------------------------------------------

 Structure from the checkpoint file:  "JID_9654.chk"
 ------------------------------
 CID_64969441_JID_9654_neutraal
 ------------------------------
 Charge =  0 Multiplicity = 1

 SCF Done:  E(RB3LYP) =  -842.462617901     A.U. after    1 cycles

  Exact polarizability: 187.246  17.188 147.283   1.235  12.838 145.725
 Approx polarizability: 254.839  39.166 221.143   8.541  40.471 264.823

                      1                      2                      3
                      A                      A                      A
 Frequencies --     22.3853                35.4472                49.8336
 Red. masses --      3.7455                 4.5687                 3.6364
 Frc consts  --      0.0011                 0.0034                 0.0053
 IR Inten    --      0.7715                 0.6005                 0.5391

                      4                      5                      6
                      A                      A                      A
 Frequencies --     56.3152                62.1737               115.7388
 Red. masses --      3.1452                 7.3885                 4.5033
 Frc consts  --      0.0059                 0.0168                 0.0355
 IR Inten    --      0.0406                 0.9696                 1.6212

                      7                      8                      9
                      A                      A                      A
 Frequencies --    131.2438               165.9152               212.8245
 Red. masses --      7.1748                 2.9333                 1.7037
 Frc consts  --      0.0728                 0.0476                 0.0455
 IR Inten    --      3.8896                 0.6731                 0.0685

                     10                     11                     12
                      A                      A                      A
 Frequencies --    227.1987               236.1918               247.6139
 Red. masses --      1.9729                 2.1096                 2.1585
 Frc consts  --      0.0600                 0.0693                 0.0780
 IR Inten    --      0.4089                 0.6001                 0.9792

                     13                     14                     15
                      A                      A                      A
 Frequencies --    258.7344               289.4252               329.9891
 Red. masses --      2.8317                 2.3167                 3.2340
 Frc consts  --      0.1117                 0.1143                 0.2075
 IR Inten    --      2.3366                 0.8459                 8.7475

                     16                     17                     18
                      A                      A                      A
 Frequencies --    344.1656               359.4857               409.8902
 Red. masses --      3.0648                 4.2411                 4.1020
 Frc consts  --      0.2139                 0.3229                 0.4060
 IR Inten    --      2.0909                 2.2706                 6.7995

                     19                     20                     21
                      A                      A                      A
 Frequencies --    417.1384               424.1912               457.1258
 Red. masses --      3.3393                 5.9966                 5.1872
 Frc consts  --      0.3423                 0.6357                 0.6386
 IR Inten    --      1.4833                 9.9105                 2.4518

                     22                     23                     24
                      A                      A                      A
 Frequencies --    479.2312               496.4091               547.1036
 Red. masses --      3.1870                 3.7044                 4.7166
 Frc consts  --      0.4312                 0.5378                 0.8318
 IR Inten    --      0.8108                 6.2234                 3.3706

                     25                     26                     27
                      A                      A                      A
 Frequencies --    581.8121               634.3360               651.9401
 Red. masses --      4.0769                 6.3372                 1.6061
 Frc consts  --      0.8131                 1.5024                 0.4022
 IR Inten    --     10.5371                 0.1620                80.8107

                     28                     29                     30
                      A                      A                      A
 Frequencies --    662.2484               705.6936               711.2080
 Red. masses --      3.1630                 3.6440                 3.0981
 Frc consts  --      0.8173                 1.0692                 0.9233
 IR Inten    --     17.5379                 4.7049                15.2214

                     31                     32                     33
                      A                      A                      A
 Frequencies --    732.8100               741.1249               775.0058
 Red. masses --      2.1802                 2.7788                 2.5265
 Frc consts  --      0.6898                 0.8993                 0.8941
 IR Inten    --     35.1527                29.6407                23.3444

                     34                     35                     36
                      A                      A                      A
 Frequencies --    788.8822               815.6757               840.2361
 Red. masses --      2.6346                 2.7919                 2.7340
 Frc consts  --      0.9660                 1.0944                 1.1372
 IR Inten    --     12.4134                 2.9146                 5.5449

                     37                     38                     39
                      A                      A                      A
 Frequencies --    851.7489               860.3177               862.1072
 Red. masses --      1.5474                 4.0385                 1.2522
 Frc consts  --      0.6614                 1.7611                 0.5483
 IR Inten    --      9.9638                 0.4236                 0.6009

                     40                     41                     42
                      A                      A                      A
 Frequencies --    905.1251               934.1858               948.0845
 Red. masses --      2.1795                 1.4952                 1.2385
 Frc consts  --      1.0520                 0.7688                 0.6559
 IR Inten    --      0.8658                 0.7738                 0.9928

                     43                     44                     45
                      A                      A                      A
 Frequencies --    969.5498               972.5733               999.1797
 Red. masses --      2.8478                 1.3468                 1.2572
 Frc consts  --      1.5773                 0.7506                 0.7395
 IR Inten    --      5.5446                 0.4373                 0.2309

                     46                     47                     48
                      A                      A                      A
 Frequencies --   1021.6855              1025.7152              1058.9979
 Red. masses --      5.9909                 2.5345                 1.6463
 Frc consts  --      3.6845                 1.5711                 1.0878
 IR Inten    --      2.0453                 4.6780                 7.3996

                     49                     50                     51
                      A                      A                      A
 Frequencies --   1062.1993              1087.0408              1100.5390
 Red. masses --      1.9953                 1.6302                 1.9060
 Frc consts  --      1.3264                 1.1349                 1.3602
 IR Inten    --      2.3410                 4.7738                45.5442

                     52                     53                     54
                      A                      A                      A
 Frequencies --   1108.3948              1117.9276              1122.4340
 Red. masses --      1.8111                 1.5303                 2.0581
 Frc consts  --      1.3109                 1.1268                 1.5277
 IR Inten    --      8.8342                 3.2189                 1.2525

                     55                     56                     57
                      A                      A                      A
 Frequencies --   1130.8349              1157.1905              1177.2051
 Red. masses --      1.6044                 1.5025                 1.9492
 Frc consts  --      1.2088                 1.1854                 1.5915
 IR Inten    --     17.0678                 0.6122                 2.8681

                     58                     59                     60
                      A                      A                      A
 Frequencies --   1195.5767              1205.1397              1206.9533
 Red. masses --      1.1024                 2.8657                 1.7056
 Frc consts  --      0.9284                 2.4522                 1.4639
 IR Inten    --      0.0924                 8.6935                 0.9798

                     61                     62                     63
                      A                      A                      A
 Frequencies --   1220.3432              1232.0891              1283.3893
 Red. masses --      1.1866                 1.9100                 1.8514
 Frc consts  --      1.0412                 1.7084                 1.7967
 IR Inten    --      5.7855                13.3318                28.2724

                     64                     65                     66
                      A                      A                      A
 Frequencies --   1297.0188              1321.2266              1329.5779
 Red. masses --      2.1162                 1.6793                 2.0799
 Frc consts  --      2.0975                 1.7272                 2.1663
 IR Inten    --     20.1866                20.8244                69.8887

                     67                     68                     69
                      A                      A                      A
 Frequencies --   1355.2324              1370.1712              1377.2384
 Red. masses --      1.3632                 3.7159                 1.4743
 Frc consts  --      1.4752                 4.1102                 1.6476
 IR Inten    --     33.6658                26.9334                64.6138

                     70                     71                     72
                      A                      A                      A
 Frequencies --   1396.2300              1416.7514              1428.0973
 Red. masses --      1.3640                 1.5412                 1.5924
 Frc consts  --      1.5666                 1.8226                 1.9135
 IR Inten    --     15.6672                16.2785                59.3613

                     73                     74                     75
                      A                      A                      A
 Frequencies --   1428.2017              1449.0787              1462.4786
 Red. masses --      1.4824                 1.4081                 2.6248
 Frc consts  --      1.7815                 1.7421                 3.3077
 IR Inten    --     11.9004                 8.8077               169.7556

                     76                     77                     78
                      A                      A                      A
 Frequencies --   1493.5092              1507.9851              1514.3474
 Red. masses --      2.2574                 2.0711                 1.2657
 Frc consts  --      2.9667                 2.7748                 1.7101
 IR Inten    --     17.1206                 9.3336                11.0216

                     79                     80                     81
                      A                      A                      A
 Frequencies --   1526.0412              1527.8564              1528.5974
 Red. masses --      1.0974                 1.0686                 1.0909
 Frc consts  --      1.5058                 1.4697                 1.5018
 IR Inten    --      0.6358                12.0204                 0.5946

                     82                     83                     84
                      A                      A                      A
 Frequencies --   1533.2038              1546.5177              1648.9522
 Red. masses --      1.0953                 2.1461                 5.5598
 Frc consts  --      1.5170                 3.0242                 8.9069
 IR Inten    --     17.1975                10.3020                 0.4018

                     85                     86                     87
                      A                      A                      A
 Frequencies --   1664.4155              1769.9822              1795.1136
 Red. masses --      5.4514                11.4906                 8.6950
 Frc consts  --      8.8978                21.2095                16.5084
 IR Inten    --      2.8883               226.9055               324.2799

                     88                     89                     90
                      A                      A                      A
 Frequencies --   3057.9477              3065.6775              3072.1451
 Red. masses --      1.0379                 1.0553                 1.0633
 Frc consts  --      5.7181                 5.8435                 5.9128
 IR Inten    --     21.0274                 8.9180                16.1052

                     91                     92                     93
                      A                      A                      A
 Frequencies --   3093.3946              3119.9730              3140.3366
 Red. masses --      1.0856                 1.0995                 1.0998
 Frc consts  --      6.1207                 6.3061                 6.3904
 IR Inten    --     11.7011                21.9005                 7.5615

                     94                     95                     96
                      A                      A                      A
 Frequencies --   3143.1790              3147.6080              3151.9749
 Red. masses --      1.1012                 1.0561                 1.0873
 Frc consts  --      6.4100                 6.1645                 6.3647
 IR Inten    --     16.0359                 9.9459                14.9820

                     97                     98                     99
                      A                      A                      A
 Frequencies --   3164.9114              3166.5166              3185.8439
 Red. masses --      1.0917                 1.1031                 1.0851
 Frc consts  --      6.4428                 6.5167                 6.4887
 IR Inten    --     26.0763                11.9631                 0.2294

                    100                    101                    102
                      A                      A                      A
 Frequencies --   3195.0084              3205.4409              3212.8236
 Red. masses --      1.0884                 1.0915                 1.0936
 Frc consts  --      6.5461                 6.6077                 6.6507
 IR Inten    --      9.2467                21.5485                15.9082

                    103                    104                    105
                      A                      A                      A
 Frequencies --   3217.3506              3228.3577              3565.5018
 Red. masses --      1.0967                 1.1170                 1.0756
 Frc consts  --      6.6888                 6.8588                 8.0567
 IR Inten    --      8.4474                15.2573                18.8084

 - Thermochemistry -
 -------------------
 Temperature   298.150 Kelvin.  Pressure   1.00000 Atm.
 Atom     1 has atomic number  6 and mass  12.00000

 Molecular mass:   258.13683 amu.
 Principal axes and moments of inertia in atomic units:
                           1         2         3
     Eigenvalues --  3411.051295169.369296731.08496
           X            0.99999  -0.00501   0.00138
           Y            0.00504   0.99974  -0.02232
           Z           -0.00127   0.02233   0.99975
 This molecule is an asymmetric top.
 Rotational symmetry number  1.
 Warning -- assumption of classical behavior for rotation
           may cause significant error
 Rotational temperatures (Kelvin)      0.02539     0.01676     0.01287
 Rotational constants (GHZ):           0.52909     0.34912     0.26812
 Zero-point vibrational energy     817378.9 (Joules/Mol)
                                  195.35826 (Kcal/Mol)
 Warning -- explicit consideration of  25 degrees of freedom as
           vibrations may cause significant error
 Vibrational temperatures:     32.21    51.00    71.70    81.03    89.45
          (Kelvin)            166.52   188.83   238.72   306.21   326.89
                              339.83   356.26   372.26   416.42   474.78
                              495.18   517.22   589.74   600.17   610.32
                              657.70   689.51   714.22   787.16   837.10
                              912.67   938.00   952.83  1015.34  1023.27
                             1054.35  1066.31  1115.06  1135.03  1173.58
                             1208.91  1225.48  1237.81  1240.38  1302.27
                             1344.09  1364.08  1394.97  1399.32  1437.60
                             1469.98  1475.78  1523.66  1528.27  1564.01
                             1583.43  1594.73  1608.45  1614.93  1627.02
                             1664.94  1693.74  1720.17  1733.93  1736.54
                             1755.80  1772.70  1846.51  1866.12  1900.95
                             1912.97  1949.88  1971.37  1981.54  2008.86
                             2038.39  2054.71  2054.86  2084.90  2104.18
                             2148.83  2169.65  2178.81  2195.63  2198.24
                             2199.31  2205.94  2225.09  2372.47  2394.72
                             2546.61  2582.77  4399.70  4410.83  4420.13
                             4450.70  4488.95  4518.24  4522.33  4528.71
                             4534.99  4553.60  4555.91  4583.72  4596.90
                             4611.91  4622.54  4629.05  4644.89  5129.96

 Zero-point correction=                           0.311323 (Hartree/Particle)
 Thermal correction to Energy=                    0.328536
 Thermal correction to Enthalpy=                  0.329480
 Thermal correction to Gibbs Free Energy=         0.265030
 Sum of electronic and zero-point Energies=           -842.151295
 Sum of electronic and thermal Energies=              -842.134082
 Sum of electronic and thermal Enthalpies=            -842.133138
 Sum of electronic and thermal Free Energies=         -842.197588

                     E (Thermal)             CV                S
                      KCal/Mol        Cal/Mol-Kelvin    Cal/Mol-Kelvin
 Total                  206.159             66.760            135.646
 Electronic               0.000              0.000              0.000
 Translational            0.889              2.981             42.545
 Rotational               0.889              2.981             33.140
 Vibrational            204.382             60.799             59.962
 Vibration     1          0.593              1.985              6.410
 Vibration     2          0.594              1.982              5.499
 Vibration     3          0.595              1.978              4.824
 Vibration     4          0.596              1.975              4.582
 Vibration     5          0.597              1.972              4.387
 Vibration     6          0.608              1.936              3.170
 Vibration     7          0.612              1.922              2.928
 Vibration     8          0.624              1.884              2.481
 Vibration     9          0.644              1.821              2.019
 Vibration    10          0.651              1.800              1.901
 Vibration    11          0.655              1.785              1.831
 Vibration    12          0.661              1.767              1.748
 Vibration    13          0.668              1.748              1.670
 Vibration    14          0.686              1.693              1.477
 Vibration    15          0.713              1.616              1.260
 Vibration    16          0.723              1.587              1.193
 Vibration    17          0.734              1.556              1.124
 Vibration    18          0.774              1.449              0.927
 Vibration    19          0.780              1.433              0.902
 Vibration    20          0.786              1.418              0.878
 Vibration    21          0.815              1.345              0.775
 Vibration    22          0.836              1.296              0.712
 Vibration    23          0.852              1.258              0.667
 Vibration    24          0.902              1.146              0.550
 Vibration    25          0.939              1.071              0.482

                           ! Non-Optimized Parameters !
 Normal termination of Gaussian 16 at Mon Dec 14 17:31:49 2020.

 ----------------------------------------------------------------------
 # B3LYP/6-311++G(d,p) empiricaldispersion=gd3bj scf=xqc pop=npa geom=c
 heck
 ----------------------------------------------------------------------

 --------------------------------------
 CID_64969441_JID_9654_Energie_neutraal
 --------------------------------------
 Structure from the checkpoint file:  "JID_9654.chk"
 Charge =  0 Multiplicity = 1

 SCF Done:  E(RB3LYP) =  -842.694719245     A.U. after   15 cycles
 Normal termination of Gaussian 16 at Mon Dec 14 17:39:06 2020.

 ----------------------------------------------------------------------
 # B3LYP/6-311++G(d,p) empiricaldispersion=gd3bj scf=xqc pop=npa geom=c
 heck
 ----------------------------------------------------------------------

 ------------------------------------
 CID_64969441_JID_9654_Energie_kation
 ------------------------------------
 Structure from the checkpoint file:  "JID_9654.chk"
 Charge =  1 Multiplicity = 2

 SCF Done:  E(UB3LYP) =  -842.378044282     A.U. after   33 cycles
 SCF Done:  E(UB3LYP) =  -842.382211769     a.u. after   13 cycles
 Normal termination of Gaussian 16 at Mon Dec 14 21:05:17 2020.
 Gaussian 16:  ES64L-G16RevA.03 25-Dec-2016

 ----------------------------------------------------------------------
 # B3LYP/6-311++G(d,p) empiricaldispersion=gd3bj scf=xqc pop=npa geom=c
 heck
 ----------------------------------------------------------------------

 -----------------------------------
 CID_64969441_JID_9654_Energie_anion
 -----------------------------------
 Structure from the checkpoint file:  "JID_9654.chk"
 Charge = -1 Multiplicity = 2

                         Standard orientation:
 ---------------------------------------------------------------------
 Center     Atomic      Atomic             Coordinates (Angstroms)
 Number     Number       Type             X           Y           Z
 ---------------------------------------------------------------------
      1          6           0        0.191768    2.667362   -0.764482
      2          6           0       -1.262417    2.802362   -0.369803
      3          6           0       -2.339469    2.163325   -1.212894
      4          6           0       -2.044589    1.630047    0.168448
      5          7           0       -1.392785    0.347210    0.295557
      6          6           0       -1.976208   -0.791615   -0.424658
      7          6           0       -1.234898   -2.114966   -0.251987
      8          8           0       -1.574428   -3.092829   -0.904835
      9          7           0       -0.254869   -2.168133    0.692518
     10          6           0        0.436159   -1.015533    1.239573
     11          6           0       -0.446386    0.236501    1.273715
     12          8           0       -0.191947    1.129962    2.070645
     13          6           0        1.706329   -0.644393    0.472368
     14          6           0        1.913547   -1.065228   -0.843519
     15          6           0        3.050374   -0.652463   -1.542227
     16          6           0        3.983353    0.184853   -0.932727
     17          6           0        3.777323    0.608161    0.382641
     18          6           0        2.645966    0.195390    1.081909
     19          6           0       -3.446486   -1.011170   -0.031991
     20          1           0        0.842314    2.779637    0.107186
     21          1           0        0.460907    3.431376   -1.502850
     22          1           0        0.398727    1.687490   -1.205817
     23          1           0       -1.517814    3.752850    0.093755
     24          1           0       -3.284959    2.675109   -1.366932
     25          1           0       -2.006885    1.576936   -2.065469
     26          1           0       -2.768059    1.844932    0.951845
     27          1           0       -1.935372   -0.576729   -1.498037
     28          1           0        0.235370   -3.056342    0.717561
     29          1           0        0.692423   -1.223659    2.281976
     30          1           0        1.194845   -1.718928   -1.327565
     31          1           0        3.202851   -0.987609   -2.564257
     32          1           0        4.866629    0.505898   -1.477350
     33          1           0        4.499218    1.261670    0.864169
     34          1           0        2.466329    0.545168    2.093636
     35          1           0       -4.037678   -0.118758   -0.252160
     36          1           0       -3.846172   -1.855641   -0.597310
     37          1           0       -3.524305   -1.229790    1.038418
 ---------------------------------------------------------------------

 SCF Done:  E(UB3LYP) =  -842.686222415     A.U. after   33 cycles
 SCF Done:  E(UB3LYP) =  -842.686222415     a.u. after    1 cycles

 The electronic state is 2-A.
 Alpha  occ. eigenvalues --  -18.99224 -18.97536 -14.24538 -14.23795 -10.17668
 Alpha  occ. eigenvalues --  -10.15791 -10.12530 -10.12289 -10.10174 -10.07250
 Alpha  occ. eigenvalues --  -10.06926 -10.06877 -10.06838 -10.06694 -10.06653
 Alpha  occ. eigenvalues --  -10.06446 -10.05887 -10.05800 -10.04945  -0.94868
 Alpha  occ. eigenvalues --   -0.93144  -0.85007  -0.83037  -0.74936  -0.74806
 Alpha  occ. eigenvalues --   -0.67892  -0.66210  -0.63912  -0.60817  -0.60073
 Alpha  occ. eigenvalues --   -0.57007  -0.53186  -0.50248  -0.49670  -0.48684
 Alpha  occ. eigenvalues --   -0.46449  -0.43523  -0.42466  -0.41062  -0.40861
 Alpha  occ. eigenvalues --   -0.38945  -0.37802  -0.36127  -0.34604  -0.34308
 Alpha  occ. eigenvalues --   -0.33061  -0.32431  -0.31856  -0.31442  -0.31231
 Alpha  occ. eigenvalues --   -0.30775  -0.30476  -0.28276  -0.28043  -0.27855
 Alpha  occ. eigenvalues --   -0.27490  -0.25978  -0.25618  -0.24555  -0.24078
 Alpha  occ. eigenvalues --   -0.23679  -0.19571  -0.18936  -0.17649  -0.16390
 Alpha  occ. eigenvalues --   -0.15277  -0.15036  -0.14156  -0.13645   0.04706
 Alpha virt. eigenvalues --    0.06677   0.07336   0.08153   0.08446   0.08721
 Alpha virt. eigenvalues --    0.09011   0.09431   0.09964   0.10138   0.10808
 Alpha virt. eigenvalues --    0.10955   0.11574   0.11647   0.12187   0.12625

  Beta  occ. eigenvalues --  -18.99185 -18.97458 -14.24512 -14.23765 -10.17611
  Beta  occ. eigenvalues --  -10.15661 -10.12527 -10.12310 -10.10169 -10.07239
  Beta  occ. eigenvalues --  -10.06884 -10.06862 -10.06778 -10.06696 -10.06613
  Beta  occ. eigenvalues --  -10.06390 -10.05704 -10.05691 -10.04936  -0.94776
  Beta  occ. eigenvalues --   -0.92986  -0.84919  -0.82963  -0.74839  -0.74649
  Beta  occ. eigenvalues --   -0.67752  -0.66041  -0.63763  -0.60726  -0.59927
  Beta  occ. eigenvalues --   -0.56924  -0.53048  -0.50190  -0.49498  -0.48449
  Beta  occ. eigenvalues --   -0.46389  -0.43458  -0.42379  -0.40937  -0.40760
  Beta  occ. eigenvalues --   -0.38832  -0.37739  -0.35942  -0.34477  -0.34202
  Beta  occ. eigenvalues --   -0.32922  -0.32329  -0.31740  -0.31362  -0.31164
  Beta  occ. eigenvalues --   -0.30666  -0.30441  -0.28177  -0.27963  -0.27757
  Beta  occ. eigenvalues --   -0.27404  -0.25610  -0.25397  -0.24425  -0.23927
  Beta  occ. eigenvalues --   -0.23545  -0.19475  -0.18888  -0.17453  -0.16312
  Beta  occ. eigenvalues --   -0.14961  -0.14620  -0.13680  -0.13174
  Beta virt. eigenvalues --    0.07059   0.07608   0.07899   0.08549   0.08829
  Beta virt. eigenvalues --    0.08908   0.09162   0.09548   0.10187   0.10497
  Beta virt. eigenvalues --    0.10937   0.11221   0.11800   0.11814   0.12621

 Mulliken charges and spin densities:
               1          2
     1  C   -0.307834  -0.455132
     2  C    0.140190   0.236378
     3  C    1.243979  -1.770569
     4  C   -0.646330   0.438117
     5  N    0.318952  -0.033538
     6  C   -0.151857   0.116462
     7  C   -0.349190   0.292418
     8  O   -0.311873   0.008263
     9  N   -0.175058   0.004657
    10  C   -0.074303  -0.076521
    11  C   -0.305557   0.108829
    12  O   -0.286285   0.033997
    13  C    0.587439   0.143230
    14  C   -0.331515  -0.075253
    15  C   -0.398129   0.072047
    16  C   -0.251146   0.084396
    17  C   -0.381750  -0.013720
    18  C   -0.255476   0.145084
    19  C    0.217555  -0.784767
    20  H    0.172701  -0.012142
    21  H    0.025320   0.115883
    22  H    0.122574   0.048726
    23  H   -0.160058   0.355288
    24  H   -0.751684   0.932205
    25  H    0.065592   0.071520
    26  H   -0.167203   0.413592
    27  H    0.119946   0.069448
    28  H    0.303951   0.003922
    29  H    0.168812   0.067932
    30  H    0.197820  -0.004971
    31  H    0.117559   0.029503
    32  H    0.122932  -0.010924
    33  H    0.137765   0.008213
    34  H    0.192545  -0.007937
    35  H   -0.123241   0.295447
    36  H    0.112043   0.057647
    37  H    0.060812   0.092272
 Sum of Mulliken charges =  -1.00000   1.00000

 Dipole moment (field-independent basis, Debye):
    X=              4.9527    Y=             -3.5780    Z=              0.8142  Tot=              6.1640
 Quadrupole moment (field-independent basis, Debye-Ang):
   XX=           -172.6507   YY=           -161.3966   ZZ=           -138.4929
   XY=             12.8852   XZ=             -6.1509   YZ=             -4.8862

 Summary of Natural Population Analysis:

                                       Natural Population
                Natural  -----------------------------------------------
    Atom  No    Charge         Core      Valence    Rydberg      Total
 -----------------------------------------------------------------------
      C    1   -0.28943      0.99964     2.28385    0.00594     3.28943
      C    2   -0.10385      0.99959     2.09346    0.01080     3.10385
      C    3   -0.20017      0.99959     2.19078    0.00980     3.20017
      C    4   -0.01338      0.99954     1.99941    0.01444     3.01338
      N    5   -0.25850      0.99961     2.74670    0.01219     3.75850
      C    6   -0.03658      0.99955     2.02574    0.01129     3.03658
      C    7    0.34941      0.99964     1.62661    0.02435     2.65059
      O    8   -0.32597      0.99988     3.32044    0.00565     4.32597
      N    9   -0.30847      0.99966     2.80004    0.00877     3.80847
      C   10   -0.04779      0.99952     2.03477    0.01351     3.04779
      C   11    0.37007      0.99961     1.60669    0.02363     2.62993
      O   12   -0.31398      0.99988     3.30914    0.00496     4.31398
      C   13    0.00050      0.99943     1.99000    0.01007     2.99950
      C   14   -0.11378      0.99952     2.10328    0.01098     3.11378
      C   15   -0.09408      0.99957     2.08594    0.00857     3.09408
      C   16   -0.07668      0.99957     2.06850    0.00861     3.07668
      C   17   -0.11157      0.99958     2.10349    0.00850     3.11157
      C   18   -0.07632      0.99947     2.06624    0.01062     3.07632
      C   19   -0.28697      0.99964     2.28170    0.00563     3.28697
      H   20    0.10964      0.00000     0.38942    0.00094     0.39036
      H   21    0.09578      0.00000     0.40342    0.00081     0.40422
      H   22    0.10361      0.00000     0.39522    0.00117     0.39639
      H   23    0.10275      0.00000     0.39614    0.00111     0.39725
      H   24    0.10890      0.00000     0.38748    0.00361     0.39110
      H   25    0.10064      0.00000     0.39814    0.00121     0.39936
      H   26    0.10497      0.00000     0.39352    0.00151     0.39503
      H   27    0.10587      0.00000     0.39262    0.00151     0.39413
      H   28    0.19364      0.00000     0.30467    0.00169     0.30636
      H   29    0.10938      0.00000     0.38929    0.00132     0.39062
      H   30    0.10133      0.00000     0.39720    0.00147     0.39867
      H   31    0.09446      0.00000     0.40448    0.00105     0.40554
      H   32    0.09177      0.00000     0.40725    0.00098     0.40823
      H   33    0.09514      0.00000     0.40399    0.00087     0.40486
      H   34    0.10539      0.00000     0.39371    0.00089     0.39461
      H   35    0.10732      0.00000     0.39151    0.00117     0.39268
      H   36    0.10861      0.00000     0.39051    0.00088     0.39139
      H   37    0.09836      0.00000     0.40073    0.00091     0.40164
 =======================================================================
   * Total *    0.00001     18.99248    49.77611    0.23140    68.99999

 Normal termination of Gaussian 16 at Mon Dec 14 21:25:58 2020.
