 Gaussian 16, Revision A.03,

 -----------------------------------------------------------
 # opt freq B3LYP/6-31G(d) empiricaldispersion=gd3bj scf=xqc
 -----------------------------------------------------------

 ------------------------------
 CID_144132625_JID_145_neutraal
 ------------------------------
 Symbolic Z-matrix:
 Charge =  0 Multiplicity = 1

 SCF Done:  E(RB3LYP) =  -407.950696148     A.U. after   14 cycles
 SCF Done:  E(RB3LYP) =  -407.954152237     A.U. after   12 cycles
 SCF Done:  E(RB3LYP) =  -407.954499867     A.U. after   11 cycles
 SCF Done:  E(RB3LYP) =  -407.954790871     A.U. after   11 cycles
 SCF Done:  E(RB3LYP) =  -407.954986990     A.U. after   11 cycles
 SCF Done:  E(RB3LYP) =  -407.955012450     A.U. after   11 cycles
 SCF Done:  E(RB3LYP) =  -407.955113942     A.U. after   10 cycles
 SCF Done:  E(RB3LYP) =  -407.955239880     A.U. after   11 cycles
 SCF Done:  E(RB3LYP) =  -407.955361245     A.U. after   11 cycles
 SCF Done:  E(RB3LYP) =  -407.955488306     A.U. after   12 cycles
 SCF Done:  E(RB3LYP) =  -407.956704202     A.U. after    8 cycles
 SCF Done:  E(RB3LYP) =  -407.956705440     A.U. after    8 cycles
 SCF Done:  E(RB3LYP) =  -407.956705749     A.U. after    7 cycles
 SCF Done:  E(RB3LYP) =  -407.956706183     A.U. after    7 cycles
 SCF Done:  E(RB3LYP) =  -407.956706341     A.U. after    7 cycles
 SCF Done:  E(RB3LYP) =  -407.956706387     A.U. after    7 cycles
 Optimization completed.
    -- Stationary point found.

 1\1\GINC-NODE213\FOpt\RB3LYP\6-31G(d)\C9H17N1\VSC10255\08-Dec-2020\0\\
 # opt freq B3LYP/6-31G(d) empiricaldispersion=gd3bj scf=xqc\\CID_14413
 2625_JID_145_neutraal\\0,1\C,0.9291222861,-0.1970783649,-0.1197887868\
 C,1.2037833509,-0.830020739,1.2120809645\C,0.7581654183,-0.3984758333,
 2.4001522248\C,1.0982341016,-1.1075949412,3.6885572771\C,-0.1332964683
 ,0.8019981556,2.5262727942\C,0.3143461473,1.9854699557,3.0037368155\C,
 -0.587764639,3.1769854293,3.2182436596\C,1.7736780552,2.2383646989,3.2
 82893303\N,-1.4468592185,0.6062670051,2.0547627669\C,-2.150750776,-0.6

 Normal termination of Gaussian 16 at Tue Dec  8 10:24:40 2020.

 --------------------------------------------------------------------
 #N Geom=AllCheck Guess=TCheck SCRF=Check GenChk RB3LYP/6-31G(d) Freq
 --------------------------------------------------------------------

 Structure from the checkpoint file:  "JID_145.chk"
 ------------------------------
 CID_144132625_JID_145_neutraal
 ------------------------------
 Charge =  0 Multiplicity = 1

 SCF Done:  E(RB3LYP) =  -407.956706387     A.U. after    1 cycles

  Exact polarizability: 123.634  -4.122 100.687   2.900   1.581  93.342
 Approx polarizability: 174.617  -9.006 138.831   9.088   2.849 132.094

                      1                      2                      3
                      A                      A                      A
 Frequencies --     46.9474                94.2477               109.2934
 Red. masses --      3.0593                 1.9759                 2.0350
 Frc consts  --      0.0040                 0.0103                 0.0143
 IR Inten    --      0.1205                 2.4758                 0.7638

                      4                      5                      6
                      A                      A                      A
 Frequencies --    119.5324               122.0240               159.5592
 Red. masses --      1.2067                 1.3802                 1.8894
 Frc consts  --      0.0102                 0.0121                 0.0283
 IR Inten    --      0.7267                 0.0453                 1.4171

                      7                      8                      9
                      A                      A                      A
 Frequencies --    173.1984               188.1119               212.8441
 Red. masses --      1.4781                 1.1201                 1.3466
 Frc consts  --      0.0261                 0.0234                 0.0359
 IR Inten    --      0.1926                 0.2105                 0.5096

                     10                     11                     12
                      A                      A                      A
 Frequencies --    223.9195               238.4719               269.9256
 Red. masses --      1.4824                 2.2488                 2.1537
 Frc consts  --      0.0438                 0.0753                 0.0925
 IR Inten    --      0.9791                 1.6285                 1.7617

                     13                     14                     15
                      A                      A                      A
 Frequencies --    320.2931               358.5966               378.7858
 Red. masses --      2.7022                 2.7233                 2.2779
 Frc consts  --      0.1633                 0.2063                 0.1926
 IR Inten    --      0.5066                 3.0655                 1.5531

                     16                     17                     18
                      A                      A                      A
 Frequencies --    416.2583               462.7005               527.8469
 Red. masses --      2.7188                 3.0700                 3.3576
 Frc consts  --      0.2776                 0.3873                 0.5512
 IR Inten    --     12.0698                 1.1139                 2.6088

                     19                     20                     21
                      A                      A                      A
 Frequencies --    588.0651               638.4130               706.4132
 Red. masses --      2.9654                 2.9779                 2.8346
 Frc consts  --      0.6042                 0.7151                 0.8334
 IR Inten    --      8.7551                28.3511                46.8851

                     22                     23                     24
                      A                      A                      A
 Frequencies --    716.1207               848.3611               889.0168
 Red. masses --      1.9721                 1.1912                 2.1189
 Frc consts  --      0.5959                 0.5051                 0.9867
 IR Inten    --     20.0536                 5.3141                 8.0578

                     25                     26                     27
                      A                      A                      A
 Frequencies --    942.3524               990.2623              1011.5986
 Red. masses --      1.8215                 1.3311                 1.2683
 Frc consts  --      0.9530                 0.7691                 0.7647
 IR Inten    --      2.7814                 0.8314                 3.3001

                     28                     29                     30
                      A                      A                      A
 Frequencies --   1042.2497              1070.2477              1077.8907
 Red. masses --      2.1059                 1.3858                 1.5520
 Frc consts  --      1.3478                 0.9352                 1.0624
 IR Inten    --      4.6865                21.4499                 2.0511

                     31                     32                     33
                      A                      A                      A
 Frequencies --   1087.3564              1099.5116              1107.2455
 Red. masses --      1.4737                 2.4796                 1.5983
 Frc consts  --      1.0266                 1.7662                 1.1545
 IR Inten    --      3.5584                 0.8592                 4.1072

                     34                     35                     36
                      A                      A                      A
 Frequencies --   1125.6514              1158.7185              1201.9324
 Red. masses --      2.1599                 1.3355                 1.9754
 Frc consts  --      1.6125                 1.0565                 1.6814
 IR Inten    --      4.3759                23.3841                26.1143

                     37                     38                     39
                      A                      A                      A
 Frequencies --   1217.3218              1245.1182              1321.7036
 Red. masses --      2.7191                 3.6493                 2.1680
 Frc consts  --      2.3740                 3.3334                 2.2314
 IR Inten    --     51.8743                28.4141                29.9427

                     40                     41                     42
                      A                      A                      A
 Frequencies --   1405.4337              1436.4988              1439.6542
 Red. masses --      1.8215                 1.3246                 1.2578
 Frc consts  --      2.1199                 1.6105                 1.5359
 IR Inten    --     26.0460                 3.1029                 4.9148

                     43                     44                     45
                      A                      A                      A
 Frequencies --   1444.0493              1450.1717              1478.8184
 Red. masses --      1.2768                 1.2706                 1.2179
 Frc consts  --      1.5687                 1.5743                 1.5693
 IR Inten    --      1.5485                 0.7426                 2.4955

                     46                     47                     48
                      A                      A                      A
 Frequencies --   1489.7595              1505.6956              1509.6844
 Red. masses --      1.1947                 1.0489                 1.0491
 Frc consts  --      1.5622                 1.4011                 1.4087
 IR Inten    --     12.4904                10.0496                 2.6848

                     49                     50                     51
                      A                      A                      A
 Frequencies --   1513.9851              1516.4665              1520.2494
 Red. masses --      1.0688                 1.0705                 1.0485
 Frc consts  --      1.4433                 1.4505                 1.4277
 IR Inten    --      1.6221                 5.5655                 3.9506

                     52                     53                     54
                      A                      A                      A
 Frequencies --   1522.9182              1523.7955              1530.9184
 Red. masses --      1.0589                 1.0567                 1.0753
 Frc consts  --      1.4470                 1.4457                 1.4849
 IR Inten    --      8.3343                 6.4934                 3.4184

                     55                     56                     57
                      A                      A                      A
 Frequencies --   1535.3014              1552.4232              1722.7404
 Red. masses --      1.0644                 1.0654                 6.0216
 Frc consts  --      1.4782                 1.5127                10.5293
 IR Inten    --      0.6247                17.8771                44.3282

                     58                     59                     60
                      A                      A                      A
 Frequencies --   1751.9789              2979.8275              3009.3800
 Red. masses --      6.6417                 1.0592                 1.0417
 Frc consts  --     12.0112                 5.5413                 5.5584
 IR Inten    --     15.6192               101.8484                40.3334

                     61                     62                     63
                      A                      A                      A
 Frequencies --   3014.8941              3032.3017              3034.4198
 Red. masses --      1.0431                 1.0412                 1.0373
 Frc consts  --      5.5862                 5.6408                 5.6272
 IR Inten    --     80.1960                42.6480                28.1792

                     64                     65                     66
                      A                      A                      A
 Frequencies --   3045.4566              3063.9140              3073.3327
 Red. masses --      1.0999                 1.0932                 1.0998
 Frc consts  --      6.0103                 6.0463                 6.1202
 IR Inten    --     36.2874                32.0829                24.4159

                     67                     68                     69
                      A                      A                      A
 Frequencies --   3085.9123              3089.7375              3098.0480
 Red. masses --      1.0980                 1.1005                 1.0760
 Frc consts  --      6.1606                 6.1900                 6.0846
 IR Inten    --     18.2782                42.1474                35.2731

                     70                     71                     72
                      A                      A                      A
 Frequencies --   3117.2899              3131.9584              3140.3490
 Red. masses --      1.1022                 1.0882                 1.0940
 Frc consts  --      6.3104                 6.2892                 6.3568
 IR Inten    --     23.9028                29.4973                16.3951

                     73                     74                     75
                      A                      A                      A
 Frequencies --   3144.3735              3157.5228              3570.3381
 Red. masses --      1.1021                 1.0961                 1.0738
 Frc consts  --      6.4199                 6.4385                 8.0644
 IR Inten    --     20.8665                24.3257                 0.3749

 - Thermochemistry -
 -------------------
 Temperature   298.150 Kelvin.  Pressure   1.00000 Atm.
 Atom     1 has atomic number  6 and mass  12.00000

 Molecular mass:   139.13610 amu.
 Principal axes and moments of inertia in atomic units:
                           1         2         3
     Eigenvalues --  1297.382641713.054942026.41674
           X            0.99990  -0.01332  -0.00394
           Y            0.01334   0.99990   0.00534
           Z            0.00386  -0.00539   0.99998
 This molecule is an asymmetric top.
 Rotational symmetry number  1.
 Warning -- assumption of classical behavior for rotation
           may cause significant error
 Rotational temperatures (Kelvin)      0.06676     0.05056     0.04274
 Rotational constants (GHZ):           1.39106     1.05352     0.89061
 Zero-point vibrational energy     640885.6 (Joules/Mol)
                                  153.17534 (Kcal/Mol)
 Warning -- explicit consideration of  19 degrees of freedom as
           vibrations may cause significant error
 Vibrational temperatures:     67.55   135.60   157.25   171.98   175.57
          (Kelvin)            229.57   249.19   270.65   306.24   322.17
                              343.11   388.36   460.83   515.94   544.99
                              598.90   665.72   759.45   846.09   918.53
                             1016.37  1030.34  1220.60  1279.10  1355.83
                             1424.77  1455.46  1499.56  1539.85  1550.84
                             1564.46  1581.95  1593.08  1619.56  1667.14
                             1729.31  1751.45  1791.45  1901.64  2022.11
                             2066.80  2071.34  2077.66  2086.47  2127.69
                             2143.43  2166.36  2172.10  2178.29  2181.86
                             2187.30  2191.14  2192.40  2202.65  2208.96
                             2233.59  2478.64  2520.71  4287.31  4329.83
                             4337.76  4362.81  4365.85  4381.73  4408.29
                             4421.84  4439.94  4445.44  4457.40  4485.08
                             4506.19  4518.26  4524.05  4542.97  5136.92

 Zero-point correction=                           0.244100 (Hartree/Particle)
 Thermal correction to Energy=                    0.257411
 Thermal correction to Enthalpy=                  0.258355
 Thermal correction to Gibbs Free Energy=         0.205240
 Sum of electronic and zero-point Energies=           -407.712606
 Sum of electronic and thermal Energies=              -407.699295
 Sum of electronic and thermal Enthalpies=            -407.698351
 Sum of electronic and thermal Free Energies=         -407.751466

                     E (Thermal)             CV                S
                      KCal/Mol        Cal/Mol-Kelvin    Cal/Mol-Kelvin
 Total                  161.528             47.409            111.791
 Electronic               0.000              0.000              0.000
 Translational            0.889              2.981             40.703
 Rotational               0.889              2.981             29.889
 Vibrational            159.750             41.447             41.199
 Vibration     1          0.595              1.979              4.942
 Vibration     2          0.603              1.953              3.570
 Vibration     3          0.606              1.942              3.281
 Vibration     4          0.609              1.933              3.108
 Vibration     5          0.610              1.931              3.068
 Vibration     6          0.621              1.892              2.555
 Vibration     7          0.627              1.875              2.400
 Vibration     8          0.633              1.856              2.246
 Vibration     9          0.644              1.821              2.019
 Vibration    10          0.649              1.805              1.927
 Vibration    11          0.656              1.782              1.814
 Vibration    12          0.674              1.729              1.597
 Vibration    13          0.706              1.635              1.309
 Vibration    14          0.733              1.558              1.128
 Vibration    15          0.749              1.515              1.044
 Vibration    16          0.779              1.435              0.905
 Vibration    17          0.820              1.333              0.758
 Vibration    18          0.883              1.188              0.592
 Vibration    19          0.945              1.057              0.471

                           ! Non-Optimized Parameters !

 1\1\GINC-NODE213\Freq\RB3LYP\6-31G(d)\C9H17N1\VSC10255\08-Dec-2020\0\\
 #N Geom=AllCheck Guess=TCheck SCRF=Check GenChk RB3LYP/6-31G(d) Freq\\
 CID_144132625_JID_145_neutraal\\0,1\C,0.9291222861,-0.1970783649,-0.11
 97887868\C,1.2037833509,-0.830020739,1.2120809645\C,0.7581654183,-0.39
 84758333,2.4001522248\C,1.0982341016,-1.1075949412,3.6885572771\C,-0.1
 332964683,0.8019981556,2.5262727942\C,0.3143461473,1.9854699557,3.0037
 368155\C,-0.587764639,3.1769854293,3.2182436596\C,1.7736780552,2.23836
 46989,3.282893303\N,-1.4468592185,0.6062670051,2.0547627669\C,-2.15075

 Normal termination of Gaussian 16 at Tue Dec  8 10:29:41 2020.

 ----------------------------------------------------------------------
 # B3LYP/6-311++G(d,p) empiricaldispersion=gd3bj scf=xqc pop=npa geom=c
 heck
 ----------------------------------------------------------------------

 --------------------------------------
 CID_144132625_JID_145_Energie_neutraal
 --------------------------------------
 Structure from the checkpoint file:  "JID_145.chk"
 Charge =  0 Multiplicity = 1

 SCF Done:  E(RB3LYP) =  -408.074005777     A.U. after   15 cycles
 Normal termination of Gaussian 16 at Tue Dec  8 10:32:44 2020.

 ----------------------------------------------------------------------
 # B3LYP/6-311++G(d,p) empiricaldispersion=gd3bj scf=xqc pop=npa geom=c
 heck
 ----------------------------------------------------------------------

 ------------------------------------
 CID_144132625_JID_145_Energie_kation
 ------------------------------------
 Structure from the checkpoint file:  "JID_145.chk"
 Charge =  1 Multiplicity = 2

 SCF Done:  E(UB3LYP) =  -407.813850250     A.U. after   20 cycles
 Normal termination of Gaussian 16 at Tue Dec  8 10:39:27 2020.
 Gaussian 16:  ES64L-G16RevA.03 25-Dec-2016

 -----------------------------------
 CID_144132625_JID_145_Energie_anion
 -----------------------------------
 Structure from the checkpoint file:  "JID_145.chk"
 Charge = -1 Multiplicity = 2

                         Standard orientation:
 ---------------------------------------------------------------------
 Center     Atomic      Atomic             Coordinates (Angstroms)
 Number     Number       Type             X           Y           Z
 ---------------------------------------------------------------------
      1          6           0       -1.879700   -0.712208   -1.840594
      2          6           0       -1.844503   -0.948556   -0.359773
      3          6           0       -0.888420   -0.537185    0.484620
      4          6           0       -0.944700   -0.833523    1.963640
      5          6           0        0.287575    0.271230    0.020668
      6          6           0        1.528113   -0.256553   -0.086436
      7          6           0        2.737483    0.562770   -0.468090
      8          6           0        1.791160   -1.730563    0.085710
      9          7           0       -0.022250    1.596656   -0.344482
     10          6           0       -0.914846    2.380406    0.501161
     11          1           0       -1.004048   -0.155284   -2.179964
     12          1           0       -2.775641   -0.144368   -2.126225
     13          1           0       -1.925404   -1.664968   -2.385360
     14          1           0       -2.677208   -1.520353    0.053348
     15          1           0       -0.054872   -1.385286    2.290170
     16          1           0       -0.966100    0.094404    2.550711
     17          1           0       -1.831094   -1.422582    2.222180
     18          1           0        2.653610    1.616381   -0.173664
     19          1           0        3.635584    0.167690    0.023383
     20          1           0        2.936938    0.539405   -1.550188
     21          1           0        0.873041   -2.301510    0.242070
     22          1           0        2.285234   -2.144377   -0.805973
     23          1           0        2.468673   -1.924809    0.930530
     24          1           0        0.798385    2.123371   -0.618708
     25          1           0       -0.516284    2.576716    1.511156
     26          1           0       -1.111781    3.340510    0.014624
     27          1           0       -1.866247    1.853551    0.607848
 ---------------------------------------------------------------------

 SCF Done:  E(UB3LYP) =  -408.056810691     A.U. after   32 cycles

 The electronic state is 2-A.
 Alpha  occ. eigenvalues --  -14.20224 -10.08497 -10.07938 -10.06956 -10.06150
 Alpha  occ. eigenvalues --  -10.05824 -10.05651 -10.05309 -10.05122 -10.05047
 Alpha  occ. eigenvalues --   -0.81257  -0.70673  -0.67739  -0.62565  -0.59211
 Alpha  occ. eigenvalues --   -0.58039  -0.54374  -0.52426  -0.46039  -0.40531
 Alpha  occ. eigenvalues --   -0.37032  -0.35746  -0.34582  -0.32734  -0.31754
 Alpha  occ. eigenvalues --   -0.31268  -0.30743  -0.29835  -0.29263  -0.28465
 Alpha  occ. eigenvalues --   -0.27591  -0.26718  -0.26113  -0.25445  -0.24667
 Alpha  occ. eigenvalues --   -0.21820  -0.18281  -0.13799  -0.08290   0.04775
 Alpha virt. eigenvalues --    0.07083   0.07571   0.07785   0.09257   0.09548
 Alpha virt. eigenvalues --    0.09995   0.10259   0.10389   0.11792   0.11960
 Alpha virt. eigenvalues --    0.12646   0.12876   0.13619   0.14097   0.14395

  Beta  occ. eigenvalues --  -14.20208 -10.08497 -10.07895 -10.06956 -10.06136
  Beta  occ. eigenvalues --  -10.05800 -10.05634 -10.05266 -10.05099 -10.05038
  Beta  occ. eigenvalues --   -0.81230  -0.70650  -0.67707  -0.62532  -0.59156
  Beta  occ. eigenvalues --   -0.57973  -0.54314  -0.52367  -0.45990  -0.40490
  Beta  occ. eigenvalues --   -0.36973  -0.35709  -0.34538  -0.32696  -0.31715
  Beta  occ. eigenvalues --   -0.31232  -0.30704  -0.29804  -0.29227  -0.28424
  Beta  occ. eigenvalues --   -0.27555  -0.26687  -0.26081  -0.25411  -0.24626
  Beta  occ. eigenvalues --   -0.21788  -0.18261  -0.13774  -0.08252
  Beta virt. eigenvalues --    0.06961   0.07988   0.08200   0.08404   0.09761
  Beta virt. eigenvalues --    0.09825   0.10470   0.10596   0.10896   0.12190
  Beta virt. eigenvalues --    0.12445   0.13118   0.13122   0.13845   0.14452

 Mulliken charges and spin densities:
               1          2
     1  C    1.035348  -1.695256
     2  C   -0.144422  -0.490116
     3  C    0.975082   0.374547
     4  C    1.773826  -2.337413
     5  C   -1.952232   1.338330
     6  C   -1.632304   2.082140
     7  C    0.969059  -1.701083
     8  C   -0.003541  -0.809650
     9  N   -0.230397   0.238910
    10  C    0.893155  -1.315782
    11  H    0.194405   0.009933
    12  H   -0.035307   0.181185
    13  H   -0.077960   0.214926
    14  H   -0.593956   0.727392
    15  H   -0.117447   0.285955
    16  H    0.007765   0.147079
    17  H   -0.190420   0.325901
    18  H   -0.647763   0.786034
    19  H   -0.304033   0.452540
    20  H    0.001723   0.152210
    21  H    0.056704   0.094392
    22  H   -0.066187   0.201775
    23  H   -0.082071   0.221785
    24  H   -0.015482   0.249035
    25  H   -0.318797   0.462116
    26  H   -0.560499   0.703434
    27  H    0.065751   0.099682
 Sum of Mulliken charges =  -1.00000   1.00000

 Dipole moment (field-independent basis, Debye):
    X=             -1.2771    Y=             -2.8330    Z=             -1.0073  Tot=              3.2667
 Quadrupole moment (field-independent basis, Debye-Ang):
   XX=           -115.3865   YY=           -115.9423   ZZ=            -98.9023
   XY=             -4.1124   XZ=             -1.2046   YZ=              0.6703

 Summary of Natural Population Analysis:

                                       Natural Population
                Natural  -----------------------------------------------
    Atom  No    Charge         Core      Valence    Rydberg      Total
 -----------------------------------------------------------------------
      C    1   -0.29953      0.99965     2.29483    0.00506     3.29953
      C    2   -0.08229      0.99944     2.07326    0.00959     3.08229
      C    3   -0.02661      0.99945     2.01321    0.01395     3.02661
      C    4   -0.29140      0.99961     2.28599    0.00579     3.29140
      C    5    0.07138      0.99934     1.91263    0.01665     2.92862
      C    6   -0.04849      0.99946     2.03873    0.01030     3.04849
      C    7   -0.29599      0.99963     2.28973    0.00663     3.29599
      C    8   -0.28948      0.99963     2.28494    0.00490     3.28948
      N    9   -0.32229      0.99969     2.81009    0.01250     3.82229
      C   10   -0.17751      0.99964     2.16909    0.00879     3.17751
      H   11    0.11049      0.00000     0.38805    0.00146     0.38951
      H   12    0.10040      0.00000     0.39832    0.00128     0.39960
      H   13    0.09796      0.00000     0.40080    0.00125     0.40204
      H   14    0.08887      0.00000     0.40997    0.00115     0.41113
      H   15    0.10427      0.00000     0.39446    0.00127     0.39573
      H   16    0.10238      0.00000     0.39612    0.00150     0.39762
      H   17    0.09850      0.00000     0.40035    0.00115     0.40150
      H   18    0.09984      0.00000     0.39808    0.00208     0.40016
      H   19    0.10207      0.00000     0.39660    0.00133     0.39793
      H   20    0.09890      0.00000     0.39998    0.00111     0.40110
      H   21    0.10537      0.00000     0.39361    0.00102     0.39463
      H   22    0.09624      0.00000     0.40251    0.00125     0.40376
      H   23    0.09722      0.00000     0.40133    0.00145     0.40278
      H   24    0.18401      0.00000     0.31216    0.00382     0.31599
      H   25    0.08236      0.00000     0.41569    0.00196     0.41764
      H   26    0.09642      0.00000     0.40196    0.00162     0.40358
      H   27    0.09689      0.00000     0.40170    0.00142     0.40311
 =======================================================================
   * Total *   -0.00000      9.99554    28.88416    0.12029    39.00000

 Normal termination of Gaussian 16 at Tue Dec  8 10:52:04 2020.
