 Gaussian 16, Revision A.03,

 -----------------------------------------------------------
 # opt freq B3LYP/6-31G(d) empiricaldispersion=gd3bj scf=xqc
 -----------------------------------------------------------

 -------------------------------
 CID_116993126_JID_4517_neutraal
 -------------------------------
 Symbolic Z-matrix:
 Charge =  0 Multiplicity = 1

 SCF Done:  E(RB3LYP) =  -590.049445666     A.U. after   16 cycles
 SCF Done:  E(RB3LYP) =  -590.072980865     A.U. after   13 cycles
 SCF Done:  E(RB3LYP) =  -590.073905930     A.U. after   12 cycles
 SCF Done:  E(RB3LYP) =  -590.074123865     A.U. after   12 cycles
 SCF Done:  E(RB3LYP) =  -590.074311083     A.U. after   12 cycles
 SCF Done:  E(RB3LYP) =  -590.074559589     A.U. after   13 cycles
 SCF Done:  E(RB3LYP) =  -590.074338961     A.U. after   13 cycles
 SCF Done:  E(RB3LYP) =  -590.075439918     A.U. after   13 cycles
 SCF Done:  E(RB3LYP) =  -590.077173265     A.U. after   15 cycles
 SCF Done:  E(RB3LYP) =  -590.077010091     A.U. after   13 cycles
 SCF Done:  E(RB3LYP) =  -590.077815702     A.U. after   11 cycles
 SCF Done:  E(RB3LYP) =  -590.077850231     A.U. after   10 cycles
 SCF Done:  E(RB3LYP) =  -590.077898161     A.U. after   11 cycles
 SCF Done:  E(RB3LYP) =  -590.077906278     A.U. after   10 cycles
 SCF Done:  E(RB3LYP) =  -590.077906634     A.U. after    8 cycles
 SCF Done:  E(RB3LYP) =  -590.077906662     A.U. after    7 cycles
 Optimization completed.
    -- Stationary point found.
 Normal termination of Gaussian 16 at Thu Dec 10 10:01:52 2020.

 --------------------------------------------------------------------
 #N Geom=AllCheck Guess=TCheck SCRF=Check GenChk RB3LYP/6-31G(d) Freq
 --------------------------------------------------------------------

 Structure from the checkpoint file:  "JID_4517.chk"
 -------------------------------
 CID_116993126_JID_4517_neutraal
 -------------------------------
 Charge =  0 Multiplicity = 1

 SCF Done:  E(RB3LYP) =  -590.077906662     A.U. after    1 cycles

  Exact polarizability: 170.091   8.820 138.318   0.017   7.625  70.695
 Approx polarizability: 249.165  25.358 250.603   1.993  15.195 116.431

                      1                      2                      3
                      A                      A                      A
 Frequencies --     37.3839                71.8715                95.6347
 Red. masses --      5.2434                 3.6320                 3.3580
 Frc consts  --      0.0043                 0.0111                 0.0181
 IR Inten    --      3.7163                 0.9366                 3.7758

                      4                      5                      6
                      A                      A                      A
 Frequencies --    125.5715               151.2211               200.1942
 Red. masses --      3.2135                 3.6950                 2.5299
 Frc consts  --      0.0299                 0.0498                 0.0597
 IR Inten    --      0.7851                 2.2576                 0.9849

                      7                      8                      9
                      A                      A                      A
 Frequencies --    205.7777               256.6622               276.1644
 Red. masses --      5.6291                 1.6016                 3.3261
 Frc consts  --      0.1404                 0.0622                 0.1495
 IR Inten    --      0.1816                 1.0717                 2.1939

                     10                     11                     12
                      A                      A                      A
 Frequencies --    317.4270               330.2169               427.2559
 Red. masses --      5.8792                 3.4553                 2.8812
 Frc consts  --      0.3490                 0.2220                 0.3099
 IR Inten    --      4.3617                 1.2106                 6.1865

                     13                     14                     15
                      A                      A                      A
 Frequencies --    466.7658               501.7035               557.9197
 Red. masses --      6.0917                 5.9526                 4.5290
 Frc consts  --      0.7820                 0.8828                 0.8306
 IR Inten    --      2.0816                 0.1757                 0.5379

                     16                     17                     18
                      A                      A                      A
 Frequencies --    579.3340               592.6357               634.9786
 Red. masses --      3.7266                 6.3010                 6.1520
 Frc consts  --      0.7369                 1.3039                 1.4615
 IR Inten    --      1.4117                 4.2930                 1.8628

                     19                     20                     21
                      A                      A                      A
 Frequencies --    683.8925               729.3794               743.4071
 Red. masses --      5.8750                 3.2613                 1.3683
 Frc consts  --      1.6190                 1.0222                 0.4455
 IR Inten    --      8.1970                 0.3625                33.2795

                     22                     23                     24
                      A                      A                      A
 Frequencies --    766.7354               783.7889               798.6184
 Red. masses --      1.7905                 4.9838                 1.3879
 Frc consts  --      0.6202                 1.8039                 0.5215
 IR Inten    --      0.7327                 5.7919                28.3440

                     25                     26                     27
                      A                      A                      A
 Frequencies --    831.5497               836.2971               890.1667
 Red. masses --      1.8568                 1.8715                 2.6464
 Frc consts  --      0.7565                 0.7712                 1.2355
 IR Inten    --      5.8451                 2.6465                 9.9778

                     28                     29                     30
                      A                      A                      A
 Frequencies --    921.6374               931.6717               959.3088
 Red. masses --      4.4889                 1.3308                 2.0543
 Frc consts  --      2.2465                 0.6806                 1.1139
 IR Inten    --     10.7517                 0.4728                 9.5123

                     31                     32                     33
                      A                      A                      A
 Frequencies --    975.7281              1032.8167              1055.5885
 Red. masses --      1.2533                 2.2828                 3.6282
 Frc consts  --      0.7030                 1.4347                 2.3820
 IR Inten    --      0.1769                 3.7899                 4.7501

                     34                     35                     36
                      A                      A                      A
 Frequencies --   1066.1072              1129.6035              1143.2768
 Red. masses --      2.1596                 2.2065                 1.8930
 Frc consts  --      1.4462                 1.6589                 1.4578
 IR Inten    --     10.5904                 4.1920                 2.1162

                     37                     38                     39
                      A                      A                      A
 Frequencies --   1168.8542              1185.2906              1219.6895
 Red. masses --      1.3861                 1.3357                 1.6366
 Frc consts  --      1.1158                 1.1056                 1.4344
 IR Inten    --      1.0964                 0.5528                 1.1309

                     40                     41                     42
                      A                      A                      A
 Frequencies --   1269.2887              1290.9791              1307.8132
 Red. masses --      1.5216                 1.4389                 1.8259
 Frc consts  --      1.4443                 1.4129                 1.8400
 IR Inten    --      9.7736                 9.1827                 0.0346

                     43                     44                     45
                      A                      A                      A
 Frequencies --   1322.7868              1350.5071              1360.8394
 Red. masses --      2.7073                 2.9990                 1.3072
 Frc consts  --      2.7910                 3.2227                 1.4262
 IR Inten    --      3.3317                15.7194                 8.5898

                     46                     47                     48
                      A                      A                      A
 Frequencies --   1386.3472              1399.5062              1427.3581
 Red. masses --      1.5382                 2.3789                 2.8206
 Frc consts  --      1.7418                 2.7452                 3.3858
 IR Inten    --      3.4726                17.6456                 1.9441

                     49                     50                     51
                      A                      A                      A
 Frequencies --   1448.2478              1491.4735              1513.3974
 Red. masses --      1.2492                 3.0365                 1.0854
 Frc consts  --      1.5437                 3.9798                 1.4646
 IR Inten    --      2.1067                 4.7921                 2.7706

                     52                     53                     54
                      A                      A                      A
 Frequencies --   1527.0519              1530.3216              1536.9066
 Red. masses --      4.2692                 1.0562                 1.0572
 Frc consts  --      5.8655                 1.4574                 1.4713
 IR Inten    --      6.5976                 6.1928                 4.5072

                     55                     56                     57
                      A                      A                      A
 Frequencies --   1561.9132              1587.9880              1699.2052
 Red. masses --      5.5572                 4.8813                 5.7683
 Frc consts  --      7.9877                 7.2524                 9.8127
 IR Inten    --      5.4183                 0.5495                 4.3868

                     58                     59                     60
                      A                      A                      A
 Frequencies --   2360.0208              2994.2207              3050.6550
 Red. masses --     12.6428                 1.0810                 1.0377
 Frc consts  --     41.4883                 5.7101                 5.6901
 IR Inten    --      5.8519                10.0386                24.4421

                     61                     62                     63
                      A                      A                      A
 Frequencies --   3090.3995              3109.9282              3129.1260
 Red. masses --      1.0616                 1.1006                 1.1015
 Frc consts  --      5.9735                 6.2715                 6.3545
 IR Inten    --      9.2850                10.8760                25.2379

                     64                     65                     66
                      A                      A                      A
 Frequencies --   3139.5768              3209.2313              3222.7941
 Red. masses --      1.1048                 1.0866                 1.0923
 Frc consts  --      6.4162                 6.5936                 6.6843
 IR Inten    --     25.0473                 0.8324                10.4966

                     67                     68                     69
                      A                      A                      A
 Frequencies --   3231.2349              3263.2128              3267.9150
 Red. masses --      1.0945                 1.0954                 1.0963
 Frc consts  --      6.7332                 6.8722                 6.8981
 IR Inten    --      8.3777                 1.0403                 6.2707

 - Thermochemistry -
 -------------------
 Temperature   298.150 Kelvin.  Pressure   1.00000 Atm.
 Atom     1 has atomic number  6 and mass  12.00000

 Molecular mass:   185.09530 amu.
 Principal axes and moments of inertia in atomic units:
                           1         2         3
     Eigenvalues --  1275.015493747.767764684.41119
           X            0.99983   0.01511  -0.01033
           Y           -0.01487   0.99964   0.02233
           Z            0.01066  -0.02217   0.99970
 This molecule is an asymmetric top.
 Rotational symmetry number  1.
 Warning -- assumption of classical behavior for rotation
           may cause significant error
 Rotational temperatures (Kelvin)      0.06793     0.02311     0.01849
 Rotational constants (GHZ):           1.41547     0.48155     0.38527
 Zero-point vibrational energy     530916.9 (Joules/Mol)
                                  126.89218 (Kcal/Mol)
 Warning -- explicit consideration of  17 degrees of freedom as
           vibrations may cause significant error
 Vibrational temperatures:     53.79   103.41   137.60   180.67   217.57
          (Kelvin)            288.03   296.07   369.28   397.34   456.71
                              475.11   614.73   671.57   721.84   802.72
                              833.53   852.67   913.59   983.97  1049.41
                             1069.60  1103.16  1127.70  1149.03  1196.41
                             1203.25  1280.75  1326.03  1340.47  1380.23
                             1403.86  1485.99  1518.76  1533.89  1625.25
                             1644.92  1681.72  1705.37  1754.86  1826.22
                             1857.43  1881.65  1903.20  1943.08  1957.94
                             1994.64  2013.58  2053.65  2083.71  2145.90
                             2177.44  2197.09  2201.79  2211.27  2247.24
                             2284.76  2444.78  3395.54  4308.02  4389.21
                             4446.40  4474.49  4502.11  4517.15  4617.37
                             4636.88  4649.03  4695.04  4701.80

 Zero-point correction=                           0.202216 (Hartree/Particle)
 Thermal correction to Energy=                    0.214265
 Thermal correction to Enthalpy=                  0.215209
 Thermal correction to Gibbs Free Energy=         0.163337
 Sum of electronic and zero-point Energies=           -589.875691
 Sum of electronic and thermal Energies=              -589.863642
 Sum of electronic and thermal Enthalpies=            -589.862698
 Sum of electronic and thermal Free Energies=         -589.914570

                     E (Thermal)             CV                S
                      KCal/Mol        Cal/Mol-Kelvin    Cal/Mol-Kelvin
 Total                  134.453             46.018            109.174
 Electronic               0.000              0.000              0.000
 Translational            0.889              2.981             41.553
 Rotational               0.889              2.981             31.482
 Vibrational            132.676             40.056             36.139
 Vibration     1          0.594              1.982              5.393
 Vibration     2          0.598              1.967              4.101
 Vibration     3          0.603              1.952              3.541
 Vibration     4          0.611              1.927              3.013
 Vibration     5          0.619              1.901              2.657
 Vibration     6          0.638              1.840              2.131
 Vibration     7          0.640              1.832              2.081
 Vibration     8          0.666              1.752              1.684
 Vibration     9          0.678              1.717              1.557
 Vibration    10          0.704              1.640              1.323
 Vibration    11          0.713              1.615              1.259
 Vibration    12          0.789              1.411              0.868
 Vibration    13          0.824              1.324              0.747
 Vibration    14          0.857              1.246              0.654
 Vibration    15          0.913              1.122              0.528
 Vibration    16          0.936              1.076              0.487
 Vibration    17          0.950              1.047              0.462

 Optimization completed.
    -- Stationary point found.
 Normal termination of Gaussian 16 at Thu Dec 10 10:08:12 2020.

 ----------------------------------------------------------------------
 # B3LYP/6-311++G(d,p) empiricaldispersion=gd3bj scf=xqc pop=npa geom=c
 heck
 ----------------------------------------------------------------------

 ---------------------------------------
 CID_116993126_JID_4517_Energie_neutraal
 ---------------------------------------
 Structure from the checkpoint file:  "JID_4517.chk"
 Charge =  0 Multiplicity = 1

 SCF Done:  E(RB3LYP) =  -590.231079124     A.U. after   15 cycles
 Normal termination of Gaussian 16 at Thu Dec 10 10:10:39 2020.

 ----------------------------------------------------------------------
 # B3LYP/6-311++G(d,p) empiricaldispersion=gd3bj scf=xqc pop=npa geom=c
 heck
 ----------------------------------------------------------------------

 -------------------------------------
 CID_116993126_JID_4517_Energie_kation
 -------------------------------------
 Structure from the checkpoint file:  "JID_4517.chk"
 Charge =  1 Multiplicity = 2

 SCF Done:  E(UB3LYP) =  -589.950000310     A.U. after   21 cycles
 Normal termination of Gaussian 16 at Thu Dec 10 10:15:27 2020.
 Gaussian 16:  ES64L-G16RevA.03 25-Dec-2016

 ----------------------------------------------------------------------
 # B3LYP/6-311++G(d,p) empiricaldispersion=gd3bj scf=xqc pop=npa geom=c
 heck
 ----------------------------------------------------------------------

 ------------------------------------
 CID_116993126_JID_4517_Energie_anion
 ------------------------------------
 Structure from the checkpoint file:  "JID_4517.chk"
 Charge = -1 Multiplicity = 2

                         Standard orientation:
 ---------------------------------------------------------------------
 Center     Atomic      Atomic             Coordinates (Angstroms)
 Number     Number       Type             X           Y           Z
 ---------------------------------------------------------------------
      1          6           0        4.180443    0.144994   -0.569607
      2          6           0        2.861861    0.823711   -0.201798
      3          6           0        1.647139   -0.125124   -0.328046
      4          6           0        1.801463   -1.296952    0.555391
      5          7           0        1.906977   -2.228147    1.240561
      6          6           0        0.351741    0.589429   -0.047459
      7          7           0        0.232631    1.866982    0.280319
      8          6           0       -1.097781    2.126473    0.410249
      9          6           0       -1.844272    0.981089    0.159633
     10          7           0       -0.882990   -0.013343   -0.136535
     11          6           0       -1.248955   -1.311630   -0.438123
     12          6           0       -2.568512   -1.642156   -0.463252
     13          6           0       -3.573113   -0.665167   -0.177513
     14          6           0       -3.213365    0.619434    0.130719
     15          1           0        4.393003   -0.703443    0.089740
     16          1           0        5.010228    0.853524   -0.483082
     17          1           0        4.164758   -0.226315   -1.601556
     18          1           0        2.892136    1.212184    0.820243
     19          1           0        2.665608    1.681171   -0.851506
     20          1           0        1.627966   -0.519236   -1.357355
     21          1           0       -1.463897    3.109118    0.672301
     22          1           0       -0.445798   -2.013094   -0.619147
     23          1           0       -2.846796   -2.663747   -0.695871
     24          1           0       -4.618948   -0.952227   -0.201809
     25          1           0       -3.954470    1.379021    0.356463
 ---------------------------------------------------------------------

 SCF Done:  E(UB3LYP) =  -590.228363289     A.U. after   32 cycles

 The electronic state is 2-A.
 Alpha  occ. eigenvalues --  -14.25460 -14.20521 -14.17287 -10.11843 -10.10690
 Alpha  occ. eigenvalues --  -10.10477 -10.08051 -10.07600 -10.06990 -10.06321
 Alpha  occ. eigenvalues --  -10.05234 -10.04423 -10.04310 -10.03590  -0.90204
 Alpha  occ. eigenvalues --   -0.80368  -0.78006  -0.72051  -0.68412  -0.64672
 Alpha  occ. eigenvalues --   -0.62695  -0.57377  -0.52227  -0.51649  -0.48319
 Alpha  occ. eigenvalues --   -0.46932  -0.41931  -0.40160  -0.37318  -0.35177
 Alpha  occ. eigenvalues --   -0.34636  -0.33381  -0.33028  -0.32107  -0.31140
 Alpha  occ. eigenvalues --   -0.29657  -0.27108  -0.26919  -0.26036  -0.25511
 Alpha  occ. eigenvalues --   -0.24469  -0.23832  -0.22282  -0.22102  -0.21838
 Alpha  occ. eigenvalues --   -0.18307  -0.15516  -0.13729  -0.07400   0.04948
 Alpha virt. eigenvalues --    0.06765   0.08282   0.08755   0.09527   0.10060
 Alpha virt. eigenvalues --    0.10683   0.11312   0.11746   0.11875   0.13060
 Alpha virt. eigenvalues --    0.13335   0.13525   0.13690   0.14179   0.15168

  Beta  occ. eigenvalues --  -14.25386 -14.20506 -14.17158 -10.11821 -10.10729
  Beta  occ. eigenvalues --  -10.10477 -10.08094 -10.07592 -10.06648 -10.06293
  Beta  occ. eigenvalues --  -10.05159 -10.04386 -10.04231 -10.03252  -0.90022
  Beta  occ. eigenvalues --   -0.80342  -0.77734  -0.72003  -0.68055  -0.64416
  Beta  occ. eigenvalues --   -0.62461  -0.57157  -0.52000  -0.51308  -0.48192
  Beta  occ. eigenvalues --   -0.46774  -0.41804  -0.40043  -0.37075  -0.35034
  Beta  occ. eigenvalues --   -0.34534  -0.33120  -0.32910  -0.31869  -0.30916
  Beta  occ. eigenvalues --   -0.29575  -0.27063  -0.26879  -0.25994  -0.25370
  Beta  occ. eigenvalues --   -0.24438  -0.23703  -0.22193  -0.21767  -0.21195
  Beta  occ. eigenvalues --   -0.17142  -0.15343  -0.12856  -0.06464
  Beta virt. eigenvalues --    0.07301   0.08213   0.09189   0.09553   0.10156
  Beta virt. eigenvalues --    0.10262   0.10748   0.11346   0.11828   0.12017
  Beta virt. eigenvalues --    0.13313   0.13487   0.13604   0.13784   0.14217

 Mulliken charges and spin densities:
               1          2
     1  C    0.489640  -1.097297
     2  C   -1.208782   0.816599
     3  C    1.156457  -0.516842
     4  C    0.019198  -0.320667
     5  N   -0.338143   0.022171
     6  C   -0.874274   0.141932
     7  N   -0.028442   0.074186
     8  C   -0.008533  -0.080016
     9  C    0.448701  -0.190693
    10  N    0.333376  -0.007461
    11  C   -0.139839   0.256787
    12  C   -0.081550  -0.134498
    13  C   -0.520215  -0.075947
    14  C   -0.275041   0.486492
    15  H    0.094294   0.056091
    16  H   -0.209768   0.350876
    17  H   -0.272342   0.414796
    18  H    0.161241   0.032841
    19  H    0.062591   0.129321
    20  H   -0.206716   0.445032
    21  H    0.112069   0.015973
    22  H    0.004928   0.108773
    23  H    0.084496   0.058573
    24  H    0.094802   0.008432
    25  H    0.101855   0.004549
 Sum of Mulliken charges =  -1.00000   1.00000

 Dipole moment (field-independent basis, Debye):
    X=             -1.9357    Y=              1.2859    Z=              0.7761  Tot=              2.4501
 Quadrupole moment (field-independent basis, Debye-Ang):
   XX=           -129.6713   YY=           -110.4432   ZZ=           -106.8898
   XY=              1.7875   XZ=              4.0492   YZ=              4.1474

 Summary of Natural Population Analysis:

                                       Natural Population
                Natural  -----------------------------------------------
    Atom  No    Charge         Core      Valence    Rydberg      Total
 -----------------------------------------------------------------------
      C    1   -0.28935      0.99966     2.28463    0.00506     3.28935
      C    2   -0.18021      0.99963     2.17013    0.01045     3.18021
      C    3   -0.17765      0.99948     2.16668    0.01149     3.17765
      C    4    0.16579      0.99965     1.81476    0.01980     2.83421
      N    5   -0.18813      0.99979     2.67742    0.01092     3.68813
      C    6    0.16101      0.99959     1.82095    0.01844     2.83899
      N    7   -0.23104      0.99969     2.72297    0.00838     3.73104
      C    8   -0.03157      0.99955     2.01799    0.01403     3.03157
      C    9    0.05110      0.99955     1.93793    0.01143     2.94890
      N   10   -0.17808      0.99959     2.66955    0.00895     3.67808
      C   11    0.06657      0.99955     1.92287    0.01102     2.93343
      C   12   -0.12387      0.99958     2.11515    0.00914     3.12387
      C   13   -0.10004      0.99958     2.08871    0.01176     3.10004
      C   14   -0.05195      0.99954     2.04334    0.00908     3.05195
      H   15    0.09970      0.00000     0.39937    0.00093     0.40030
      H   16    0.09932      0.00000     0.39993    0.00075     0.40068
      H   17    0.09903      0.00000     0.39940    0.00157     0.40097
      H   18    0.10317      0.00000     0.39538    0.00145     0.39683
      H   19    0.10952      0.00000     0.38902    0.00145     0.39048
      H   20    0.12383      0.00000     0.37322    0.00294     0.37617
      H   21    0.09012      0.00000     0.40901    0.00087     0.40988
      H   22    0.09716      0.00000     0.40140    0.00143     0.40284
      H   23    0.09812      0.00000     0.40117    0.00071     0.40188
      H   24    0.09290      0.00000     0.40634    0.00076     0.40710
      H   25    0.09454      0.00000     0.40463    0.00083     0.40546
 =======================================================================
   * Total *    0.00000     13.99440    34.83195    0.17365    49.00000

 Normal termination of Gaussian 16 at Thu Dec 10 10:21:51 2020.
