 Gaussian 16, Revision A.03,

 -----------------------------------------------------------
 # opt freq B3LYP/6-31G(d) empiricaldispersion=gd3bj scf=xqc
 -----------------------------------------------------------

 ------------------------------
 CID_69167762_JID_1798_neutraal
 ------------------------------
 Symbolic Z-matrix:
 Charge =  0 Multiplicity = 1

 SCF Done:  E(RB3LYP) =  -908.738771682     A.U. after   15 cycles
 SCF Done:  E(RB3LYP) =  -908.749178176     A.U. after   13 cycles
 SCF Done:  E(RB3LYP) =  -908.750465457     A.U. after   12 cycles
 SCF Done:  E(RB3LYP) =  -908.750641048     A.U. after   11 cycles
 SCF Done:  E(RB3LYP) =  -908.750666707     A.U. after   10 cycles
 SCF Done:  E(RB3LYP) =  -908.750673578     A.U. after   10 cycles
 SCF Done:  E(RB3LYP) =  -908.750676863     A.U. after    9 cycles
 SCF Done:  E(RB3LYP) =  -908.750680004     A.U. after   10 cycles
 SCF Done:  E(RB3LYP) =  -908.750682032     A.U. after   10 cycles
 SCF Done:  E(RB3LYP) =  -908.750684578     A.U. after   10 cycles
 SCF Done:  E(RB3LYP) =  -908.750685635     A.U. after    9 cycles
 SCF Done:  E(RB3LYP) =  -908.750686110     A.U. after    8 cycles
 SCF Done:  E(RB3LYP) =  -908.750686618     A.U. after    8 cycles
 SCF Done:  E(RB3LYP) =  -908.750686894     A.U. after    8 cycles
 SCF Done:  E(RB3LYP) =  -908.750686963     A.U. after    8 cycles
 Optimization completed.
    -- Stationary point found.
 Normal termination of Gaussian 16 at Tue Dec  8 21:11:47 2020.

 --------------------------------------------------------------------
 #N Geom=AllCheck Guess=TCheck SCRF=Check GenChk RB3LYP/6-31G(d) Freq
 --------------------------------------------------------------------

 Structure from the checkpoint file:  "JID_1798.chk"
 ------------------------------
 CID_69167762_JID_1798_neutraal
 ------------------------------
 Charge =  0 Multiplicity = 1

 SCF Done:  E(RB3LYP) =  -908.750686963     A.U. after    1 cycles

  Exact polarizability: 100.669  -2.224  94.778  -0.000  -0.001  71.228
 Approx polarizability: 148.772   6.513 164.045  -0.001  -0.004 117.185

                      1                      2                      3
                      A                      A                      A
 Frequencies --     36.0660               117.7225               159.0163
 Red. masses --      5.3052                 3.3522                 4.8892
 Frc consts  --      0.0041                 0.0274                 0.0728
 IR Inten    --      7.0064                 0.0497                 8.4025

                      4                      5                      6
                      A                      A                      A
 Frequencies --    164.6156               191.9936               230.1985
 Red. masses --      4.3189                 1.5301                 1.0749
 Frc consts  --      0.0690                 0.0332                 0.0336
 IR Inten    --      0.0239                20.2612                 1.3563

                      7                      8                      9
                      A                      A                      A
 Frequencies --    253.0182               261.7591               265.5788
 Red. masses --      1.3261                 2.5001                 2.5427
 Frc consts  --      0.0500                 0.1009                 0.1057
 IR Inten    --      1.2256                 1.0363                22.6213

                     10                     11                     12
                      A                      A                      A
 Frequencies --    308.2377               354.0084               358.0984
 Red. masses --      3.0538                 3.6267                 4.6108
 Frc consts  --      0.1709                 0.2678                 0.3484
 IR Inten    --      2.9675                 0.1718                 2.1092

                     13                     14                     15
                      A                      A                      A
 Frequencies --    406.9949               426.0105               503.4674
 Red. masses --      4.2030                 4.3378                 6.2796
 Frc consts  --      0.4102                 0.4638                 0.9378
 IR Inten    --      1.9151                11.5392                 0.1575

                     16                     17                     18
                      A                      A                      A
 Frequencies --    576.3756               651.9079               655.1609
 Red. masses --      5.0236                 5.7379                 4.4660
 Frc consts  --      0.9833                 1.4367                 1.1295
 IR Inten    --    128.8481                21.3552                 1.0727

                     19                     20                     21
                      A                      A                      A
 Frequencies --    666.9989               676.4273               817.8993
 Red. masses --      3.6726                 2.9470                 3.3390
 Frc consts  --      0.9626                 0.7944                 1.3160
 IR Inten    --     15.8715               190.9958                 2.2113

                     22                     23                     24
                      A                      A                      A
 Frequencies --    877.0224               909.6667               942.7936
 Red. masses --      2.2347                 1.4029                 5.5091
 Frc consts  --      1.0127                 0.6840                 2.8851
 IR Inten    --    116.4216                10.3116                13.9364

                     25                     26                     27
                      A                      A                      A
 Frequencies --    975.7398               977.2152               993.7901
 Red. masses --      1.4660                 3.4662                 2.5103
 Frc consts  --      0.8223                 1.9502                 1.4607
 IR Inten    --      0.3671                 0.4319                 5.7784

                     28                     29                     30
                      A                      A                      A
 Frequencies --   1047.9556              1075.8020              1108.3764
 Red. masses --      1.2924                 3.4855                 1.2708
 Frc consts  --      0.8363                 2.3767                 0.9198
 IR Inten    --      0.0717                33.7673                 3.9769

                     31                     32                     33
                      A                      A                      A
 Frequencies --   1128.6870              1165.5488              1209.6174
 Red. masses --     12.5284                 3.9233                 2.2807
 Frc consts  --      9.4036                 3.1402                 1.9661
 IR Inten    --    155.5166                 3.8042                 8.7737

                     34                     35                     36
                      A                      A                      A
 Frequencies --   1242.5162              1313.8863              1339.2993
 Red. masses --      1.7285                 2.9063                 9.4319
 Frc consts  --      1.5722                 2.9560                 9.9679
 IR Inten    --     25.0115                14.6579               181.2069

                     37                     38                     39
                      A                      A                      A
 Frequencies --   1421.8277              1441.3387              1505.6266
 Red. masses --      1.1929                 1.2382                 1.0502
 Frc consts  --      1.4209                 1.5155                 1.4027
 IR Inten    --      0.8727                 0.2137                 4.9942

                     40                     41                     42
                      A                      A                      A
 Frequencies --   1512.3435              1519.9545              1523.6553
 Red. masses --      1.0442                 3.1055                 1.3593
 Frc consts  --      1.4072                 4.2272                 1.8593
 IR Inten    --      0.3001                12.2321                 6.2062

                     43                     44                     45
                      A                      A                      A
 Frequencies --   1534.4263              1619.0893              1647.8301
 Red. masses --      1.0539                 1.1322                 6.5584
 Frc consts  --      1.4620                 1.7487                10.4923
 IR Inten    --     12.7769                39.0108                 8.2125

                     46                     47                     48
                      A                      A                      A
 Frequencies --   3076.0586              3078.4529              3154.9959
 Red. masses --      1.0327                 1.0335                 1.1045
 Frc consts  --      5.7573                 5.7705                 6.4774
 IR Inten    --     13.0462                11.0758                 9.0219

                     49                     50                     51
                      A                      A                      A
 Frequencies --   3156.5231              3163.0158              3166.7926
 Red. masses --      1.1041                 1.1048                 1.1043
 Frc consts  --      6.4814                 6.5121                 6.5248
 IR Inten    --     15.3961                 1.6377                11.1503

                     52                     53                     54
                      A                      A                      A
 Frequencies --   3291.5374              3501.0142              3612.3721
 Red. masses --      1.0984                 1.0467                 1.0987
 Frc consts  --      7.0114                 7.5588                 8.4474
 IR Inten    --      0.2858                49.3603                46.9684

 - Thermochemistry -
 -------------------
 Temperature   298.150 Kelvin.  Pressure   1.00000 Atm.
 Atom     1 has atomic number  6 and mass  12.00000

 Molecular mass:   175.04155 amu.
 Principal axes and moments of inertia in atomic units:
                           1         2         3
     Eigenvalues --  1094.727382202.050592520.33543
           X            0.99761  -0.06908   0.00000
           Y            0.06908   0.99761   0.00001
           Z           -0.00000  -0.00001   1.00000
 This molecule is an asymmetric top.
 Rotational symmetry number  1.
 Warning -- assumption of classical behavior for rotation
           may cause significant error
 Rotational temperatures (Kelvin)      0.07912     0.03933     0.03437
 Rotational constants (GHZ):           1.64858     0.81957     0.71607
 Zero-point vibrational energy     402641.1 (Joules/Mol)
                                   96.23352 (Kcal/Mol)
 Warning -- explicit consideration of  16 degrees of freedom as
           vibrations may cause significant error
 Vibrational temperatures:     51.89   169.38   228.79   236.85   276.24
          (Kelvin)            331.20   364.04   376.61   382.11   443.49
                              509.34   515.22   585.57   612.93   724.38
                              829.28   937.95   942.63   959.66   973.23
                             1176.77  1261.84  1308.81  1356.47  1403.87
                             1405.99  1429.84  1507.77  1547.84  1594.71
                             1623.93  1676.96  1740.37  1787.70  1890.39
                             1926.95  2045.69  2073.76  2166.26  2175.93
                             2186.88  2192.20  2207.70  2329.51  2370.86
                             4425.76  4429.21  4539.34  4541.53  4550.87
                             4556.31  4735.79  5037.18  5197.40

 Zero-point correction=                           0.153358 (Hartree/Particle)
 Thermal correction to Energy=                    0.164688
 Thermal correction to Enthalpy=                  0.165633
 Thermal correction to Gibbs Free Energy=         0.116337
 Sum of electronic and zero-point Energies=           -908.597329
 Sum of electronic and thermal Energies=              -908.585999
 Sum of electronic and thermal Enthalpies=            -908.585054
 Sum of electronic and thermal Free Energies=         -908.634350

                     E (Thermal)             CV                S
                      KCal/Mol        Cal/Mol-Kelvin    Cal/Mol-Kelvin
 Total                  103.344             42.073            103.751
 Electronic               0.000              0.000              0.000
 Translational            0.889              2.981             41.387
 Rotational               0.889              2.981             30.186
 Vibrational            101.566             36.111             32.177
 Vibration     1          0.594              1.982              5.464
 Vibration     2          0.608              1.935              3.137
 Vibration     3          0.621              1.892              2.561
 Vibration     4          0.623              1.886              2.496
 Vibration     5          0.634              1.851              2.208
 Vibration     6          0.652              1.795              1.877
 Vibration     7          0.664              1.758              1.709
 Vibration     8          0.669              1.743              1.650
 Vibration     9          0.671              1.736              1.625
 Vibration    10          0.698              1.658              1.372
 Vibration    11          0.730              1.567              1.148
 Vibration    12          0.733              1.559              1.130
 Vibration    13          0.772              1.455              0.937
 Vibration    14          0.788              1.414              0.872
 Vibration    15          0.859              1.242              0.650
 Vibration    16          0.933              1.082              0.492

 Optimization completed.
    -- Stationary point found.
 Normal termination of Gaussian 16 at Tue Dec  8 21:15:56 2020.

 ----------------------------------------------------------------------
 # B3LYP/6-311++G(d,p) empiricaldispersion=gd3bj scf=xqc pop=npa geom=c
 heck
 ----------------------------------------------------------------------

 --------------------------------------
 CID_69167762_JID_1798_Energie_neutraal
 --------------------------------------
 Structure from the checkpoint file:  "JID_1798.chk"
 Charge =  0 Multiplicity = 1

 SCF Done:  E(RB3LYP) =  -908.927763448     A.U. after   15 cycles
 Normal termination of Gaussian 16 at Tue Dec  8 21:18:10 2020.

 ----------------------------------------------------------------------
 # B3LYP/6-311++G(d,p) empiricaldispersion=gd3bj scf=xqc pop=npa geom=c
 heck
 ----------------------------------------------------------------------

 ------------------------------------
 CID_69167762_JID_1798_Energie_kation
 ------------------------------------
 Structure from the checkpoint file:  "JID_1798.chk"
 Charge =  1 Multiplicity = 2

 SCF Done:  E(UB3LYP) =  -908.579951889     A.U. after   25 cycles
 Normal termination of Gaussian 16 at Tue Dec  8 21:25:08 2020.
 Gaussian 16:  ES64L-G16RevA.03 25-Dec-2016

 ----------------------------------------------------------------------
 # B3LYP/6-311++G(d,p) empiricaldispersion=gd3bj scf=xqc pop=npa geom=c
 heck
 ----------------------------------------------------------------------

 -----------------------------------
 CID_69167762_JID_1798_Energie_anion
 -----------------------------------
 Structure from the checkpoint file:  "JID_1798.chk"
 Charge = -1 Multiplicity = 2

                         Standard orientation:
 ---------------------------------------------------------------------
 Center     Atomic      Atomic             Coordinates (Angstroms)
 Number     Number       Type             X           Y           Z
 ---------------------------------------------------------------------
      1          6           0        1.564070   -1.270759   -1.274221
      2          6           0        1.413499   -0.418743   -0.000053
      3          6           0        0.177891    0.440669   -0.000060
      4          6           0        0.583119    1.718175   -0.000105
      5          7           0        2.016431    1.769699   -0.000082
      6          7           0        2.493509    0.603270   -0.000127
      7         16           0       -1.463967   -0.180186   -0.000002
      8          8           0       -1.682144   -0.865601   -1.276595
      9          8           0       -1.682085   -0.865647    1.276576
     10          7           0       -2.389809    1.233460    0.000065
     11          6           0        1.564124   -1.270295    1.274484
     12          1           0        0.769313   -2.019050   -1.315478
     13          1           0        2.537173   -1.768008   -1.263401
     14          1           0        1.494230   -0.644669   -2.167579
     15          1           0        0.002730    2.629539   -0.000060
     16          1           0       -2.962005    1.263014   -0.841251
     17          1           0       -2.962181    1.262785    0.841268
     18          1           0        0.769367   -2.018567    1.316035
     19          1           0        2.537240   -1.767518    1.263800
     20          1           0        1.494306   -0.643842    2.167587
 ---------------------------------------------------------------------

 SCF Done:  E(UB3LYP) =  -908.959822067     A.U. after   21 cycles

 The electronic state is 2-A.
 Alpha  occ. eigenvalues --  -88.93343 -18.98469 -18.98469 -14.22967 -14.15622
 Alpha  occ. eigenvalues --  -14.14106 -10.05546 -10.03051 -10.01957 -10.01805
 Alpha  occ. eigenvalues --  -10.01804  -7.99430  -5.95811  -5.95668  -5.95449
 Alpha  occ. eigenvalues --   -0.99023  -0.87988  -0.85392  -0.79689  -0.66428
 Alpha  occ. eigenvalues --   -0.62781  -0.54860  -0.54598  -0.50199  -0.43596
 Alpha  occ. eigenvalues --   -0.42161  -0.39734  -0.37456  -0.35437  -0.32490
 Alpha  occ. eigenvalues --   -0.31000  -0.29510  -0.28962  -0.25566  -0.25140
 Alpha  occ. eigenvalues --   -0.23495  -0.22600  -0.20652  -0.19955  -0.19737
 Alpha  occ. eigenvalues --   -0.19000  -0.18561  -0.17452  -0.15121  -0.11365
 Alpha  occ. eigenvalues --   -0.06365   0.03602
 Alpha virt. eigenvalues --    0.07717   0.10436   0.11514   0.12163   0.12435
 Alpha virt. eigenvalues --    0.13429   0.14453   0.15637   0.15893   0.16259
 Alpha virt. eigenvalues --    0.16865   0.17681   0.18240   0.18648   0.19043

  Beta  occ. eigenvalues --  -88.93346 -18.98402 -18.98402 -14.22974 -14.15434
  Beta  occ. eigenvalues --  -14.13241 -10.05622 -10.02884 -10.01683 -10.01683
  Beta  occ. eigenvalues --  -10.01546  -7.99432  -5.95813  -5.95657  -5.95462
  Beta  occ. eigenvalues --   -0.98903  -0.87833  -0.84392  -0.79668  -0.65988
  Beta  occ. eigenvalues --   -0.62031  -0.54618  -0.53978  -0.49722  -0.43278
  Beta  occ. eigenvalues --   -0.42135  -0.39304  -0.37166  -0.35211  -0.32246
  Beta  occ. eigenvalues --   -0.30773  -0.28820  -0.28560  -0.25376  -0.24912
  Beta  occ. eigenvalues --   -0.23331  -0.21886  -0.20310  -0.19721  -0.19434
  Beta  occ. eigenvalues --   -0.18503  -0.17274  -0.17267  -0.14528  -0.08560
  Beta  occ. eigenvalues --   -0.05647
  Beta virt. eigenvalues --    0.07712   0.10375   0.10906   0.11518   0.12139
  Beta virt. eigenvalues --    0.12994   0.13353   0.14352   0.15683   0.15880
  Beta virt. eigenvalues --    0.16307   0.16823   0.18254   0.18657   0.19054

 Mulliken charges and spin densities:
               1          2
     1  C   -0.517585  -0.028469
     2  C   -0.135239  -0.013879
     3  C   -0.907597   0.263864
     4  C    0.225191   0.179421
     5  N   -0.111451   0.100988
     6  N   -0.001222   0.405156
     7  S    0.374494   0.058796
     8  O   -0.199075  -0.002947
     9  O   -0.199101  -0.002948
    10  N   -0.466681  -0.003193
    11  C   -0.517626  -0.028396
    12  H    0.119669   0.027124
    13  H    0.123017   0.013401
    14  H    0.144472   0.000190
    15  H    0.161762  -0.011496
    16  H    0.259911   0.000838
    17  H    0.259906   0.000837
    18  H    0.119648   0.027136
    19  H    0.123013   0.013408
    20  H    0.144495   0.000171
 Sum of Mulliken charges =  -1.00000   1.00000

 Dipole moment (field-independent basis, Debye):
    X=             -6.1682    Y=             -0.3880    Z=              0.0001  Tot=              6.1804
 Quadrupole moment (field-independent basis, Debye-Ang):
   XX=            -98.4476   YY=            -90.5302   ZZ=            -85.1183
   XY=            -17.6616   XZ=              0.0004   YZ=              0.0003

 Summary of Natural Population Analysis:

                                       Natural Population
                Natural  -----------------------------------------------
    Atom  No    Charge         Core      Valence    Rydberg      Total
 -----------------------------------------------------------------------
      C    1   -0.26524      0.99961     2.25881    0.00682     3.26524
      C    2   -0.00250      0.99955     1.98217    0.02077     3.00250
      C    3   -0.09391      0.99922     2.07880    0.01589     3.09391
      C    4    0.01233      0.99942     1.97388    0.01437     2.98767
      N    5   -0.11346      0.99977     2.59325    0.02044     3.61346
      N    6    0.02620      0.99975     2.45514    0.01891     3.47380
      S    7    1.10061      4.99921     1.79755    0.10264     6.89939
      O    8   -0.46807      0.99990     3.46233    0.00584     4.46807
      O    9   -0.46807      0.99990     3.46233    0.00584     4.46807
      N   10   -0.52191      0.99979     3.01114    0.01098     4.02191
      C   11   -0.26523      0.99961     2.25880    0.00682     3.26523
      H   12    0.09885      0.00000     0.40016    0.00099     0.40115
      H   13    0.09378      0.00000     0.40521    0.00100     0.40622
      H   14    0.10052      0.00000     0.39860    0.00088     0.39948
      H   15    0.09221      0.00000     0.40640    0.00138     0.40779
      H   16    0.19037      0.00000     0.30782    0.00181     0.30963
      H   17    0.19037      0.00000     0.30782    0.00181     0.30963
      H   18    0.09885      0.00000     0.40016    0.00099     0.40115
      H   19    0.09378      0.00000     0.40522    0.00100     0.40622
      H   20    0.10052      0.00000     0.39861    0.00088     0.39948
 =======================================================================
   * Total *    0.00000     14.99574    30.76420    0.24007    46.00000

 Normal termination of Gaussian 16 at Tue Dec  8 21:31:00 2020.
