 Gaussian 16, Revision A.03,

 -----------------------------------------------------------
 # opt freq B3LYP/6-31G(d) empiricaldispersion=gd3bj scf=xqc
 -----------------------------------------------------------

 -------------------------------
 CID_145435184_JID_4370_neutraal
 -------------------------------
 Symbolic Z-matrix:
 Charge =  0 Multiplicity = 1

 SCF Done:  E(RB3LYP) =  -701.440335281     A.U. after   15 cycles
 SCF Done:  E(RB3LYP) =  -701.442689384     A.U. after   13 cycles
 SCF Done:  E(RB3LYP) =  -701.443050379     A.U. after   12 cycles
 SCF Done:  E(RB3LYP) =  -701.443385778     A.U. after   12 cycles
 SCF Done:  E(RB3LYP) =  -701.443645905     A.U. after   12 cycles
 SCF Done:  E(RB3LYP) =  -701.443792846     A.U. after   12 cycles
 SCF Done:  E(RB3LYP) =  -701.443876613     A.U. after   12 cycles
 SCF Done:  E(RB3LYP) =  -701.443974159     A.U. after   11 cycles
 SCF Done:  E(RB3LYP) =  -701.444108733     A.U. after   12 cycles
 SCF Done:  E(RB3LYP) =  -701.444146425     A.U. after   11 cycles
 SCF Done:  E(RB3LYP) =  -701.444268334     A.U. after   11 cycles
 SCF Done:  E(RB3LYP) =  -701.444266938     A.U. after   11 cycles
 SCF Done:  E(RB3LYP) =  -701.444269890     A.U. after   10 cycles
 SCF Done:  E(RB3LYP) =  -701.444269970     A.U. after    8 cycles
 SCF Done:  E(RB3LYP) =  -701.444269971     A.U. after    7 cycles
 Optimization completed.
    -- Stationary point found.
 Normal termination of Gaussian 16 at Thu Dec 10 09:29:08 2020.

 --------------------------------------------------------------------
 #N Geom=AllCheck Guess=TCheck SCRF=Check GenChk RB3LYP/6-31G(d) Freq
 --------------------------------------------------------------------

 Structure from the checkpoint file:  "JID_4370.chk"
 -------------------------------
 CID_145435184_JID_4370_neutraal
 -------------------------------
 Charge =  0 Multiplicity = 1

 SCF Done:  E(RB3LYP) =  -701.444269971     A.U. after    1 cycles

  Exact polarizability: 132.100  -8.007 112.471  11.795   7.240  70.387
 Approx polarizability: 191.344 -15.652 169.856  29.632  12.464 114.676

                      1                      2                      3
                      A                      A                      A
 Frequencies --     31.2986                36.2730                46.3078
 Red. masses --      7.4190                 4.9017                 8.0625
 Frc consts  --      0.0043                 0.0038                 0.0102
 IR Inten    --      0.6845                 4.7243                 1.9399

                      4                      5                      6
                      A                      A                      A
 Frequencies --     55.4932                84.3858               124.5611
 Red. masses --      5.0217                 7.6913                 4.5993
 Frc consts  --      0.0091                 0.0323                 0.0420
 IR Inten    --      0.0423                 1.7967                 1.5638

                      7                      8                      9
                      A                      A                      A
 Frequencies --    160.9282               194.7918               277.8398
 Red. masses --      5.3895                 2.1228                 5.8722
 Frc consts  --      0.0822                 0.0475                 0.2671
 IR Inten    --      0.5266                 0.7735                11.1904

                     10                     11                     12
                      A                      A                      A
 Frequencies --    283.5658               331.3006               336.7922
 Red. masses --      3.4847                 3.6300                 8.0528
 Frc consts  --      0.1651                 0.2347                 0.5382
 IR Inten    --      1.2116                 0.2820                 0.9202

                     13                     14                     15
                      A                      A                      A
 Frequencies --    343.5985               438.4320               499.8034
 Red. masses --      3.2152                 2.6141                 1.6238
 Frc consts  --      0.2236                 0.2961                 0.2390
 IR Inten    --      2.0395                 6.0062                62.4525

                     16                     17                     18
                      A                      A                      A
 Frequencies --    532.2807               550.6840               613.1629
 Red. masses --      1.9824                 3.4802                 4.4522
 Frc consts  --      0.3309                 0.6218                 0.9862
 IR Inten    --     13.9868                27.8517                44.3191

                     19                     20                     21
                      A                      A                      A
 Frequencies --    658.3386               688.7958               695.4384
 Red. masses --      2.4639                 1.6144                 2.7396
 Frc consts  --      0.6292                 0.4513                 0.7807
 IR Inten    --      5.1792                52.5983                 8.9652

                     22                     23                     24
                      A                      A                      A
 Frequencies --    698.0038               731.5869               756.1734
 Red. masses --      1.2874                 2.5357                 2.3862
 Frc consts  --      0.3695                 0.7996                 0.8039
 IR Inten    --    170.2269                59.8481                14.1127

                     25                     26                     27
                      A                      A                      A
 Frequencies --    794.2006               849.4544               877.3818
 Red. masses --      1.7230                 3.6577                 1.3796
 Frc consts  --      0.6403                 1.5550                 0.6257
 IR Inten    --      6.1602                 1.6185                21.1743

                     28                     29                     30
                      A                      A                      A
 Frequencies --    894.5072               923.1816               956.2832
 Red. masses --      2.0487                 2.3281                 6.0404
 Frc consts  --      0.9658                 1.1690                 3.2545
 IR Inten    --     18.5233                 8.0646                12.0346

                     31                     32                     33
                      A                      A                      A
 Frequencies --   1023.2609              1026.8241              1043.2548
 Red. masses --      2.0718                 2.6837                 1.5254
 Frc consts  --      1.2781                 1.6672                 0.9782
 IR Inten    --     13.9314                25.0291                 1.0892

                     34                     35                     36
                      A                      A                      A
 Frequencies --   1076.7849              1097.9093              1136.9627
 Red. masses --      2.3813                 2.2895                 2.8408
 Frc consts  --      1.6267                 1.6260                 2.1636
 IR Inten    --     21.6089                24.1806                43.4345

                     37                     38                     39
                      A                      A                      A
 Frequencies --   1170.6524              1181.4144              1205.2631
 Red. masses --      1.7773                 1.7611                 2.2216
 Frc consts  --      1.4350                 1.4483                 1.9014
 IR Inten    --      3.8387               130.5486               178.0779

                     40                     41                     42
                      A                      A                      A
 Frequencies --   1254.8211              1272.8612              1284.9578
 Red. masses --      1.5157                 1.3505                 2.0514
 Frc consts  --      1.4062                 1.2892                 1.9956
 IR Inten    --      3.2467                21.5964                64.9388

                     43                     44                     45
                      A                      A                      A
 Frequencies --   1305.2845              1323.7067              1341.1869
 Red. masses --      1.4391                 1.8016                 1.5729
 Frc consts  --      1.4446                 1.8600                 1.6670
 IR Inten    --     19.7414                12.4136                 9.0814

                     46                     47                     48
                      A                      A                      A
 Frequencies --   1362.4684              1382.6332              1406.4236
 Red. masses --      1.6406                 1.6380                 2.8976
 Frc consts  --      1.7944                 1.8449                 3.3770
 IR Inten    --      2.2287                10.4140                 3.0761

                     49                     50                     51
                      A                      A                      A
 Frequencies --   1429.4487              1435.9347              1446.1530
 Red. masses --      1.9941                 3.0635                 1.2613
 Frc consts  --      2.4007                 3.7217                 1.5541
 IR Inten    --     50.2687                40.1070                 5.4874

                     52                     53                     54
                      A                      A                      A
 Frequencies --   1488.9696              1506.6291              1510.6696
 Red. masses --      1.1416                 1.9136                 2.0369
 Frc consts  --      1.4912                 2.5593                 2.7388
 IR Inten    --     21.5563                33.2565                40.1417

                     55                     56                     57
                      A                      A                      A
 Frequencies --   1522.2903              1623.2563              1819.3249
 Red. masses --      1.1189                 4.3052                 8.8372
 Frc consts  --      1.5277                 6.6837                17.2340
 IR Inten    --      9.0491                 3.0290               722.5339

                     58                     59                     60
                      A                      A                      A
 Frequencies --   1832.6629              2930.2904              3061.4685
 Red. masses --      7.7020                 1.0834                 1.0748
 Frc consts  --     15.2411                 5.4812                 5.9354
 IR Inten    --    110.2317                90.8917                 7.9069

                     61                     62                     63
                      A                      A                      A
 Frequencies --   3067.4573              3072.7813              3108.1263
 Red. masses --      1.0658                 1.0727                 1.1041
 Frc consts  --      5.9083                 5.9676                 6.2843
 IR Inten    --     21.1999                10.1999                15.5796

                     64                     65                     66
                      A                      A                      A
 Frequencies --   3143.7924              3251.9605              3273.5440
 Red. masses --      1.0948                 1.0958                 1.0979
 Frc consts  --      6.3754                 6.8277                 6.9317
 IR Inten    --      4.6764                 3.7096                 0.5443

                     67                     68                     69
                      A                      A                      A
 Frequencies --   3579.0277              3667.9547              3673.1914
 Red. masses --      1.0764                 1.0817                 1.0639
 Frc consts  --      8.1235                 8.5746                 8.4574
 IR Inten    --     65.5917                86.7329                56.1148

 - Thermochemistry -
 -------------------
 Temperature   298.150 Kelvin.  Pressure   1.00000 Atm.
 Atom     1 has atomic number  6 and mass  12.00000

 Molecular mass:   197.08004 amu.
 Principal axes and moments of inertia in atomic units:
                           1         2         3
     Eigenvalues --  1960.330504115.606145681.15545
           X            0.99995   0.00959  -0.00145
           Y           -0.00958   0.99995   0.00300
           Z            0.00147  -0.00299   0.99999
 This molecule is an asymmetric top.
 Rotational symmetry number  1.
 Warning -- assumption of classical behavior for rotation
           may cause significant error
 Rotational temperatures (Kelvin)      0.04418     0.02105     0.01525
 Rotational constants (GHZ):           0.92063     0.43851     0.31767
 Zero-point vibrational energy     525199.2 (Joules/Mol)
                                  125.52562 (Kcal/Mol)
 Warning -- explicit consideration of  18 degrees of freedom as
           vibrations may cause significant error
 Vibrational temperatures:     45.03    52.19    66.63    79.84   121.41
          (Kelvin)            179.22   231.54   280.26   399.75   407.99
                              476.67   484.57   494.36   630.81   719.11
                              765.83   792.31   882.20   947.20   991.02
                             1000.58  1004.27  1052.59  1087.96  1142.68
                             1222.18  1262.36  1287.00  1328.25  1375.88
                             1472.24  1477.37  1501.01  1549.25  1579.65
                             1635.84  1684.31  1699.79  1734.10  1805.41
                             1831.36  1848.77  1878.01  1904.52  1929.67
                             1960.29  1989.30  2023.53  2056.66  2065.99
                             2080.69  2142.30  2167.70  2173.52  2190.24
                             2335.50  2617.60  2636.79  4216.03  4404.77
                             4413.39  4421.05  4471.90  4523.22  4678.85
                             4709.90  5149.42  5277.37  5284.90

 Zero-point correction=                           0.200038 (Hartree/Particle)
 Thermal correction to Energy=                    0.213362
 Thermal correction to Enthalpy=                  0.214307
 Thermal correction to Gibbs Free Energy=         0.157455
 Sum of electronic and zero-point Energies=           -701.244232
 Sum of electronic and thermal Energies=              -701.230908
 Sum of electronic and thermal Enthalpies=            -701.229963
 Sum of electronic and thermal Free Energies=         -701.286815

                     E (Thermal)             CV                S
                      KCal/Mol        Cal/Mol-Kelvin    Cal/Mol-Kelvin
 Total                  133.887             48.197            119.653
 Electronic               0.000              0.000              0.000
 Translational            0.889              2.981             41.740
 Rotational               0.889              2.981             32.194
 Vibrational            132.109             42.236             45.719
 Vibration     1          0.594              1.983              5.745
 Vibration     2          0.594              1.982              5.453
 Vibration     3          0.595              1.979              4.969
 Vibration     4          0.596              1.975              4.611
 Vibration     5          0.601              1.960              3.786
 Vibration     6          0.610              1.928              3.028
 Vibration     7          0.622              1.890              2.539
 Vibration     8          0.635              1.847              2.182
 Vibration     9          0.679              1.714              1.547
 Vibration    10          0.682              1.704              1.512
 Vibration    11          0.714              1.613              1.254
 Vibration    12          0.718              1.602              1.227
 Vibration    13          0.722              1.588              1.195
 Vibration    14          0.799              1.386              0.832
 Vibration    15          0.855              1.250              0.659
 Vibration    16          0.887              1.179              0.582
 Vibration    17          0.906              1.138              0.543
 Vibration    18          0.972              1.004              0.428

 Optimization completed.
    -- Stationary point found.
 Normal termination of Gaussian 16 at Thu Dec 10 09:36:14 2020.

 ----------------------------------------------------------------------
 # B3LYP/6-311++G(d,p) empiricaldispersion=gd3bj scf=xqc pop=npa geom=c
 heck
 ----------------------------------------------------------------------

 ---------------------------------------
 CID_145435184_JID_4370_Energie_neutraal
 ---------------------------------------
 Structure from the checkpoint file:  "JID_4370.chk"
 Charge =  0 Multiplicity = 1

 SCF Done:  E(RB3LYP) =  -701.661692054     A.U. after   16 cycles
 Normal termination of Gaussian 16 at Thu Dec 10 09:39:26 2020.

 ----------------------------------------------------------------------
 # B3LYP/6-311++G(d,p) empiricaldispersion=gd3bj scf=xqc pop=npa geom=c
 heck
 ----------------------------------------------------------------------

 -------------------------------------
 CID_145435184_JID_4370_Energie_kation
 -------------------------------------
 Structure from the checkpoint file:  "JID_4370.chk"
 Charge =  1 Multiplicity = 2

 SCF Done:  E(UB3LYP) =  -701.341621766     A.U. after   32 cycles
 Normal termination of Gaussian 16 at Thu Dec 10 09:48:45 2020.
 Gaussian 16:  ES64L-G16RevA.03 25-Dec-2016

 ----------------------------------------------------------------------
 # B3LYP/6-311++G(d,p) empiricaldispersion=gd3bj scf=xqc pop=npa geom=c
 heck
 ----------------------------------------------------------------------

 ------------------------------------
 CID_145435184_JID_4370_Energie_anion
 ------------------------------------
 Structure from the checkpoint file:  "JID_4370.chk"
 Charge = -1 Multiplicity = 2

                         Standard orientation:
 ---------------------------------------------------------------------
 Center     Atomic      Atomic             Coordinates (Angstroms)
 Number     Number       Type             X           Y           Z
 ---------------------------------------------------------------------
      1          6           0       -2.374517   -1.788833    0.019137
      2          6           0       -1.578925   -0.726423    0.416756
      3          6           0       -2.450059    0.393417    0.346562
      4          7           0       -3.675668    0.060138   -0.055940
      5          7           0       -3.602853   -1.273806   -0.249610
      6          6           0       -0.126928   -0.759235    0.790634
      7          6           0        0.830318   -0.457142   -0.390340
      8          6           0        0.568368    0.916781   -1.030707
      9          6           0        0.762181    2.062484   -0.062586
     10          8           0        1.526245    2.071858    0.882692
     11          8           0       -0.018770    3.121669   -0.366832
     12          7           0        2.219772   -0.582346    0.013862
     13          6           0        3.017772   -1.643753   -0.283493
     14          8           0        4.160511   -1.798919    0.107267
     15          1           0       -2.161434   -2.844161   -0.077409
     16          1           0       -2.224407    1.428553    0.569880
     17          1           0       -4.431130   -1.767514   -0.545710
     18          1           0        0.077444   -0.040660    1.592190
     19          1           0        0.142624   -1.745577    1.183058
     20          1           0        0.654821   -1.210740   -1.167084
     21          1           0        1.271920    1.068991   -1.858679
     22          1           0       -0.440559    0.964896   -1.445543
     23          1           0        0.197302    3.819205    0.281849
     24          1           0        2.585158    0.129214    0.638527
     25          1           0        2.506351   -2.370749   -0.950050
 ---------------------------------------------------------------------

 SCF Done:  E(UB3LYP) =  -701.657321970     A.U. after   33 cycles
 SCF Done:  E(UB3LYP) =  -701.657321970     a.u. after    1 cycles

 The electronic state is 2-A.
 Alpha  occ. eigenvalues --  -19.08873 -19.03644 -19.00675 -14.29158 -14.25094
 Alpha  occ. eigenvalues --  -14.23936 -10.22657 -10.18414 -10.14234 -10.11386
 Alpha  occ. eigenvalues --  -10.10511 -10.09622 -10.09510 -10.08419  -1.03100
 Alpha  occ. eigenvalues --   -0.95438  -0.95283  -0.94178  -0.84880  -0.73178
 Alpha  occ. eigenvalues --   -0.72319  -0.69391  -0.63821  -0.57315  -0.54327
 Alpha  occ. eigenvalues --   -0.52092  -0.51055  -0.48391  -0.45209  -0.43578
 Alpha  occ. eigenvalues --   -0.41573  -0.40988  -0.39182  -0.37747  -0.36308
 Alpha  occ. eigenvalues --   -0.35468  -0.34640  -0.34491  -0.33661  -0.32020
 Alpha  occ. eigenvalues --   -0.30891  -0.30867  -0.30284  -0.28332  -0.27232
 Alpha  occ. eigenvalues --   -0.24731  -0.20664  -0.20419  -0.18256  -0.17678
 Alpha  occ. eigenvalues --   -0.16913  -0.15207   0.03640
 Alpha virt. eigenvalues --    0.05209   0.06228   0.07326   0.07973   0.08751
 Alpha virt. eigenvalues --    0.09447   0.09628   0.10165   0.10524   0.11547
 Alpha virt. eigenvalues --    0.11886   0.12328   0.13636   0.13952   0.14386

  Beta  occ. eigenvalues --  -19.08818 -19.03610 -19.00672 -14.29113 -14.25093
  Beta  occ. eigenvalues --  -14.23937 -10.22604 -10.18406 -10.14225 -10.11354
  Beta  occ. eigenvalues --  -10.10491 -10.09611 -10.09504 -10.08421  -1.02999
  Beta  occ. eigenvalues --   -0.95399  -0.95276  -0.94095  -0.84872  -0.73138
  Beta  occ. eigenvalues --   -0.72278  -0.69335  -0.63756  -0.57243  -0.54302
  Beta  occ. eigenvalues --   -0.51994  -0.50984  -0.48342  -0.45124  -0.43525
  Beta  occ. eigenvalues --   -0.41506  -0.40891  -0.39144  -0.37663  -0.36265
  Beta  occ. eigenvalues --   -0.35406  -0.34610  -0.34453  -0.33634  -0.31970
  Beta  occ. eigenvalues --   -0.30869  -0.30826  -0.30246  -0.28290  -0.27206
  Beta  occ. eigenvalues --   -0.24598  -0.20602  -0.20406  -0.18249  -0.17664
  Beta  occ. eigenvalues --   -0.16894  -0.15195
  Beta virt. eigenvalues --    0.06299   0.06827   0.07109   0.08189   0.08347
  Beta virt. eigenvalues --    0.09174   0.09450   0.09786   0.10598   0.10690
  Beta virt. eigenvalues --    0.11808   0.12045   0.12436   0.13695   0.14035

 Mulliken charges and spin densities:
               1          2
     1  C   -0.255125   0.244899
     2  C    0.222258  -0.094319
     3  C   -0.426104   0.204096
     4  N   -0.336865   0.209322
     5  N    0.376947  -0.426170
     6  C    1.195987  -1.697115
     7  C   -0.830135   0.181970
     8  C    0.903864  -1.312579
     9  C   -0.128118  -0.041576
    10  O   -0.265735   0.018210
    11  O   -0.149066   0.044103
    12  N   -0.009822   0.069054
    13  C    0.335933  -0.163159
    14  O   -0.376182   0.003238
    15  H   -1.342689   1.526351
    16  H    0.263703  -0.065078
    17  H   -0.342043   0.688950
    18  H    0.096514   0.091108
    19  H    0.248354  -0.058171
    20  H    0.202535   0.012968
    21  H   -0.429537   0.655012
    22  H    0.176328   0.068757
    23  H   -0.371223   0.666534
    24  H    0.366417  -0.042090
    25  H   -0.126196   0.215685
 Sum of Mulliken charges =  -1.00000   1.00000

 Dipole moment (field-independent basis, Debye):
    X=              2.2179    Y=              2.0804    Z=              1.3768  Tot=              3.3381
 Quadrupole moment (field-independent basis, Debye-Ang):
   XX=           -167.4729   YY=           -145.2239   ZZ=           -105.6703
   XY=             -7.4961   XZ=             -6.0060   YZ=             -2.9008

 Summary of Natural Population Analysis:

                                       Natural Population
                Natural  -----------------------------------------------
    Atom  No    Charge         Core      Valence    Rydberg      Total
 -----------------------------------------------------------------------
      C    1   -0.00429      0.99951     1.99215    0.01263     3.00429
      C    2   -0.08383      0.99952     2.07322    0.01109     3.08383
      C    3   -0.01525      0.99956     2.00229    0.01339     3.01525
      N    4   -0.15354      0.99974     2.64005    0.01375     3.65354
      N    5   -0.16441      0.99970     2.65045    0.01426     3.66441
      C    6   -0.20335      0.99958     2.19440    0.00936     3.20335
      C    7   -0.00376      0.99958     1.99035    0.01383     3.00376
      C    8   -0.24732      0.99955     2.23827    0.00950     3.24732
      C    9    0.41579      0.99972     1.55948    0.02501     2.58421
      O   10   -0.31783      0.99987     3.31218    0.00578     4.31783
      O   11   -0.33860      0.99988     3.33200    0.00672     4.33860
      N   12   -0.32254      0.99968     2.81330    0.00956     3.82254
      C   13    0.27319      0.99973     1.70418    0.02289     2.72681
      O   14   -0.31563      0.99988     3.30950    0.00625     4.31563
      H   15    0.11032      0.00000     0.38457    0.00511     0.38968
      H   16    0.10112      0.00000     0.39758    0.00130     0.39888
      H   17    0.20549      0.00000     0.28489    0.00961     0.29451
      H   18    0.10855      0.00000     0.39017    0.00128     0.39145
      H   19    0.10795      0.00000     0.39099    0.00106     0.39205
      H   20    0.10275      0.00000     0.39477    0.00248     0.39725
      H   21    0.12279      0.00000     0.37560    0.00161     0.37721
      H   22    0.12254      0.00000     0.37597    0.00148     0.37746
      H   23    0.24425      0.00000     0.24325    0.01250     0.25575
      H   24    0.20726      0.00000     0.29054    0.00220     0.29274
      H   25    0.04834      0.00000     0.44987    0.00179     0.45166
 =======================================================================
   * Total *   -0.00000     13.99551    37.79003    0.21446    52.00000

 Normal termination of Gaussian 16 at Thu Dec 10 09:58:33 2020.
