 Gaussian 16, Revision A.03,

 -----------------------------------------------------------
 # opt freq B3LYP/6-31G(d) empiricaldispersion=gd3bj scf=xqc
 -----------------------------------------------------------

 ------------------------------
 CID_82412452_JID_2577_neutraal
 ------------------------------
 Symbolic Z-matrix:
 Charge =  0 Multiplicity = 1

 SCF Done:  E(RB3LYP) =  -573.275757742     A.U. after   14 cycles
 SCF Done:  E(RB3LYP) =  -573.279208479     A.U. after   12 cycles
 SCF Done:  E(RB3LYP) =  -573.279457513     A.U. after   13 cycles
 SCF Done:  E(RB3LYP) =  -573.280985806     A.U. after   12 cycles
 SCF Done:  E(RB3LYP) =  -573.282195689     A.U. after   13 cycles
 SCF Done:  E(RB3LYP) =  -573.281355927     A.U. after   15 cycles
 SCF Done:  E(RB3LYP) =  -573.283070183     A.U. after   13 cycles
 SCF Done:  E(RB3LYP) =  -573.283306586     A.U. after   12 cycles
 SCF Done:  E(RB3LYP) =  -573.283453555     A.U. after   11 cycles
 SCF Done:  E(RB3LYP) =  -573.283477588     A.U. after   10 cycles
 SCF Done:  E(RB3LYP) =  -573.283515175     A.U. after    9 cycles
 SCF Done:  E(RB3LYP) =  -573.283516332     A.U. after    9 cycles
 SCF Done:  E(RB3LYP) =  -573.283516925     A.U. after    9 cycles
 SCF Done:  E(RB3LYP) =  -573.283516874     A.U. after    7 cycles
 SCF Done:  E(RB3LYP) =  -573.283516722     A.U. after    7 cycles
 SCF Done:  E(RB3LYP) =  -573.283516951     A.U. after    8 cycles
 Optimization completed.
    -- Stationary point found.
 Normal termination of Gaussian 16 at Wed Dec  9 17:48:10 2020.

 --------------------------------------------------------------------
 #N Geom=AllCheck Guess=TCheck SCRF=Check GenChk RB3LYP/6-31G(d) Freq
 --------------------------------------------------------------------

 Structure from the checkpoint file:  "JID_2577.chk"
 ------------------------------
 CID_82412452_JID_2577_neutraal
 ------------------------------
 Charge =  0 Multiplicity = 1

 SCF Done:  E(RB3LYP) =  -573.283516951     A.U. after    1 cycles

  Exact polarizability: 107.548   1.691 104.108   6.728   0.308  86.376
 Approx polarizability: 136.106  10.397 162.225  10.159   5.331 128.616

                      1                      2                      3
                      A                      A                      A
 Frequencies --     30.3323                44.9280                58.2954
 Red. masses --      4.1727                 4.4409                 9.1052
 Frc consts  --      0.0023                 0.0053                 0.0182
 IR Inten    --      2.7100                 0.9826                 1.0424

                      4                      5                      6
                      A                      A                      A
 Frequencies --     86.7096               150.7946               185.6519
 Red. masses --      2.6932                 1.5153                 3.1347
 Frc consts  --      0.0119                 0.0203                 0.0637
 IR Inten    --      0.8338                 4.9200                 2.1316

                      7                      8                      9
                      A                      A                      A
 Frequencies --    205.6767               227.9180               278.3043
 Red. masses --      2.8355                 1.9149                 2.7263
 Frc consts  --      0.0707                 0.0586                 0.1244
 IR Inten    --      5.1749                 3.0915                 2.6188

                     10                     11                     12
                      A                      A                      A
 Frequencies --    327.1340               336.0773               431.2681
 Red. masses --      2.4130                 1.9777                 2.8224
 Frc consts  --      0.1521                 0.1316                 0.3093
 IR Inten    --      3.3978                 3.3523                 0.9643

                     13                     14                     15
                      A                      A                      A
 Frequencies --    470.6325               493.9579               509.0945
 Red. masses --      3.2687                 3.4140                 1.9985
 Frc consts  --      0.4266                 0.4908                 0.3052
 IR Inten    --      4.7547                 7.5262                28.4961

                     16                     17                     18
                      A                      A                      A
 Frequencies --    536.3836               606.4740               627.4447
 Red. masses --      3.2088                 2.5810                 4.0188
 Frc consts  --      0.5439                 0.5593                 0.9322
 IR Inten    --     38.1998                 3.3742                 9.2460

                     19                     20                     21
                      A                      A                      A
 Frequencies --    665.5012               698.0851               741.5794
 Red. masses --      1.6328                 2.3160                 4.3225
 Frc consts  --      0.4261                 0.6650                 1.4006
 IR Inten    --     45.4996                46.1626                17.1561

                     22                     23                     24
                      A                      A                      A
 Frequencies --    819.5513               876.9578               899.2749
 Red. masses --      3.0852                 2.1212                 1.5640
 Frc consts  --      1.2209                 0.9611                 0.7452
 IR Inten    --     14.1919                 3.8696                 0.0802

                     25                     26                     27
                      A                      A                      A
 Frequencies --    917.8950               959.0677               969.6273
 Red. masses --      2.3703                 2.3718                 2.3024
 Frc consts  --      1.1766                 1.2854                 1.2754
 IR Inten    --      0.2555                 5.2505                 2.1657

                     28                     29                     30
                      A                      A                      A
 Frequencies --   1008.4872              1061.6612              1092.2763
 Red. masses --      1.9145                 2.2117                 1.9510
 Frc consts  --      1.1472                 1.4688                 1.3714
 IR Inten    --      2.5399                 3.3657                 2.6363

                     31                     32                     33
                      A                      A                      A
 Frequencies --   1111.5132              1132.2034              1158.9598
 Red. masses --      2.9236                 1.6499                 1.4059
 Frc consts  --      2.1281                 1.2461                 1.1126
 IR Inten    --     56.7905                13.2210                22.5041

                     34                     35                     36
                      A                      A                      A
 Frequencies --   1172.6950              1194.3503              1220.1779
 Red. masses --      2.4534                 2.2744                 1.3752
 Frc consts  --      1.9879                 1.9115                 1.2063
 IR Inten    --    278.2650                12.9672                18.6369

                     37                     38                     39
                      A                      A                      A
 Frequencies --   1225.4178              1255.2271              1266.0666
 Red. masses --      1.2902                 1.4050                 1.9488
 Frc consts  --      1.1415                 1.3043                 1.8405
 IR Inten    --     13.5121                16.5127                20.5884

                     40                     41                     42
                      A                      A                      A
 Frequencies --   1272.9484              1322.0615              1333.7366
 Red. masses --      1.5536                 1.2417                 1.4916
 Frc consts  --      1.4833                 1.2787                 1.5633
 IR Inten    --     12.6621                 3.2308                 9.0072

                     43                     44                     45
                      A                      A                      A
 Frequencies --   1348.0747              1382.6203              1393.1993
 Red. masses --      1.8274                 1.4030                 1.4240
 Frc consts  --      1.9566                 1.5802                 1.6285
 IR Inten    --     64.5290                15.7928                 3.5285

                     46                     47                     48
                      A                      A                      A
 Frequencies --   1420.7321              1429.9387              1445.8259
 Red. masses --      1.5790                 1.9285                 1.7941
 Frc consts  --      1.8778                 2.3233                 2.2097
 IR Inten    --     60.1421                65.0717                22.8291

                     49                     50                     51
                      A                      A                      A
 Frequencies --   1478.0942              1495.7955              1505.8684
 Red. masses --      1.1659                 1.2329                 1.1044
 Frc consts  --      1.5007                 1.6252                 1.4756
 IR Inten    --     27.7124                15.7511                 5.6735

                     52                     53                     54
                      A                      A                      A
 Frequencies --   1512.1684              1521.7392              1527.9848
 Red. masses --      1.1067                 1.1064                 1.0511
 Frc consts  --      1.4910                 1.5095                 1.4459
 IR Inten    --      3.9713                 2.2152                 3.9132

                     55                     56                     57
                      A                      A                      A
 Frequencies --   1546.4420              1556.3945              1715.0949
 Red. masses --      1.0889                 1.0867                 7.2715
 Frc consts  --      1.5343                 1.5510                12.6024
 IR Inten    --      2.4963                35.0644               211.9190

                     58                     59                     60
                      A                      A                      A
 Frequencies --   1832.5360              2984.8381              3009.6679
 Red. masses --      9.3044                 1.0715                 1.0707
 Frc consts  --     18.4096                 5.6246                 5.7139
 IR Inten    --    246.4538                41.6826                61.8377

                     61                     62                     63
                      A                      A                      A
 Frequencies --   3042.5495              3049.2071              3061.5023
 Red. masses --      1.0387                 1.0696                 1.0863
 Frc consts  --      5.6649                 5.8594                 5.9988
 IR Inten    --     45.6816                 5.0736                73.8741

                     64                     65                     66
                      A                      A                      A
 Frequencies --   3064.5433              3072.4460              3073.9336
 Red. masses --      1.0686                 1.0857                 1.0721
 Frc consts  --      5.9126                 6.0385                 5.9686
 IR Inten    --     16.2602                63.6222                18.2934

                     67                     68                     69
                      A                      A                      A
 Frequencies --   3099.0841              3109.8008              3131.8425
 Red. masses --      1.1058                 1.1013                 1.0975
 Frc consts  --      6.2574                 6.2752                 6.3422
 IR Inten    --     44.6952                25.0322                16.6635

                     70                     71                     72
                      A                      A                      A
 Frequencies --   3133.5179              3164.1020              3685.7568
 Red. masses --      1.0981                 1.0907                 1.0639
 Frc consts  --      6.3529                 6.4334                 8.5155
 IR Inten    --     13.8202                16.5293                41.5104

 - Thermochemistry -
 -------------------
 Temperature   298.150 Kelvin.  Pressure   1.00000 Atm.
 Atom     1 has atomic number  6 and mass  12.00000

 Molecular mass:   170.10553 amu.
 Principal axes and moments of inertia in atomic units:
                           1         2         3
     Eigenvalues --  1172.710852886.400693294.60265
           X            0.99981  -0.00149   0.01928
           Y            0.00191   0.99977  -0.02146
           Z           -0.01924   0.02149   0.99958
 This molecule is an asymmetric top.
 Rotational symmetry number  1.
 Warning -- assumption of classical behavior for rotation
           may cause significant error
 Rotational temperatures (Kelvin)      0.07386     0.03001     0.02629
 Rotational constants (GHZ):           1.53895     0.62526     0.54779
 Zero-point vibrational energy     590821.9 (Joules/Mol)
                                  141.20981 (Kcal/Mol)
 Warning -- explicit consideration of  17 degrees of freedom as
           vibrations may cause significant error
 Vibrational temperatures:     43.64    64.64    83.87   124.76   216.96
          (Kelvin)            267.11   295.92   327.92   400.42   470.67
                              483.54   620.50   677.14   710.70   732.47
                              771.74   872.58   902.75   957.51  1004.39
                             1066.97  1179.15  1261.75  1293.86  1320.65
                             1379.88  1395.08  1450.99  1527.49  1571.54
                             1599.22  1628.99  1667.48  1687.25  1718.40
                             1755.56  1763.10  1805.99  1821.59  1831.49
                             1902.15  1918.95  1939.58  1989.28  2004.50
                             2044.12  2057.36  2080.22  2126.65  2152.12
                             2166.61  2175.67  2189.44  2198.43  2224.99
                             2239.30  2467.64  2636.61  4294.52  4330.24
                             4377.55  4387.13  4404.82  4409.19  4420.56
                             4422.70  4458.89  4474.31  4506.02  4508.43
                             4552.44  5302.98

 Zero-point correction=                           0.225032 (Hartree/Particle)
 Thermal correction to Energy=                    0.237170
 Thermal correction to Enthalpy=                  0.238115
 Thermal correction to Gibbs Free Energy=         0.185327
 Sum of electronic and zero-point Energies=           -573.058485
 Sum of electronic and thermal Energies=              -573.046347
 Sum of electronic and thermal Enthalpies=            -573.045402
 Sum of electronic and thermal Free Energies=         -573.098190

                     E (Thermal)             CV                S
                      KCal/Mol        Cal/Mol-Kelvin    Cal/Mol-Kelvin
 Total                  148.827             44.568            111.100
 Electronic               0.000              0.000              0.000
 Translational            0.889              2.981             41.302
 Rotational               0.889              2.981             30.790
 Vibrational            147.049             38.606             39.009
 Vibration     1          0.594              1.984              5.808
 Vibration     2          0.595              1.979              5.029
 Vibration     3          0.596              1.974              4.514
 Vibration     4          0.601              1.958              3.733
 Vibration     5          0.618              1.902              2.662
 Vibration     6          0.632              1.859              2.271
 Vibration     7          0.640              1.832              2.082
 Vibration     8          0.651              1.798              1.895
 Vibration     9          0.679              1.714              1.544
 Vibration    10          0.711              1.621              1.274
 Vibration    11          0.717              1.603              1.231
 Vibration    12          0.792              1.402              0.855
 Vibration    13          0.828              1.315              0.736
 Vibration    14          0.850              1.263              0.673
 Vibration    15          0.864              1.230              0.636
 Vibration    16          0.891              1.170              0.573
 Vibration    17          0.965              1.018              0.439

 Optimization completed.
    -- Stationary point found.
 Normal termination of Gaussian 16 at Wed Dec  9 17:54:36 2020.

 ----------------------------------------------------------------------
 # B3LYP/6-311++G(d,p) empiricaldispersion=gd3bj scf=xqc pop=npa geom=c
 heck
 ----------------------------------------------------------------------

 --------------------------------------
 CID_82412452_JID_2577_Energie_neutraal
 --------------------------------------
 Structure from the checkpoint file:  "JID_2577.chk"
 Charge =  0 Multiplicity = 1

 SCF Done:  E(RB3LYP) =  -573.455010964     A.U. after   14 cycles
 Normal termination of Gaussian 16 at Wed Dec  9 17:57:16 2020.

 ----------------------------------------------------------------------
 # B3LYP/6-311++G(d,p) empiricaldispersion=gd3bj scf=xqc pop=npa geom=c
 heck
 ----------------------------------------------------------------------

 ------------------------------------
 CID_82412452_JID_2577_Energie_kation
 ------------------------------------
 Structure from the checkpoint file:  "JID_2577.chk"
 Charge =  1 Multiplicity = 2

 SCF Done:  E(UB3LYP) =  -573.171779488     A.U. after   22 cycles
 Normal termination of Gaussian 16 at Wed Dec  9 18:03:23 2020.
 Gaussian 16:  ES64L-G16RevA.03 25-Dec-2016

 ----------------------------------------------------------------------
 # B3LYP/6-311++G(d,p) empiricaldispersion=gd3bj scf=xqc pop=npa geom=c
 heck
 ----------------------------------------------------------------------

 -----------------------------------
 CID_82412452_JID_2577_Energie_anion
 -----------------------------------
 Structure from the checkpoint file:  "JID_2577.chk"
 Charge = -1 Multiplicity = 2

                         Standard orientation:
 ---------------------------------------------------------------------
 Center     Atomic      Atomic             Coordinates (Angstroms)
 Number     Number       Type             X           Y           Z
 ---------------------------------------------------------------------
      1          6           0        1.029794    2.311875    0.081057
      2          7           0        1.393313    0.916875   -0.146765
      3          6           0        2.459910    0.407419    0.714255
      4          6           0        2.896097   -0.973992    0.241482
      5          6           0        1.667791   -1.882415    0.172556
      6          7           0        0.542923   -1.280932   -0.528591
      7          6           0        0.467844   -0.000838   -0.623464
      8          6           0       -0.727991    0.541258   -1.400529
      9          6           0       -1.991894   -0.247135   -1.069518
     10          6           0       -2.403125   -0.036119    0.367810
     11          8           0       -1.879477    0.723555    1.157167
     12          8           0       -3.467690   -0.802478    0.705565
     13          1           0        0.199579    2.414400    0.791678
     14          1           0        0.762526    2.813676   -0.853415
     15          1           0        1.904649    2.827681    0.485672
     16          1           0        2.120926    0.359983    1.762733
     17          1           0        3.296535    1.114546    0.674739
     18          1           0        3.345993   -0.885239   -0.754827
     19          1           0        3.658418   -1.380653    0.915930
     20          1           0        1.918973   -2.825640   -0.328611
     21          1           0        1.345599   -2.154881    1.189350
     22          1           0       -0.902061    1.596915   -1.195895
     23          1           0       -0.513596    0.448200   -2.471849
     24          1           0       -2.830518    0.045972   -1.713252
     25          1           0       -1.816191   -1.315498   -1.219312
     26          1           0       -3.657713   -0.599997    1.640792
 ---------------------------------------------------------------------

 SCF Done:  E(UB3LYP) =  -573.439642686     A.U. after   32 cycles

 The electronic state is 2-A.
 Alpha  occ. eigenvalues --  -19.06742 -19.01341 -14.22592 -14.16495 -10.20406
 Alpha  occ. eigenvalues --  -10.12842 -10.09704 -10.09117 -10.08344 -10.07912
 Alpha  occ. eigenvalues --  -10.07263 -10.06523  -1.00808  -0.91807  -0.86244
 Alpha  occ. eigenvalues --   -0.77375  -0.70472  -0.66769  -0.60721  -0.58471
 Alpha  occ. eigenvalues --   -0.55357  -0.51662  -0.48096  -0.41839  -0.40645
 Alpha  occ. eigenvalues --   -0.39831  -0.38438  -0.37288  -0.36746  -0.35785
 Alpha  occ. eigenvalues --   -0.33758  -0.32056  -0.31212  -0.30857  -0.29548
 Alpha  occ. eigenvalues --   -0.28798  -0.28328  -0.26629  -0.25937  -0.25284
 Alpha  occ. eigenvalues --   -0.22968  -0.22567  -0.19952  -0.18261  -0.13751
 Alpha  occ. eigenvalues --   -0.10814   0.04536
 Alpha virt. eigenvalues --    0.06279   0.07030   0.07760   0.09114   0.09242
 Alpha virt. eigenvalues --    0.09797   0.10307   0.10475   0.11376   0.11902
 Alpha virt. eigenvalues --    0.12325   0.12988   0.13171   0.13909   0.15091

  Beta  occ. eigenvalues --  -19.06699 -19.01327 -14.22594 -14.16479 -10.20402
  Beta  occ. eigenvalues --  -10.12827 -10.09673 -10.09088 -10.08337 -10.07888
  Beta  occ. eigenvalues --  -10.07250 -10.06502  -1.00751  -0.91761  -0.86223
  Beta  occ. eigenvalues --   -0.77349  -0.70436  -0.66727  -0.60674  -0.58412
  Beta  occ. eigenvalues --   -0.55303  -0.51602  -0.48016  -0.41794  -0.40602
  Beta  occ. eigenvalues --   -0.39796  -0.38408  -0.37247  -0.36709  -0.35742
  Beta  occ. eigenvalues --   -0.33729  -0.32017  -0.31167  -0.30821  -0.29512
  Beta  occ. eigenvalues --   -0.28759  -0.28281  -0.26595  -0.25896  -0.25250
  Beta  occ. eigenvalues --   -0.22932  -0.22531  -0.19905  -0.18235  -0.13712
  Beta  occ. eigenvalues --   -0.10778
  Beta virt. eigenvalues --    0.06838   0.07544   0.07918   0.08479   0.09537
  Beta virt. eigenvalues --    0.09708   0.10066   0.10759   0.10805   0.11662
  Beta virt. eigenvalues --    0.12281   0.12674   0.13204   0.13542   0.14111

 Mulliken charges and spin densities:
               1          2
     1  C    0.533292  -0.956418
     2  N   -0.094713   0.259648
     3  C    0.372052  -0.555120
     4  C    0.157160  -0.572373
     5  C    0.002254  -0.240235
     6  N   -0.115303   0.101288
     7  C   -1.017369   0.581614
     8  C    0.922765  -0.970826
     9  C    0.555543  -0.965247
    10  C    0.050571  -0.116593
    11  O   -0.244000  -0.016216
    12  O   -0.176175   0.035586
    13  H    0.115077   0.088269
    14  H   -0.505622   0.657890
    15  H   -0.249790   0.379685
    16  H    0.033809   0.130117
    17  H   -0.593826   0.759441
    18  H    0.064372   0.078506
    19  H   -0.381705   0.544783
    20  H    0.023792   0.127541
    21  H    0.022244   0.127467
    22  H    0.154474  -0.031247
    23  H   -0.020413   0.222932
    24  H   -0.480965   0.685207
    25  H    0.223613   0.009219
    26  H   -0.351139   0.635081
 Sum of Mulliken charges =  -1.00000   1.00000

 Dipole moment (field-independent basis, Debye):
    X=              0.0489    Y=             -1.5479    Z=             -1.1887  Tot=              1.9523
 Quadrupole moment (field-independent basis, Debye-Ang):
   XX=           -142.3751   YY=           -110.3318   ZZ=           -106.6778
   XY=             -7.4036   XZ=             -0.8422   YZ=              1.4720

 Summary of Natural Population Analysis:

                                       Natural Population
                Natural  -----------------------------------------------
    Atom  No    Charge         Core      Valence    Rydberg      Total
 -----------------------------------------------------------------------
      C    1   -0.17772      0.99963     2.16969    0.00840     3.17772
      N    2   -0.26387      0.99964     2.75203    0.01220     3.76387
      C    3   -0.07736      0.99961     2.06654    0.01121     3.07736
      C    4   -0.20358      0.99963     2.19571    0.00823     3.20358
      C    5   -0.09252      0.99961     2.08264    0.01027     3.09252
      N    6   -0.29442      0.99965     2.78408    0.01069     3.79442
      C    7    0.24528      0.99957     1.73778    0.01737     2.75472
      C    8   -0.20996      0.99960     2.20060    0.00977     3.20996
      C    9   -0.24010      0.99957     2.23136    0.00916     3.24010
      C   10    0.41242      0.99972     1.56311    0.02474     2.58758
      O   11   -0.31151      0.99987     3.30543    0.00621     4.31151
      O   12   -0.34499      0.99988     3.33845    0.00666     4.34499
      H   13    0.10081      0.00000     0.39789    0.00130     0.39919
      H   14    0.09580      0.00000     0.40291    0.00129     0.40420
      H   15    0.09885      0.00000     0.39974    0.00141     0.40115
      H   16    0.08800      0.00000     0.41052    0.00148     0.41200
      H   17    0.09838      0.00000     0.39968    0.00194     0.40162
      H   18    0.09681      0.00000     0.40186    0.00133     0.40319
      H   19    0.10215      0.00000     0.39647    0.00139     0.39785
      H   20    0.09029      0.00000     0.40828    0.00143     0.40971
      H   21    0.09017      0.00000     0.40832    0.00151     0.40983
      H   22    0.10626      0.00000     0.39193    0.00181     0.39374
      H   23    0.10921      0.00000     0.38962    0.00117     0.39079
      H   24    0.11344      0.00000     0.38515    0.00141     0.38656
      H   25    0.12635      0.00000     0.37158    0.00206     0.37365
      H   26    0.24181      0.00000     0.24781    0.01038     0.25819
 =======================================================================
   * Total *    0.00000     11.99597    33.83919    0.16483    46.00000

 Normal termination of Gaussian 16 at Wed Dec  9 18:12:30 2020.
