 Gaussian 16, Revision A.03,

 -----------------------------------------------------------
 # opt freq B3LYP/6-31G(d) empiricaldispersion=gd3bj scf=xqc
 -----------------------------------------------------------

 ------------------------------
 CID_85841848_JID_3359_neutraal
 ------------------------------
 Symbolic Z-matrix:
 Charge =  0 Multiplicity = 1

 SCF Done:  E(RB3LYP) =  -557.012931852     A.U. after   15 cycles
 SCF Done:  E(RB3LYP) =  -557.015150006     A.U. after   12 cycles
 SCF Done:  E(RB3LYP) =  -557.015306440     A.U. after   11 cycles
 SCF Done:  E(RB3LYP) =  -557.015312703     A.U. after    9 cycles
 SCF Done:  E(RB3LYP) =  -557.015316113     A.U. after    9 cycles
 SCF Done:  E(RB3LYP) =  -557.015318085     A.U. after    8 cycles
 SCF Done:  E(RB3LYP) =  -557.015318386     A.U. after    8 cycles
 SCF Done:  E(RB3LYP) =  -557.015319565     A.U. after   10 cycles
 SCF Done:  E(RB3LYP) =  -557.015321952     A.U. after   11 cycles
 SCF Done:  E(RB3LYP) =  -557.015323288     A.U. after   12 cycles
 SCF Done:  E(RB3LYP) =  -557.015412067     A.U. after    9 cycles
 SCF Done:  E(RB3LYP) =  -557.015418468     A.U. after   11 cycles
 SCF Done:  E(RB3LYP) =  -557.015418982     A.U. after    8 cycles
 SCF Done:  E(RB3LYP) =  -557.015419098     A.U. after    9 cycles
 SCF Done:  E(RB3LYP) =  -557.015419120     A.U. after    7 cycles
 Optimization completed.
    -- Stationary point found.
 Normal termination of Gaussian 16 at Wed Dec  9 23:08:40 2020.

 --------------------------------------------------------------------
 #N Geom=AllCheck Guess=TCheck SCRF=Check GenChk RB3LYP/6-31G(d) Freq
 --------------------------------------------------------------------

 Structure from the checkpoint file:  "JID_3359.chk"
 ------------------------------
 CID_85841848_JID_3359_neutraal
 ------------------------------
 Charge =  0 Multiplicity = 1

 SCF Done:  E(RB3LYP) =  -557.015419120     A.U. after    1 cycles

  Exact polarizability: 252.021   5.758 120.288   4.368  -2.619  57.052
 Approx polarizability: 357.981  17.419 196.232   9.646  -6.954  85.876

                      1                      2                      3
                      A                      A                      A
 Frequencies --     25.6276                30.8521                41.5011
 Red. masses --      1.5976                 1.5544                 5.0832
 Frc consts  --      0.0006                 0.0009                 0.0052
 IR Inten    --      0.2528                 0.9662                 1.9690

                      4                      5                      6
                      A                      A                      A
 Frequencies --     69.0686               121.9569               128.5675
 Red. masses --      4.3981                 1.0411                 4.4794
 Frc consts  --      0.0124                 0.0091                 0.0436
 IR Inten    --      1.9031                 0.2966                 2.6189

                      7                      8                      9
                      A                      A                      A
 Frequencies --    175.1859               210.6845               232.5539
 Red. masses --      3.9182                 3.8623                 2.0182
 Frc consts  --      0.0708                 0.1010                 0.0643
 IR Inten    --      2.4808                 2.1031                 5.6871

                     10                     11                     12
                      A                      A                      A
 Frequencies --    273.4466               328.9336               338.7965
 Red. masses --      6.4323                 3.1575                 3.5655
 Frc consts  --      0.2834                 0.2013                 0.2411
 IR Inten    --      2.3353                 0.7538                 1.0140

                     13                     14                     15
                      A                      A                      A
 Frequencies --    415.3232               425.5668               504.5881
 Red. masses --      3.1707                 3.3214                 5.1866
 Frc consts  --      0.3222                 0.3544                 0.7780
 IR Inten    --      0.2822                 0.4655                14.5508

                     16                     17                     18
                      A                      A                      A
 Frequencies --    519.1718               548.3987               553.0904
 Red. masses --      2.6368                 2.8036                 1.4424
 Frc consts  --      0.4187                 0.4968                 0.2600
 IR Inten    --      8.3996                 9.0326                57.7952

                     19                     20                     21
                      A                      A                      A
 Frequencies --    587.4069               606.5879               661.0921
 Red. masses --      2.3906                 3.9104                 6.7053
 Frc consts  --      0.4860                 0.8477                 1.7266
 IR Inten    --     12.4568                13.5592                 0.5508

                     22                     23                     24
                      A                      A                      A
 Frequencies --    717.2548               769.6918               819.5952
 Red. masses --      3.2227                 4.2748                 1.4909
 Frc consts  --      0.9768                 1.4921                 0.5901
 IR Inten    --      0.8453                 2.6316                31.8737

                     25                     26                     27
                      A                      A                      A
 Frequencies --    824.5356               830.2530               841.9615
 Red. masses --      1.4182                 3.5249                 1.6884
 Frc consts  --      0.5681                 1.4316                 0.7052
 IR Inten    --     16.6839                 3.8694                 5.7913

                     28                     29                     30
                      A                      A                      A
 Frequencies --    884.3192               944.0283               948.4159
 Red. masses --      3.9754                 1.2664                 1.3191
 Frc consts  --      1.8317                 0.6650                 0.6991
 IR Inten    --      8.6575                 0.7025                 0.1650

                     31                     32                     33
                      A                      A                      A
 Frequencies --    989.3172              1021.0475              1023.2349
 Red. masses --      1.1400                 1.4170                 1.6683
 Frc consts  --      0.6574                 0.8704                 1.0291
 IR Inten    --     50.7273                 9.0419                46.6405

                     34                     35                     36
                      A                      A                      A
 Frequencies --   1037.8502              1052.8995              1076.4919
 Red. masses --      2.6634                 1.7554                 1.4972
 Frc consts  --      1.6903                 1.1466                 1.0223
 IR Inten    --      1.0421                 1.9569                15.5406

                     37                     38                     39
                      A                      A                      A
 Frequencies --   1159.4837              1222.1339              1244.4237
 Red. masses --      1.3175                 1.1858                 4.1536
 Frc consts  --      1.0436                 1.0435                 3.7897
 IR Inten    --      7.9636                 2.5888                23.5920

                     40                     41                     42
                      A                      A                      A
 Frequencies --   1251.7255              1264.9382              1290.6345
 Red. masses --      2.3520                 1.3146                 3.6580
 Frc consts  --      2.1713                 1.2394                 3.5900
 IR Inten    --      2.4222                97.0285               516.5203

                     43                     44                     45
                      A                      A                      A
 Frequencies --   1337.5097              1352.7871              1367.1153
 Red. masses --      3.0731                 1.3722                 1.5016
 Frc consts  --      3.2391                 1.4796                 1.6535
 IR Inten    --    161.8904                64.9642                25.4515

                     46                     47                     48
                      A                      A                      A
 Frequencies --   1371.3847              1409.4446              1445.0488
 Red. masses --      2.6676                 1.3815                 1.2455
 Frc consts  --      2.9559                 1.6169                 1.5324
 IR Inten    --     62.7968                30.9798                 1.0541

                     49                     50                     51
                      A                      A                      A
 Frequencies --   1460.1193              1504.4870              1513.3137
 Red. masses --      2.5797                 1.0616                 1.0480
 Frc consts  --      3.2404                 1.4158                 1.4141
 IR Inten    --      0.9528                 3.0843                 8.6685

                     52                     53                     54
                      A                      A                      A
 Frequencies --   1516.7327              1518.1102              1541.4616
 Red. masses --      1.1450                 1.1222                 1.6377
 Frc consts  --      1.5519                 1.5237                 2.2927
 IR Inten    --      2.5392                 4.0070                13.2453

                     55                     56                     57
                      A                      A                      A
 Frequencies --   1576.9612              1644.9621              1680.9158
 Red. masses --      2.8245                 5.1934                 5.7527
 Frc consts  --      4.1383                 8.2796                 9.5767
 IR Inten    --    206.3855                 6.4850               157.1086

                     58                     59                     60
                      A                      A                      A
 Frequencies --   1715.0479              1753.1061              3040.3731
 Red. masses --      3.9924                 9.4102                 1.0408
 Frc consts  --      6.9189                17.0398                 5.6687
 IR Inten    --    827.1959               211.2416                46.3481

                     61                     62                     63
                      A                      A                      A
 Frequencies --   3050.0184              3096.8233              3109.2926
 Red. masses --      1.0385                 1.0956                 1.1005
 Frc consts  --      5.6918                 6.1909                 6.2688
 IR Inten    --      5.8893                22.7372                16.2232

                     64                     65                     66
                      A                      A                      A
 Frequencies --   3124.9062              3168.5115              3172.9154
 Red. masses --      1.1024                 1.1003                 1.0872
 Frc consts  --      6.3425                 6.5081                 6.4485
 IR Inten    --     16.3508                13.9110                17.4904

                     67                     68                     69
                      A                      A                      A
 Frequencies --   3180.1218              3183.5550              3191.7470
 Red. masses --      1.0903                 1.0886                 1.0942
 Frc consts  --      6.4963                 6.5006                 6.5674
 IR Inten    --      9.7088                19.8767                21.6798

                     70                     71                     72
                      A                      A                      A
 Frequencies --   3212.8087              3237.1414              3598.6624
 Red. masses --      1.0924                 1.0882                 1.0757
 Frc consts  --      6.6438                 6.7185                 8.2077
 IR Inten    --      7.8625                 8.1652                21.6622

 - Thermochemistry -
 -------------------
 Temperature   298.150 Kelvin.  Pressure   1.00000 Atm.
 Atom     1 has atomic number  6 and mass  12.00000

 Molecular mass:   175.09971 amu.
 Principal axes and moments of inertia in atomic units:
                           1         2         3
     Eigenvalues --   630.759306611.571777192.04627
           X            0.99999  -0.00490  -0.00050
           Y            0.00490   0.99999   0.00165
           Z            0.00049  -0.00166   1.00000
 This molecule is an asymmetric top.
 Rotational symmetry number  1.
 Warning -- assumption of classical behavior for rotation
           may cause significant error
 Rotational temperatures (Kelvin)      0.13732     0.01310     0.01204
 Rotational constants (GHZ):           2.86122     0.27297     0.25094
 Zero-point vibrational energy     568752.7 (Joules/Mol)
                                  135.93515 (Kcal/Mol)
 Warning -- explicit consideration of  20 degrees of freedom as
           vibrations may cause significant error
 Vibrational temperatures:     36.87    44.39    59.71    99.37   175.47
          (Kelvin)            184.98   252.05   303.13   334.59   393.43
                              473.26   487.45   597.56   612.30   725.99
                              746.97   789.02   795.77   845.15   872.74
                              951.16  1031.97  1107.41  1179.21  1186.32
                             1194.55  1211.39  1272.34  1358.25  1364.56
                             1423.41  1469.06  1472.21  1493.23  1514.89
                             1548.83  1668.24  1758.38  1790.45  1800.95
                             1819.96  1856.94  1924.38  1946.36  1966.97
                             1973.12  2027.88  2079.10  2100.79  2164.62
                             2177.32  2182.24  2184.22  2217.82  2268.90
                             2366.73  2418.46  2467.57  2522.33  4374.42
                             4388.30  4455.64  4473.58  4496.04  4558.78
                             4565.12  4575.49  4580.43  4592.21  4622.52
                             4657.52  5177.67

 Zero-point correction=                           0.216626 (Hartree/Particle)
 Thermal correction to Energy=                    0.229952
 Thermal correction to Enthalpy=                  0.230896
 Thermal correction to Gibbs Free Energy=         0.174466
 Sum of electronic and zero-point Energies=           -556.798793
 Sum of electronic and thermal Energies=              -556.785467
 Sum of electronic and thermal Enthalpies=            -556.784523
 Sum of electronic and thermal Free Energies=         -556.840953

                     E (Thermal)             CV                S
                      KCal/Mol        Cal/Mol-Kelvin    Cal/Mol-Kelvin
 Total                  144.297             48.513            118.767
 Electronic               0.000              0.000              0.000
 Translational            0.889              2.981             41.388
 Rotational               0.889              2.981             31.773
 Vibrational            142.520             42.551             45.606
 Vibration     1          0.593              1.985              6.142
 Vibration     2          0.594              1.984              5.774
 Vibration     3          0.594              1.981              5.186
 Vibration     4          0.598              1.969              4.180
 Vibration     5          0.609              1.931              3.069
 Vibration     6          0.611              1.925              2.967
 Vibration     7          0.627              1.873              2.379
 Vibration     8          0.643              1.825              2.038
 Vibration     9          0.653              1.791              1.859
 Vibration    10          0.676              1.722              1.574
 Vibration    11          0.712              1.618              1.265
 Vibration    12          0.719              1.598              1.218
 Vibration    13          0.779              1.437              0.908
 Vibration    14          0.787              1.415              0.873
 Vibration    15          0.860              1.240              0.647
 Vibration    16          0.874              1.208              0.612
 Vibration    17          0.904              1.143              0.547
 Vibration    18          0.908              1.133              0.538
 Vibration    19          0.945              1.059              0.472
 Vibration    20          0.965              1.018              0.438

 Optimization completed.
    -- Stationary point found.
 Normal termination of Gaussian 16 at Wed Dec  9 23:13:42 2020.

 ----------------------------------------------------------------------
 # B3LYP/6-311++G(d,p) empiricaldispersion=gd3bj scf=xqc pop=npa geom=c
 heck
 ----------------------------------------------------------------------

 --------------------------------------
 CID_85841848_JID_3359_Energie_neutraal
 --------------------------------------
 Structure from the checkpoint file:  "JID_3359.chk"
 Charge =  0 Multiplicity = 1

 SCF Done:  E(RB3LYP) =  -557.172176595     A.U. after   16 cycles
 Normal termination of Gaussian 16 at Wed Dec  9 23:15:52 2020.

 ----------------------------------------------------------------------
 # B3LYP/6-311++G(d,p) empiricaldispersion=gd3bj scf=xqc pop=npa geom=c
 heck
 ----------------------------------------------------------------------

 ------------------------------------
 CID_85841848_JID_3359_Energie_kation
 ------------------------------------
 Structure from the checkpoint file:  "JID_3359.chk"
 Charge =  1 Multiplicity = 2

 SCF Done:  E(UB3LYP) =  -556.896911414     A.U. after   25 cycles
 Normal termination of Gaussian 16 at Wed Dec  9 23:20:17 2020.
 Gaussian 16:  ES64L-G16RevA.03 25-Dec-2016

 ----------------------------------------------------------------------
 # B3LYP/6-311++G(d,p) empiricaldispersion=gd3bj scf=xqc pop=npa geom=c
 heck
 ----------------------------------------------------------------------

 -----------------------------------
 CID_85841848_JID_3359_Energie_anion
 -----------------------------------
 Structure from the checkpoint file:  "JID_3359.chk"
 Charge = -1 Multiplicity = 2

                         Standard orientation:
 ---------------------------------------------------------------------
 Center     Atomic      Atomic             Coordinates (Angstroms)
 Number     Number       Type             X           Y           Z
 ---------------------------------------------------------------------
      1          6           0        5.027800    0.744180    0.082561
      2          6           0        3.587049    0.302149    0.011030
      3          6           0        2.552188    1.221060   -0.191206
      4          6           0        1.216510    0.828470   -0.237783
      5          6           0        0.877148   -0.519822   -0.063266
      6          6           0        1.905419   -1.453684    0.131519
      7          6           0        3.233314   -1.044686    0.161780
      8          7           0       -0.447866   -0.977424   -0.090526
      9          6           0       -1.585645   -0.226726   -0.008646
     10          6           0       -2.845768   -0.714724   -0.105207
     11          6           0       -4.054044    0.099007    0.018633
     12          8           0       -5.166013   -0.411752   -0.076522
     13          6           0       -3.916608    1.599324    0.267850
     14          1           0        5.178008    1.699094   -0.431368
     15          1           0        5.354960    0.877800    1.122300
     16          1           0        5.696537    0.006629   -0.374360
     17          1           0        2.793182    2.271905   -0.331397
     18          1           0        0.451974    1.571575   -0.436476
     19          1           0        1.657583   -2.504440    0.263988
     20          1           0        4.011335   -1.789285    0.311196
     21          1           0       -0.570005   -1.979906   -0.154891
     22          1           0       -1.414124    0.829318    0.165333
     23          1           0       -3.018237   -1.774168   -0.283220
     24          1           0       -3.399520    1.799296    1.213932
     25          1           0       -3.346290    2.086657   -0.532034
     26          1           0       -4.916399    2.034218    0.309262
 ---------------------------------------------------------------------

 SCF Done:  E(UB3LYP) =  -557.173255431     A.U. after   33 cycles
 SCF Done:  E(UB3LYP) =  -557.173481844     a.u. after    6 cycles

 The electronic state is 2-A.
 Alpha  occ. eigenvalues --  -18.92931 -14.22530 -10.09111 -10.08402 -10.06550
 Alpha  occ. eigenvalues --  -10.06515 -10.05765 -10.05755 -10.05360 -10.05300
 Alpha  occ. eigenvalues --  -10.04644 -10.03712 -10.01170  -0.86784  -0.83374
 Alpha  occ. eigenvalues --   -0.73620  -0.66459  -0.63342  -0.62956  -0.59204
 Alpha  occ. eigenvalues --   -0.56238  -0.51603  -0.48647  -0.46469  -0.42915
 Alpha  occ. eigenvalues --   -0.38516  -0.37088  -0.35288  -0.33702  -0.32980
 Alpha  occ. eigenvalues --   -0.31718  -0.30951  -0.30742  -0.30281  -0.28581
 Alpha  occ. eigenvalues --   -0.27734  -0.27449  -0.24868  -0.24356  -0.23650
 Alpha  occ. eigenvalues --   -0.22690  -0.22450  -0.21010  -0.14319  -0.13829
 Alpha  occ. eigenvalues --   -0.09354  -0.07406   0.04800
 Alpha virt. eigenvalues --    0.06705   0.07889   0.08548   0.09418   0.09676
 Alpha virt. eigenvalues --    0.10056   0.10182   0.11681   0.12122   0.12429
 Alpha virt. eigenvalues --    0.13061   0.13449   0.14415   0.14885   0.15379

  Beta  occ. eigenvalues --  -18.92540 -14.22598 -10.08963 -10.08203 -10.06519
  Beta  occ. eigenvalues --  -10.06180 -10.05801 -10.05795 -10.05273 -10.05162
  Beta  occ. eigenvalues --  -10.04512 -10.03729 -10.01136  -0.86091  -0.83210
  Beta  occ. eigenvalues --   -0.73426  -0.66137  -0.63122  -0.62710  -0.59021
  Beta  occ. eigenvalues --   -0.56120  -0.51340  -0.48397  -0.46114  -0.42784
  Beta  occ. eigenvalues --   -0.38172  -0.36906  -0.35114  -0.33596  -0.32822
  Beta  occ. eigenvalues --   -0.31523  -0.30891  -0.30641  -0.29843  -0.28333
  Beta  occ. eigenvalues --   -0.27336  -0.27271  -0.24711  -0.24133  -0.23537
  Beta  occ. eigenvalues --   -0.22485  -0.21846  -0.19599  -0.13892  -0.12520
  Beta  occ. eigenvalues --   -0.09005  -0.06586
  Beta virt. eigenvalues --    0.06817   0.07942   0.08560   0.09266   0.09533
  Beta virt. eigenvalues --    0.09783   0.10031   0.10876   0.11719   0.12428
  Beta virt. eigenvalues --    0.12513   0.13436   0.14099   0.14416   0.14882

 Mulliken charges and spin densities:
               1          2
     1  C   -0.096164  -0.539159
     2  C    0.225274   0.428956
     3  C   -0.866924   0.427635
     4  C    0.531106  -0.188320
     5  C    0.455712  -0.489043
     6  C   -0.615245   0.237225
     7  C   -0.209470  -0.101140
     8  N    0.046886  -0.007018
     9  C   -0.381720   0.328471
    10  C   -0.012685  -0.122626
    11  C   -0.120756   0.143878
    12  O   -0.412123   0.128357
    13  C   -0.501484  -0.022830
    14  H    0.000008   0.125547
    15  H    0.175249  -0.038849
    16  H   -0.111592   0.242747
    17  H    0.095130   0.041462
    18  H    0.015178   0.076483
    19  H   -0.081188   0.176062
    20  H    0.012829   0.119363
    21  H    0.229019   0.015447
    22  H    0.151781  -0.040905
    23  H    0.118312   0.007048
    24  H    0.117450   0.015239
    25  H    0.080977   0.035705
    26  H    0.154441   0.000267
 Sum of Mulliken charges =  -1.00000   1.00000

 Dipole moment (field-independent basis, Debye):
    X=              5.9752    Y=              0.9960    Z=              1.1112  Tot=              6.1588
 Quadrupole moment (field-independent basis, Debye-Ang):
   XX=           -181.0063   YY=            -87.1586   ZZ=            -91.5640
   XY=             -4.3462   XZ=              2.8918   YZ=              0.0846

 Summary of Natural Population Analysis:

                                       Natural Population
                Natural  -----------------------------------------------
    Atom  No    Charge         Core      Valence    Rydberg      Total
 -----------------------------------------------------------------------
      C    1   -0.29083      0.99964     2.28588    0.00530     3.29083
      C    2   -0.01942      0.99952     2.01095    0.00895     3.01942
      C    3   -0.10314      0.99953     2.09319    0.01042     3.10314
      C    4   -0.09932      0.99953     2.09120    0.00858     3.09932
      C    5    0.10332      0.99948     1.88617    0.01103     2.89668
      C    6   -0.12667      0.99954     2.11693    0.01020     3.12667
      C    7   -0.08567      0.99953     2.07697    0.00917     3.08567
      N    8   -0.29150      0.99966     2.78400    0.00784     3.79150
      C    9    0.09721      0.99954     1.89300    0.01024     2.90279
      C   10   -0.18833      0.99952     2.17893    0.00987     3.18833
      C   11    0.27445      0.99966     1.70554    0.02035     2.72555
      O   12   -0.28167      0.99988     3.27431    0.00748     4.28167
      C   13   -0.33250      0.99964     2.32871    0.00415     3.33250
      H   14    0.09806      0.00000     0.40116    0.00078     0.40194
      H   15    0.09743      0.00000     0.40170    0.00086     0.40257
      H   16    0.10024      0.00000     0.39868    0.00107     0.39976
      H   17    0.09312      0.00000     0.40600    0.00088     0.40688
      H   18    0.10027      0.00000     0.39862    0.00111     0.39973
      H   19    0.09446      0.00000     0.40455    0.00099     0.40554
      H   20    0.09335      0.00000     0.40573    0.00092     0.40665
      H   21    0.18557      0.00000     0.31204    0.00240     0.31443
      H   22    0.08803      0.00000     0.41069    0.00129     0.41197
      H   23    0.09118      0.00000     0.40662    0.00220     0.40882
      H   24    0.10056      0.00000     0.39838    0.00106     0.39944
      H   25    0.09966      0.00000     0.39805    0.00228     0.40034
      H   26    0.10212      0.00000     0.39644    0.00144     0.39788
 =======================================================================
   * Total *   -0.00000     12.99468    33.86445    0.14087    47.00000

 Normal termination of Gaussian 16 at Wed Dec  9 23:53:30 2020.
