 Gaussian 16, Revision A.03,

 -----------------------------------------------------------
 # opt freq B3LYP/6-31G(d) empiricaldispersion=gd3bj scf=xqc
 -----------------------------------------------------------

 -------------------------------
 CID_123954791_JID_2220_neutraal
 -------------------------------
 Symbolic Z-matrix:
 Charge =  0 Multiplicity = 1

 SCF Done:  E(RB3LYP) =  -522.525967420     A.U. after   14 cycles
 SCF Done:  E(RB3LYP) =  -522.528603565     A.U. after   13 cycles
 SCF Done:  E(RB3LYP) =  -522.524136861     A.U. after   13 cycles
 SCF Done:  E(RB3LYP) =  -522.529089139     A.U. after   13 cycles
 SCF Done:  E(RB3LYP) =  -522.530479123     A.U. after   13 cycles
 SCF Done:  E(RB3LYP) =  -522.530795714     A.U. after   12 cycles
 SCF Done:  E(RB3LYP) =  -522.530732432     A.U. after   12 cycles
 SCF Done:  E(RB3LYP) =  -522.531115390     A.U. after   10 cycles
 SCF Done:  E(RB3LYP) =  -522.531432653     A.U. after   11 cycles
 SCF Done:  E(RB3LYP) =  -522.515887250     A.U. after   14 cycles
 SCF Done:  E(RB3LYP) =  -522.532590368     A.U. after   10 cycles
 SCF Done:  E(RB3LYP) =  -522.532594178     A.U. after    9 cycles
 SCF Done:  E(RB3LYP) =  -522.532595237     A.U. after    8 cycles
 SCF Done:  E(RB3LYP) =  -522.532595853     A.U. after    8 cycles
 SCF Done:  E(RB3LYP) =  -522.532596114     A.U. after    8 cycles
 SCF Done:  E(RB3LYP) =  -522.532596178     A.U. after    7 cycles
 Optimization completed.
    -- Stationary point found.
 Normal termination of Gaussian 16 at Wed Dec  9 17:06:51 2020.

 --------------------------------------------------------------------
 #N Geom=AllCheck Guess=TCheck SCRF=Check GenChk RB3LYP/6-31G(d) Freq
 --------------------------------------------------------------------

 Structure from the checkpoint file:  "JID_2220.chk"
 -------------------------------
 CID_123954791_JID_2220_neutraal
 -------------------------------
 Charge =  0 Multiplicity = 1

 SCF Done:  E(RB3LYP) =  -522.532596178     A.U. after    1 cycles

  Exact polarizability: 119.783  -2.228 109.501  -0.974  -1.830  99.614
 Approx polarizability: 157.964  -6.109 155.800  -3.722  -0.841 149.294

                      1                      2                      3
                      A                      A                      A
 Frequencies --     45.7095                58.5699               101.8111
 Red. masses --      3.7273                 3.4052                 3.1071
 Frc consts  --      0.0046                 0.0069                 0.0190
 IR Inten    --      2.6409                 3.3449                 0.5968

                      4                      5                      6
                      A                      A                      A
 Frequencies --    117.8808               154.7630               221.6742
 Red. masses --      2.6562                 3.6653                 1.6611
 Frc consts  --      0.0217                 0.0517                 0.0481
 IR Inten    --      2.2723                 1.4016                 1.5600

                      7                      8                      9
                      A                      A                      A
 Frequencies --    229.2540               255.3245               259.4909
 Red. masses --      1.4496                 3.0496                 2.3018
 Frc consts  --      0.0449                 0.1171                 0.0913
 IR Inten    --      1.0030                 0.7693                 0.9394

                     10                     11                     12
                      A                      A                      A
 Frequencies --    300.0009               335.1429               345.5558
 Red. masses --      1.2189                 2.2489                 2.1333
 Frc consts  --      0.0646                 0.1488                 0.1501
 IR Inten    --      0.4712                 1.1758                 0.5545

                     13                     14                     15
                      A                      A                      A
 Frequencies --    386.7920               439.4912               452.1583
 Red. masses --      2.5672                 2.6903                 1.8166
 Frc consts  --      0.2263                 0.3062                 0.2188
 IR Inten    --      1.2600                 0.9956                 2.0172

                     16                     17                     18
                      A                      A                      A
 Frequencies --    480.6544               494.6729               570.4651
 Red. masses --      2.1336                 3.2725                 3.0684
 Frc consts  --      0.2904                 0.4718                 0.5883
 IR Inten    --      3.1958                17.1755                 7.4111

                     19                     20                     21
                      A                      A                      A
 Frequencies --    619.4810               689.6931               750.6877
 Red. masses --      3.7899                 2.7851                 2.0361
 Frc consts  --      0.8569                 0.7806                 0.6760
 IR Inten    --      0.7837                17.7994                21.4173

                     22                     23                     24
                      A                      A                      A
 Frequencies --    770.4197               812.9470               858.4276
 Red. masses --      1.4832                 2.1640                 2.1143
 Frc consts  --      0.5187                 0.8426                 0.9180
 IR Inten    --     21.3535                 0.0399                 9.8387

                     25                     26                     27
                      A                      A                      A
 Frequencies --    874.2579               884.3978               907.9017
 Red. masses --      1.8974                 2.3278                 2.0967
 Frc consts  --      0.8545                 1.0727                 1.0183
 IR Inten    --      2.1196                 8.2820                 1.5786

                     28                     29                     30
                      A                      A                      A
 Frequencies --    936.8456               961.9061               963.8068
 Red. masses --      1.9517                 1.6379                 1.7223
 Frc consts  --      1.0093                 0.8929                 0.9426
 IR Inten    --      7.8650                 5.0189                 2.2743

                     31                     32                     33
                      A                      A                      A
 Frequencies --    997.7500              1007.2466              1058.2908
 Red. masses --      1.7956                 1.8541                 1.9235
 Frc consts  --      1.0532                 1.1083                 1.2693
 IR Inten    --      2.2156                23.8721                 5.4475

                     34                     35                     36
                      A                      A                      A
 Frequencies --   1065.8135              1091.1118              1110.4837
 Red. masses --      1.7031                 1.8410                 1.6082
 Frc consts  --      1.1399                 1.2913                 1.1684
 IR Inten    --      0.5898                 2.9447                 3.8093

                     37                     38                     39
                      A                      A                      A
 Frequencies --   1120.4603              1136.0314              1151.5300
 Red. masses --      1.8495                 1.6910                 1.9722
 Frc consts  --      1.3680                 1.2858                 1.5408
 IR Inten    --      6.1765                 5.4688                21.3200

                     40                     41                     42
                      A                      A                      A
 Frequencies --   1168.8851              1192.5847              1231.5154
 Red. masses --      2.0743                 1.3467                 2.1735
 Frc consts  --      1.6698                 1.1285                 1.9422
 IR Inten    --      7.8619                 3.0293                61.4157

                     43                     44                     45
                      A                      A                      A
 Frequencies --   1253.9610              1275.8809              1292.2365
 Red. masses --      1.3616                 1.2179                 1.3688
 Frc consts  --      1.2614                 1.1681                 1.3467
 IR Inten    --      2.2374                11.2951                 5.8765

                     46                     47                     48
                      A                      A                      A
 Frequencies --   1316.2236              1323.6374              1346.5956
 Red. masses --      1.3671                 1.2021                 1.3126
 Frc consts  --      1.3954                 1.2409                 1.4023
 IR Inten    --      0.1964                 3.9494                 7.0866

                     49                     50                     51
                      A                      A                      A
 Frequencies --   1358.9744              1378.7746              1385.2213
 Red. masses --      1.4584                 1.4431                 1.4247
 Frc consts  --      1.5869                 1.6163                 1.6107
 IR Inten    --      8.2814                 4.9632                 1.2851

                     52                     53                     54
                      A                      A                      A
 Frequencies --   1389.6947              1404.4877              1405.7875
 Red. masses --      1.4231                 1.3879                 1.3540
 Frc consts  --      1.6193                 1.6130                 1.5765
 IR Inten    --     11.2120                28.9046                26.4707

                     55                     56                     57
                      A                      A                      A
 Frequencies --   1423.8599              1445.5047              1451.2305
 Red. masses --      1.4366                 1.3712                 1.3243
 Frc consts  --      1.7160                 1.6880                 1.6433
 IR Inten    --      4.3486                 6.2263                 1.8393

                     58                     59                     60
                      A                      A                      A
 Frequencies --   1497.7547              1498.8845              1508.1415
 Red. masses --      1.0563                 1.2908                 1.0597
 Frc consts  --      1.3961                 1.7086                 1.4202
 IR Inten    --     11.9907                 3.2827                 9.7475

                     61                     62                     63
                      A                      A                      A
 Frequencies --   1513.9324              1516.6339              1523.2950
 Red. masses --      1.0714                 1.0932                 1.0870
 Frc consts  --      1.4468                 1.4815                 1.4861
 IR Inten    --      5.2090                 3.8000                 2.9587

                     64                     65                     66
                      A                      A                      A
 Frequencies --   1530.1096              1535.7391              1542.7465
 Red. masses --      1.0970                 1.0560                 1.0918
 Frc consts  --      1.5132                 1.4674                 1.5310
 IR Inten    --      3.1143                 7.4382                 3.4409

                     67                     68                     69
                      A                      A                      A
 Frequencies --   1547.4761              1796.6427              2918.8959
 Red. masses --      1.0621                10.5430                 1.0740
 Frc consts  --      1.4985                20.0510                 5.3914
 IR Inten    --      8.6484               132.2165                53.7815

                     70                     71                     72
                      A                      A                      A
 Frequencies --   2928.5175              3014.5345              3016.5496
 Red. masses --      1.0739                 1.0814                 1.0811
 Frc consts  --      5.4262                 5.7902                 5.7964
 IR Inten    --    123.1364                 7.2417                17.0953

                     73                     74                     75
                      A                      A                      A
 Frequencies --   3019.8858              3042.4768              3046.5209
 Red. masses --      1.0656                 1.0741                 1.0729
 Frc consts  --      5.7259                 5.8580                 5.8671
 IR Inten    --     55.7317                47.7889                45.1816

                     76                     77                     78
                      A                      A                      A
 Frequencies --   3049.3556              3050.3815              3055.3110
 Red. masses --      1.0401                 1.0383                 1.0977
 Frc consts  --      5.6984                 5.6923                 6.0371
 IR Inten    --      3.6768                21.7526                32.3515

                     79                     80                     81
                      A                      A                      A
 Frequencies --   3083.1344              3094.2867              3109.7648
 Red. masses --      1.0880                 1.0863                 1.1014
 Frc consts  --      6.0935                 6.1278                 6.2756
 IR Inten    --     48.5142                39.4106                63.7870

                     82                     83                     84
                      A                      A                      A
 Frequencies --   3116.1614              3122.2904              3129.4746
 Red. masses --      1.0959                 1.0911                 1.1009
 Frc consts  --      6.2701                 6.2670                 6.3525
 IR Inten    --      8.3247                16.7350                39.7838

                     85                     86                     87
                      A                      A                      A
 Frequencies --   3159.0625              3169.1194              3503.4129
 Red. masses --      1.0896                 1.1036                 1.0747
 Frc consts  --      6.4067                 6.5306                 7.7721
 IR Inten    --      6.4764                 9.1034                 0.5960

 - Thermochemistry -
 -------------------
 Temperature   298.150 Kelvin.  Pressure   1.00000 Atm.
 Atom     1 has atomic number  6 and mass  12.00000

 Molecular mass:   169.14666 amu.
 Principal axes and moments of inertia in atomic units:
                           1         2         3
     Eigenvalues --  1585.315062213.200462995.72839
           X            0.99996  -0.00724  -0.00564
           Y            0.00712   0.99978  -0.01948
           Z            0.00578   0.01944   0.99979
 This molecule is an asymmetric top.
 Rotational symmetry number  1.
 Warning -- assumption of classical behavior for rotation
           may cause significant error
 Rotational temperatures (Kelvin)      0.05464     0.03914     0.02891
 Rotational constants (GHZ):           1.13841     0.81544     0.60244
 Zero-point vibrational energy     745898.2 (Joules/Mol)
                                  178.27396 (Kcal/Mol)
 Warning -- explicit consideration of  19 degrees of freedom as
           vibrations may cause significant error
 Vibrational temperatures:     65.77    84.27   146.48   169.60   222.67
          (Kelvin)            318.94   329.85   367.35   373.35   431.63
                              482.20   497.18   556.51   632.33   650.55
                              691.55   711.72   820.77   891.30   992.31
                             1080.07  1108.46  1169.65  1235.09  1257.86
                             1272.45  1306.27  1347.91  1383.97  1386.70
                             1435.54  1449.20  1522.64  1533.47  1569.87
                             1597.74  1612.09  1634.50  1656.79  1681.76
                             1715.86  1771.88  1804.17  1835.71  1859.24
                             1893.75  1904.42  1937.45  1955.26  1983.75
                             1993.02  1999.46  2020.74  2022.61  2048.62
                             2079.76  2088.00  2154.93  2156.56  2169.88
                             2178.21  2182.10  2191.68  2201.49  2209.59
                             2219.67  2226.47  2584.97  4199.64  4213.48
                             4337.24  4340.14  4344.94  4377.45  4383.26
                             4387.34  4388.82  4395.91  4435.94  4451.99
                             4474.26  4483.46  4492.28  4502.62  4545.19
                             4559.66  5040.63

 Zero-point correction=                           0.284098 (Hartree/Particle)
 Thermal correction to Energy=                    0.296683
 Thermal correction to Enthalpy=                  0.297627
 Thermal correction to Gibbs Free Energy=         0.245477
 Sum of electronic and zero-point Energies=           -522.248499
 Sum of electronic and thermal Energies=              -522.235913
 Sum of electronic and thermal Enthalpies=            -522.234969
 Sum of electronic and thermal Free Energies=         -522.287119

                     E (Thermal)             CV                S
                      KCal/Mol        Cal/Mol-Kelvin    Cal/Mol-Kelvin
 Total                  186.171             48.717            109.759
 Electronic               0.000              0.000              0.000
 Translational            0.889              2.981             41.285
 Rotational               0.889              2.981             30.731
 Vibrational            184.394             42.756             37.743
 Vibration     1          0.595              1.979              4.995
 Vibration     2          0.596              1.974              4.505
 Vibration     3          0.604              1.948              3.419
 Vibration     4          0.608              1.934              3.135
 Vibration     5          0.620              1.897              2.613
 Vibration     6          0.648              1.808              1.945
 Vibration     7          0.652              1.796              1.885
 Vibration     8          0.666              1.754              1.694
 Vibration     9          0.668              1.747              1.665
 Vibration    10          0.693              1.674              1.417
 Vibration    11          0.716              1.605              1.235
 Vibration    12          0.724              1.584              1.186
 Vibration    13          0.755              1.498              1.012
 Vibration    14          0.800              1.384              0.828
 Vibration    15          0.811              1.356              0.789
 Vibration    16          0.837              1.293              0.708
 Vibration    17          0.850              1.262              0.672
 Vibration    18          0.927              1.095              0.503
 Vibration    19          0.979              0.991              0.417

 Optimization completed.
    -- Stationary point found.
 Normal termination of Gaussian 16 at Wed Dec  9 17:16:13 2020.

 ----------------------------------------------------------------------
 # B3LYP/6-311++G(d,p) empiricaldispersion=gd3bj scf=xqc pop=npa geom=c
 heck
 ----------------------------------------------------------------------

 ---------------------------------------
 CID_123954791_JID_2220_Energie_neutraal
 ---------------------------------------
 Structure from the checkpoint file:  "JID_2220.chk"
 Charge =  0 Multiplicity = 1

 SCF Done:  E(RB3LYP) =  -522.682964727     A.U. after   13 cycles
 Normal termination of Gaussian 16 at Wed Dec  9 17:20:14 2020.

 ----------------------------------------------------------------------
 # B3LYP/6-311++G(d,p) empiricaldispersion=gd3bj scf=xqc pop=npa geom=c
 heck
 ----------------------------------------------------------------------

 -------------------------------------
 CID_123954791_JID_2220_Energie_kation
 -------------------------------------
 Structure from the checkpoint file:  "JID_2220.chk"
 Charge =  1 Multiplicity = 2

 SCF Done:  E(UB3LYP) =  -522.372188167     A.U. after   20 cycles
 Normal termination of Gaussian 16 at Wed Dec  9 17:28:35 2020.
 Gaussian 16:  ES64L-G16RevA.03 25-Dec-2016

 ----------------------------------------------------------------------
 # B3LYP/6-311++G(d,p) empiricaldispersion=gd3bj scf=xqc pop=npa geom=c
 heck
 ----------------------------------------------------------------------

 ------------------------------------
 CID_123954791_JID_2220_Energie_anion
 ------------------------------------
 Structure from the checkpoint file:  "JID_2220.chk"
 Charge = -1 Multiplicity = 2

                         Standard orientation:
 ---------------------------------------------------------------------
 Center     Atomic      Atomic             Coordinates (Angstroms)
 Number     Number       Type             X           Y           Z
 ---------------------------------------------------------------------
      1          6           0       -3.143203    0.769195    0.401319
      2          6           0       -2.821420   -0.213331   -0.729915
      3          6           0       -1.333940   -0.555408   -0.911361
      4          6           0       -0.671953   -1.264172    0.291988
      5          6           0       -0.093805   -0.321980    1.374256
      6          6           0        1.229316    0.357352    0.952894
      7          6           0        2.212938   -0.687075    0.411134
      8          7           0        1.583721   -1.447749   -0.666888
      9          6           0        0.443495   -2.217721   -0.163193
     10          6           0        0.976046    1.572439    0.044781
     11          8           0        0.090095    2.360939    0.326269
     12          6           0        1.864492    1.791136   -1.161483
     13          1           0       -2.971167    0.321703    1.386360
     14          1           0       -4.195767    1.072750    0.362739
     15          1           0       -2.522802    1.669128    0.333158
     16          1           0       -3.385470   -1.144679   -0.574151
     17          1           0       -3.186733    0.205739   -1.677097
     18          1           0       -1.246212   -1.212746   -1.786495
     19          1           0       -0.788036    0.354390   -1.173865
     20          1           0       -1.442273   -1.883349    0.774958
     21          1           0       -0.806819    0.453568    1.654680
     22          1           0        0.109433   -0.919603    2.272891
     23          1           0        1.673632    0.796888    1.859096
     24          1           0        3.123452   -0.214795    0.029211
     25          1           0        2.515957   -1.335515    1.256672
     26          1           0        2.265690   -2.076372   -1.084594
     27          1           0        0.732596   -2.867177    0.687447
     28          1           0        0.080469   -2.869079   -0.965726
     29          1           0        1.833581    0.902976   -1.801699
     30          1           0        1.524201    2.674009   -1.705336
     31          1           0        2.907665    1.936289   -0.852713
 ---------------------------------------------------------------------

 SCF Done:  E(UB3LYP) =  -522.671077956     A.U. after   32 cycles

 The electronic state is 2-A.
 Alpha  occ. eigenvalues --  -18.99376 -14.18565 -10.14168 -10.07805 -10.07783
 Alpha  occ. eigenvalues --  -10.06667 -10.06647 -10.06378 -10.05734 -10.05698
 Alpha  occ. eigenvalues --  -10.05453 -10.05446  -0.92834  -0.80296  -0.70262
 Alpha  occ. eigenvalues --   -0.67664  -0.65057  -0.62155  -0.57691  -0.52959
 Alpha  occ. eigenvalues --   -0.52057  -0.48753  -0.44486  -0.41071  -0.39205
 Alpha  occ. eigenvalues --   -0.36576  -0.34986  -0.34850  -0.33622  -0.33267
 Alpha  occ. eigenvalues --   -0.32974  -0.31162  -0.29974  -0.29761  -0.28640
 Alpha  occ. eigenvalues --   -0.27927  -0.27430  -0.25690  -0.25268  -0.24646
 Alpha  occ. eigenvalues --   -0.23093  -0.22863  -0.20640  -0.19756  -0.19642
 Alpha  occ. eigenvalues --   -0.13692  -0.11990   0.04654
 Alpha virt. eigenvalues --    0.06948   0.07649   0.07882   0.08819   0.09402
 Alpha virt. eigenvalues --    0.09781   0.09950   0.10569   0.10961   0.12018
 Alpha virt. eigenvalues --    0.12442   0.12756   0.13534   0.13960   0.14415

  Beta  occ. eigenvalues --  -18.99319 -14.18533 -10.14080 -10.07768 -10.07758
  Beta  occ. eigenvalues --  -10.06661 -10.06647 -10.06374 -10.05721 -10.05694
  Beta  occ. eigenvalues --  -10.05436 -10.05433  -0.92709  -0.80247  -0.70237
  Beta  occ. eigenvalues --   -0.67593  -0.65019  -0.62089  -0.57663  -0.52893
  Beta  occ. eigenvalues --   -0.51974  -0.48702  -0.44407  -0.40948  -0.39091
  Beta  occ. eigenvalues --   -0.36515  -0.34959  -0.34820  -0.33542  -0.33200
  Beta  occ. eigenvalues --   -0.32840  -0.31125  -0.29919  -0.29719  -0.28586
  Beta  occ. eigenvalues --   -0.27900  -0.27390  -0.25664  -0.25217  -0.24418
  Beta  occ. eigenvalues --   -0.23056  -0.22836  -0.20607  -0.19695  -0.19565
  Beta  occ. eigenvalues --   -0.13629  -0.11905
  Beta virt. eigenvalues --    0.06917   0.07732   0.08276   0.08468   0.09290
  Beta virt. eigenvalues --    0.09884   0.10320   0.10462   0.11016   0.11408
  Beta virt. eigenvalues --    0.12485   0.12695   0.13225   0.13788   0.14262

 Mulliken charges and spin densities:
               1          2
     1  C   -0.451231  -0.129528
     2  C   -0.451734   0.069631
     3  C    0.045350  -0.260330
     4  C   -0.971753   1.382894
     5  C    0.891699  -1.690133
     6  C   -0.303934   1.074655
     7  C    1.106719  -1.761246
     8  N   -0.565941   0.357136
     9  C    1.542468  -2.060467
    10  C   -0.318793   0.082828
    11  O   -0.255552   0.027346
    12  C    0.193071  -0.717766
    13  H    0.069116   0.061447
    14  H    0.064202   0.060961
    15  H    0.176101   0.013974
    16  H    0.012013   0.104601
    17  H    0.090468   0.033414
    18  H    0.091543   0.070639
    19  H    0.219247  -0.041361
    20  H    0.106523   0.093254
    21  H    0.095559   0.062885
    22  H   -0.124127   0.291351
    23  H   -0.342513   0.589177
    24  H   -0.589572   0.761012
    25  H   -0.445779   0.588438
    26  H   -0.151448   0.426299
    27  H   -0.295818   0.421034
    28  H   -0.423560   0.581898
    29  H    0.142154   0.037680
    30  H    0.135743   0.013286
    31  H   -0.290221   0.454988
 Sum of Mulliken charges =  -1.00000   1.00000

 Dipole moment (field-independent basis, Debye):
    X=             -6.3404    Y=              2.1490    Z=             -1.8645  Tot=              6.9495
 Quadrupole moment (field-independent basis, Debye-Ang):
   XX=           -130.0622   YY=           -124.1637   ZZ=           -108.3276
   XY=              5.6593   XZ=             -1.7845   YZ=             -3.1122

 Summary of Natural Population Analysis:

                                       Natural Population
                Natural  -----------------------------------------------
    Atom  No    Charge         Core      Valence    Rydberg      Total
 -----------------------------------------------------------------------
      C    1   -0.29118      0.99966     2.28711    0.00441     3.29118
      C    2   -0.18366      0.99964     2.17728    0.00674     3.18366
      C    3   -0.18804      0.99960     2.17882    0.00963     3.18804
      C    4   -0.11677      0.99958     2.10501    0.01217     3.11677
      C    5   -0.18676      0.99959     2.17653    0.01064     3.18676
      C    6   -0.16196      0.99953     2.14797    0.01445     3.16196
      C    7   -0.08946      0.99961     2.07673    0.01312     3.08946
      N    8   -0.34624      0.99973     2.83349    0.01301     3.84624
      C    9   -0.08064      0.99960     2.06870    0.01234     3.08064
      C   10    0.31186      0.99965     1.66639    0.02210     2.68814
      O   11   -0.29758      0.99987     3.29121    0.00650     4.29758
      C   12   -0.34125      0.99961     2.33624    0.00540     3.34125
      H   13    0.09556      0.00000     0.40348    0.00097     0.40444
      H   14    0.09183      0.00000     0.40738    0.00079     0.40817
      H   15    0.10822      0.00000     0.39080    0.00097     0.39178
      H   16    0.08857      0.00000     0.41024    0.00119     0.41143
      H   17    0.09070      0.00000     0.40830    0.00100     0.40930
      H   18    0.09639      0.00000     0.40241    0.00120     0.40361
      H   19    0.10046      0.00000     0.39791    0.00164     0.39954
      H   20    0.09510      0.00000     0.40328    0.00161     0.40490
      H   21    0.10969      0.00000     0.38876    0.00155     0.39031
      H   22    0.09979      0.00000     0.39881    0.00140     0.40021
      H   23    0.11911      0.00000     0.37868    0.00220     0.38089
      H   24    0.10033      0.00000     0.39677    0.00290     0.39967
      H   25    0.08496      0.00000     0.41193    0.00312     0.41504
      H   26    0.17995      0.00000     0.31546    0.00459     0.32005
      H   27    0.08022      0.00000     0.41775    0.00203     0.41978
      H   28    0.09421      0.00000     0.40430    0.00148     0.40579
      H   29    0.11958      0.00000     0.37891    0.00150     0.38042
      H   30    0.10431      0.00000     0.39475    0.00094     0.39569
      H   31    0.11269      0.00000     0.38567    0.00164     0.38731
 =======================================================================
   * Total *    0.00000     11.99568    34.84110    0.16322    47.00000

 Normal termination of Gaussian 16 at Wed Dec  9 17:42:02 2020.
