 Gaussian 16, Revision A.03,

 -----------------------------------------------------------
 # opt freq B3LYP/6-31G(d) empiricaldispersion=gd3bj scf=xqc
 -----------------------------------------------------------

 ------------------------------
 CID_90558378_JID_2713_neutraal
 ------------------------------
 Symbolic Z-matrix:
 Charge =  0 Multiplicity = 1

 SCF Done:  E(RB3LYP) =  -951.926663981     A.U. after   14 cycles
 SCF Done:  E(RB3LYP) =  -951.930296509     A.U. after   12 cycles
 SCF Done:  E(RB3LYP) =  -951.931319477     A.U. after   12 cycles
 SCF Done:  E(RB3LYP) =  -951.931639510     A.U. after   12 cycles
 SCF Done:  E(RB3LYP) =  -951.931879811     A.U. after   12 cycles
 SCF Done:  E(RB3LYP) =  -951.932092661     A.U. after   12 cycles
 SCF Done:  E(RB3LYP) =  -951.932341016     A.U. after   12 cycles
 SCF Done:  E(RB3LYP) =  -951.932616822     A.U. after   12 cycles
 SCF Done:  E(RB3LYP) =  -951.932668241     A.U. after   12 cycles
 SCF Done:  E(RB3LYP) =  -951.932783778     A.U. after   11 cycles
 SCF Done:  E(RB3LYP) =  -951.932994417     A.U. after   11 cycles
 SCF Done:  E(RB3LYP) =  -951.933000712     A.U. after   10 cycles
 SCF Done:  E(RB3LYP) =  -951.933006007     A.U. after   10 cycles
 SCF Done:  E(RB3LYP) =  -951.933009426     A.U. after   10 cycles
 SCF Done:  E(RB3LYP) =  -951.933009588     A.U. after    8 cycles
 Optimization completed.
    -- Stationary point found.
 Normal termination of Gaussian 16 at Wed Dec  9 17:59:44 2020.

 --------------------------------------------------------------------
 #N Geom=AllCheck Guess=TCheck SCRF=Check GenChk RB3LYP/6-31G(d) Freq
 --------------------------------------------------------------------

 Structure from the checkpoint file:  "JID_2713.chk"
 ------------------------------
 CID_90558378_JID_2713_neutraal
 ------------------------------
 Charge =  0 Multiplicity = 1

 SCF Done:  E(RB3LYP) =  -951.933009588     A.U. after    1 cycles

  Exact polarizability: 120.704   0.059  99.947  -8.131  -1.031  72.957
 Approx polarizability: 154.040  -7.131 174.412 -19.299  -3.274 117.298

                      1                      2                      3
                      A                      A                      A
 Frequencies --     26.0953                50.9617                68.1646
 Red. masses --      5.4383                 4.1696                 6.0845
 Frc consts  --      0.0022                 0.0064                 0.0167
 IR Inten    --      3.9813                 0.1768                 1.6013

                      4                      5                      6
                      A                      A                      A
 Frequencies --    105.4649               128.8840               221.1138
 Red. masses --      4.6299                 4.6592                 1.1065
 Frc consts  --      0.0303                 0.0456                 0.0319
 IR Inten    --      4.8269                 0.9714                 0.5659

                      7                      8                      9
                      A                      A                      A
 Frequencies --    227.3934               273.8107               306.5134
 Red. masses --      3.3598                 3.5203                 3.7194
 Frc consts  --      0.1024                 0.1555                 0.2059
 IR Inten    --      2.2087                 2.3792                 4.4537

                     10                     11                     12
                      A                      A                      A
 Frequencies --    325.0473               365.8455               400.3985
 Red. masses --      2.9697                 2.5903                 3.2597
 Frc consts  --      0.1849                 0.2043                 0.3079
 IR Inten    --      5.1908                 8.3346                15.5457

                     13                     14                     15
                      A                      A                      A
 Frequencies --    455.5402               472.3117               535.6420
 Red. masses --      3.6108                 7.0431                 3.9445
 Frc consts  --      0.4415                 0.9257                 0.6668
 IR Inten    --     21.3524                 6.9428                15.7877

                     16                     17                     18
                      A                      A                      A
 Frequencies --    623.2828               624.1500               638.2934
 Red. masses --      4.1226                 3.8319                 3.9878
 Frc consts  --      0.9436                 0.8795                 0.9573
 IR Inten    --     24.2604                 5.9194                67.0498

                     19                     20                     21
                      A                      A                      A
 Frequencies --    686.6234               735.1380               756.5419
 Red. masses --      2.2544                 1.3189                 3.5346
 Frc consts  --      0.6262                 0.4200                 1.1920
 IR Inten    --     28.9110                11.5037                28.1315

                     22                     23                     24
                      A                      A                      A
 Frequencies --    809.5050               827.8663               845.4625
 Red. masses --      1.3141                 1.7280                 1.3549
 Frc consts  --      0.5074                 0.6978                 0.5706
 IR Inten    --     24.5360               147.7291                22.6665

                     25                     26                     27
                      A                      A                      A
 Frequencies --    896.8394               906.5096               962.7811
 Red. masses --      5.7466                 2.8236                 2.2385
 Frc consts  --      2.7232                 1.3671                 1.2225
 IR Inten    --     26.7973                62.7672                28.9094

                     28                     29                     30
                      A                      A                      A
 Frequencies --    998.1368              1001.3704              1019.0496
 Red. masses --      1.3930                 1.5078                 2.1328
 Frc consts  --      0.8177                 0.8908                 1.3050
 IR Inten    --      0.5415                57.2418                30.4320

                     31                     32                     33
                      A                      A                      A
 Frequencies --   1044.1777              1070.0874              1100.0405
 Red. masses --      2.0297                 2.2257                 4.3865
 Frc consts  --      1.3038                 1.5016                 3.1274
 IR Inten    --     11.4841                28.1044                49.4452

                     34                     35                     36
                      A                      A                      A
 Frequencies --   1104.6511              1128.0339              1195.5320
 Red. masses --      1.8416                 7.6383                 2.1878
 Frc consts  --      1.3241                 5.7266                 1.8424
 IR Inten    --     18.7329               112.3047                 9.4114

                     37                     38                     39
                      A                      A                      A
 Frequencies --   1220.5778              1263.7135              1285.9787
 Red. masses --      1.7131                 1.3380                 1.6133
 Frc consts  --      1.5037                 1.2589                 1.5719
 IR Inten    --     15.6046                18.8640                 0.2804

                     40                     41                     42
                      A                      A                      A
 Frequencies --   1298.8745              1327.2897              1381.7127
 Red. masses --      1.4394                 4.7110                 1.2262
 Frc consts  --      1.4307                 4.8899                 1.3792
 IR Inten    --      5.0821               178.0921                 6.9320

                     43                     44                     45
                      A                      A                      A
 Frequencies --   1385.3818              1395.5038              1433.4918
 Red. masses --      1.4181                 1.3300                 3.0539
 Frc consts  --      1.6036                 1.5260                 3.6973
 IR Inten    --      4.3160                13.6916                 2.4267

                     46                     47                     48
                      A                      A                      A
 Frequencies --   1466.9916              1484.2068              1487.8974
 Red. masses --      1.2035                 1.0486                 1.0823
 Frc consts  --      1.5260                 1.3610                 1.4117
 IR Inten    --     39.0738                 4.9356                 5.9660

                     49                     50                     51
                      A                      A                      A
 Frequencies --   1505.8056              1520.5780              1548.0912
 Red. masses --      1.0882                 1.1011                 3.8012
 Frc consts  --      1.4538                 1.5001                 5.3674
 IR Inten    --      6.3124                 7.3100                13.4047

                     52                     53                     54
                      A                      A                      A
 Frequencies --   1637.6652              3060.9677              3077.0876
 Red. masses --      5.5974                 1.0638                 1.0690
 Frc consts  --      8.8447                 5.8724                 5.9639
 IR Inten    --      0.4573                22.4238                21.8413

                     55                     56                     57
                      A                      A                      A
 Frequencies --   3089.8333              3113.4515              3153.4588
 Red. masses --      1.0293                 1.0986                 1.0993
 Frc consts  --      5.7901                 6.2743                 6.4406
 IR Inten    --      0.4056                17.9022                 7.8222

                     58                     59                     60
                      A                      A                      A
 Frequencies --   3188.7870              3199.8417              3260.0943
 Red. masses --      1.1066                 1.1080                 1.0926
 Frc consts  --      6.6299                 6.6843                 6.8416
 IR Inten    --      0.7633                 0.7167                 2.3148

                     61                     62                     63
                      A                      A                      A
 Frequencies --   3296.0817              3302.3724              3480.4663
 Red. masses --      1.0977                 1.1049                 1.0735
 Frc consts  --      7.0265                 7.0996                 7.6615
 IR Inten    --      2.7052                 3.7977                47.3445

 - Thermochemistry -
 -------------------
 Temperature   298.150 Kelvin.  Pressure   1.00000 Atm.
 Atom     1 has atomic number  6 and mass  12.00000

 Molecular mass:   189.04597 amu.
 Principal axes and moments of inertia in atomic units:
                           1         2         3
     Eigenvalues --   989.333243835.896494264.36710
           X            0.99989   0.01185   0.00943
           Y           -0.01198   0.99984   0.01339
           Z           -0.00927  -0.01350   0.99987
 This molecule is an asymmetric top.
 Rotational symmetry number  1.
 Warning -- assumption of classical behavior for rotation
           may cause significant error
 Rotational temperatures (Kelvin)      0.08755     0.02258     0.02031
 Rotational constants (GHZ):           1.82420     0.47049     0.42321
 Zero-point vibrational energy     483312.0 (Joules/Mol)
                                  115.51435 (Kcal/Mol)
 Warning -- explicit consideration of  15 degrees of freedom as
           vibrations may cause significant error
 Vibrational temperatures:     37.55    73.32    98.07   151.74   185.44
          (Kelvin)            318.13   327.17   393.95   441.00   467.67
                              526.37   576.08   655.42   679.55   770.67
                              896.76   898.01   918.36   987.90  1057.70
                             1088.50  1164.70  1191.11  1216.43  1290.35
                             1304.27  1385.23  1436.10  1440.75  1466.19
                             1502.34  1539.62  1582.71  1589.35  1622.99
                             1720.10  1756.14  1818.20  1850.24  1868.79
                             1909.67  1987.98  1993.26  2007.82  2062.48
                             2110.67  2135.44  2140.75  2166.52  2187.77
                             2227.36  2356.23  4404.05  4427.24  4445.58
                             4479.56  4537.12  4587.95  4603.86  4690.55
                             4742.33  4751.38  5007.61

 Zero-point correction=                           0.184084 (Hartree/Particle)
 Thermal correction to Energy=                    0.195984
 Thermal correction to Enthalpy=                  0.196928
 Thermal correction to Gibbs Free Energy=         0.144500
 Sum of electronic and zero-point Energies=           -951.748926
 Sum of electronic and thermal Energies=              -951.737026
 Sum of electronic and thermal Enthalpies=            -951.736082
 Sum of electronic and thermal Free Energies=         -951.788510

                     E (Thermal)             CV                S
                      KCal/Mol        Cal/Mol-Kelvin    Cal/Mol-Kelvin
 Total                  122.982             44.204            110.345
 Electronic               0.000              0.000              0.000
 Translational            0.889              2.981             41.616
 Rotational               0.889              2.981             31.160
 Vibrational            121.204             38.243             37.569
 Vibration     1          0.593              1.985              6.106
 Vibration     2          0.595              1.977              4.780
 Vibration     3          0.598              1.969              4.206
 Vibration     4          0.605              1.945              3.351
 Vibration     5          0.611              1.924              2.963
 Vibration     6          0.648              1.809              1.950
 Vibration     7          0.651              1.799              1.899
 Vibration     8          0.676              1.722              1.572
 Vibration     9          0.697              1.661              1.381
 Vibration    10          0.709              1.625              1.285
 Vibration    11          0.739              1.543              1.097
 Vibration    12          0.766              1.469              0.961
 Vibration    13          0.814              1.349              0.779
 Vibration    14          0.829              1.311              0.731
 Vibration    15          0.891              1.171              0.575

 Optimization completed.
    -- Stationary point found.
 Normal termination of Gaussian 16 at Wed Dec  9 18:05:19 2020.

 ----------------------------------------------------------------------
 # B3LYP/6-311++G(d,p) empiricaldispersion=gd3bj scf=xqc pop=npa geom=c
 heck
 ----------------------------------------------------------------------

 --------------------------------------
 CID_90558378_JID_2713_Energie_neutraal
 --------------------------------------
 Structure from the checkpoint file:  "JID_2713.chk"
 Charge =  0 Multiplicity = 1

 SCF Done:  E(RB3LYP) =  -952.122958943     A.U. after   14 cycles
 Normal termination of Gaussian 16 at Wed Dec  9 18:08:05 2020.

 ----------------------------------------------------------------------
 # B3LYP/6-311++G(d,p) empiricaldispersion=gd3bj scf=xqc pop=npa geom=c
 heck
 ----------------------------------------------------------------------

 ------------------------------------
 CID_90558378_JID_2713_Energie_kation
 ------------------------------------
 Structure from the checkpoint file:  "JID_2713.chk"
 Charge =  1 Multiplicity = 2

 SCF Done:  E(UB3LYP) =  -951.807360448     A.U. after   23 cycles
 Normal termination of Gaussian 16 at Wed Dec  9 18:14:03 2020.
 Gaussian 16:  ES64L-G16RevA.03 25-Dec-2016

 ----------------------------------------------------------------------
 # B3LYP/6-311++G(d,p) empiricaldispersion=gd3bj scf=xqc pop=npa geom=c
 heck
 ----------------------------------------------------------------------

 -----------------------------------
 CID_90558378_JID_2713_Energie_anion
 -----------------------------------
 Structure from the checkpoint file:  "JID_2713.chk"
 Charge = -1 Multiplicity = 2

                         Standard orientation:
 ---------------------------------------------------------------------
 Center     Atomic      Atomic             Coordinates (Angstroms)
 Number     Number       Type             X           Y           Z
 ---------------------------------------------------------------------
      1          6           0       -3.348987   -0.635497   -1.002678
      2         16           0       -1.997224   -0.261885    0.121610
      3          8           0       -2.447169    0.782816    1.047381
      4          8           0       -1.472811   -1.541610    0.621957
      5          7           0       -0.862564    0.424504   -0.934792
      6          6           0       -0.211245    1.666880   -0.484635
      7          6           0        0.792744    1.467352    0.668672
      8          6           0        1.864336    0.472967    0.329528
      9          6           0        1.813653   -0.882490    0.502602
     10          8           0        2.951182   -1.471679    0.027878
     11          6           0        3.739934   -0.473622   -0.463497
     12          6           0        3.128390    0.731848   -0.312558
     13          1           0       -4.138295   -1.106198   -0.412511
     14          1           0       -2.987300   -1.320190   -1.771395
     15          1           0       -3.698807    0.297902   -1.444844
     16          1           0       -0.164793   -0.292563   -1.140298
     17          1           0        0.294726    2.076750   -1.365249
     18          1           0       -0.994937    2.365407   -0.186617
     19          1           0        1.241735    2.439065    0.907555
     20          1           0        0.237564    1.146423    1.555815
     21          1           0        1.072287   -1.540594    0.930708
     22          1           0        4.688394   -0.785012   -0.873398
     23          1           0        3.520382    1.696802   -0.604315
 ---------------------------------------------------------------------

 SCF Done:  E(UB3LYP) =  -952.110526710     A.U. after   33 cycles
 SCF Done:  E(UB3LYP) =  -952.110526710     a.u. after    1 cycles

 The electronic state is 2-A.
 Alpha  occ. eigenvalues --  -88.96837 -19.09897 -19.02411 -19.02334 -14.24659
 Alpha  occ. eigenvalues --  -10.13084 -10.12454 -10.11682 -10.10772 -10.08845
 Alpha  occ. eigenvalues --  -10.08729 -10.07970  -8.03060  -5.99341  -5.99310
 Alpha  occ. eigenvalues --   -5.99122  -1.02512  -1.02149  -0.91606  -0.83371
 Alpha  occ. eigenvalues --   -0.72865  -0.68447  -0.66343  -0.64083  -0.56461
 Alpha  occ. eigenvalues --   -0.51823  -0.49396  -0.47773  -0.44342  -0.42894
 Alpha  occ. eigenvalues --   -0.40278  -0.39079  -0.37103  -0.36438  -0.35795
 Alpha  occ. eigenvalues --   -0.34277  -0.33914  -0.33479  -0.32792  -0.30971
 Alpha  occ. eigenvalues --   -0.30097  -0.27181  -0.26649  -0.25843  -0.23257
 Alpha  occ. eigenvalues --   -0.21786  -0.21562  -0.19196  -0.17531  -0.14170
 Alpha  occ. eigenvalues --    0.04240
 Alpha virt. eigenvalues --    0.05940   0.07181   0.08305   0.08822   0.09230
 Alpha virt. eigenvalues --    0.09348   0.10363   0.10767   0.11891   0.12032
 Alpha virt. eigenvalues --    0.12833   0.13585   0.13900   0.14506   0.15040

  Beta  occ. eigenvalues --  -88.96833 -19.09897 -19.02395 -19.02323 -14.24641
  Beta  occ. eigenvalues --  -10.13074 -10.12444 -10.11658 -10.10698 -10.08847
  Beta  occ. eigenvalues --  -10.08718 -10.07946  -8.03054  -5.99336  -5.99307
  Beta  occ. eigenvalues --   -5.99117  -1.02478  -1.02144  -0.91568  -0.83339
  Beta  occ. eigenvalues --   -0.72847  -0.68388  -0.66303  -0.64041  -0.56415
  Beta  occ. eigenvalues --   -0.51775  -0.49352  -0.47746  -0.44297  -0.42861
  Beta  occ. eigenvalues --   -0.40239  -0.39041  -0.37074  -0.36412  -0.35765
  Beta  occ. eigenvalues --   -0.34223  -0.33868  -0.33432  -0.32761  -0.30935
  Beta  occ. eigenvalues --   -0.30064  -0.27164  -0.26628  -0.25819  -0.23238
  Beta  occ. eigenvalues --   -0.21749  -0.21544  -0.19180  -0.17509  -0.14153
  Beta virt. eigenvalues --    0.06731   0.07288   0.07888   0.08505   0.09425
  Beta virt. eigenvalues --    0.09760   0.10008   0.11123   0.11455   0.12067
  Beta virt. eigenvalues --    0.12284   0.13138   0.13699   0.13907   0.14565

 Mulliken charges and spin densities:
               1          2
     1  C    1.277458  -1.767414
     2  S    0.114722  -0.058723
     3  O   -0.246342   0.038193
     4  O   -0.190911   0.046219
     5  N   -0.361212   0.204126
     6  C    0.727668  -1.370176
     7  C   -0.132315  -0.392179
     8  C    0.857436  -0.746088
     9  C   -1.301935   1.017263
    10  O   -0.014605   0.009663
    11  C    1.347798  -1.754185
    12  C   -0.184057   0.503494
    13  H   -0.215799   0.419014
    14  H   -0.590620   0.807408
    15  H   -0.491930   0.711000
    16  H    0.182812   0.100374
    17  H   -0.405631   0.602491
    18  H    0.085923   0.121003
    19  H   -0.260838   0.444611
    20  H    0.161484   0.050808
    21  H    0.180570   0.098492
    22  H   -0.388390   0.562239
    23  H   -1.151287   1.352368
 Sum of Mulliken charges =  -1.00000   1.00000

 Dipole moment (field-independent basis, Debye):
    X=              0.6883    Y=             -1.8268    Z=              3.4529  Tot=              3.9665
 Quadrupole moment (field-independent basis, Debye-Ang):
   XX=           -157.0343   YY=           -120.2991   ZZ=           -115.3263
   XY=            -11.0381   XZ=             -1.4088   YZ=              2.5658

 Summary of Natural Population Analysis:

                                       Natural Population
                Natural  -----------------------------------------------
    Atom  No    Charge         Core      Valence    Rydberg      Total
 -----------------------------------------------------------------------
      C    1   -0.38445      0.99961     2.37474    0.01009     3.38445
      S    2    1.08802      4.99933     1.81378    0.09887     6.91198
      O    3   -0.46572      0.99991     3.46009    0.00572     4.46572
      O    4   -0.47042      0.99991     3.46455    0.00597     4.47042
      N    5   -0.43737      0.99976     2.92347    0.01414     3.93737
      C    6   -0.08678      0.99961     2.07465    0.01253     3.08678
      C    7   -0.21102      0.99959     2.20138    0.01005     3.21102
      C    8   -0.06997      0.99952     2.05786    0.01259     3.06997
      C    9    0.05334      0.99942     1.93397    0.01326     2.94666
      O   10   -0.23247      0.99987     3.22483    0.00777     4.23247
      C   11    0.06117      0.99952     1.92438    0.01493     2.93883
      C   12   -0.14609      0.99952     2.13628    0.01029     3.14609
      H   13    0.11614      0.00000     0.38262    0.00124     0.38386
      H   14    0.11953      0.00000     0.37762    0.00285     0.38047
      H   15    0.11990      0.00000     0.37779    0.00231     0.38010
      H   16    0.19898      0.00000     0.29813    0.00289     0.30102
      H   17    0.10211      0.00000     0.39606    0.00184     0.39789
      H   18    0.10867      0.00000     0.39003    0.00130     0.39133
      H   19    0.10785      0.00000     0.39097    0.00118     0.39215
      H   20    0.11011      0.00000     0.38860    0.00128     0.38989
      H   21    0.10893      0.00000     0.38973    0.00134     0.39107
      H   22    0.09584      0.00000     0.40295    0.00121     0.40416
      H   23    0.11369      0.00000     0.38308    0.00323     0.38631
 =======================================================================
   * Total *   -0.00000     15.99558    33.76756    0.23687    50.00000

 Normal termination of Gaussian 16 at Wed Dec  9 18:20:33 2020.
