 Gaussian 16, Revision A.03,

 -----------------------------------------------------------
 # opt freq B3LYP/6-31G(d) empiricaldispersion=gd3bj scf=xqc
 -----------------------------------------------------------

 --------------------------------
 CID_152136184_JID_10312_neutraal
 --------------------------------
 Symbolic Z-matrix:
 Charge =  0 Multiplicity = 1

 SCF Done:  E(RB3LYP) =  -1167.81442892     A.U. after   15 cycles
 SCF Done:  E(RB3LYP) =  -1167.81937936     A.U. after   14 cycles
 SCF Done:  E(RB3LYP) =  -1167.82142508     A.U. after   16 cycles
 SCF Done:  E(RB3LYP) =  -1167.82225176     A.U. after   13 cycles
 SCF Done:  E(RB3LYP) =  -1167.82246988     A.U. after   12 cycles
 SCF Done:  E(RB3LYP) =  -1167.82253679     A.U. after   12 cycles
 SCF Done:  E(RB3LYP) =  -1167.82255428     A.U. after   11 cycles
 SCF Done:  E(RB3LYP) =  -1167.82256213     A.U. after   10 cycles
 SCF Done:  E(RB3LYP) =  -1167.82256339     A.U. after    8 cycles
 SCF Done:  E(RB3LYP) =  -1167.82256351     A.U. after    8 cycles
 Optimization completed.
    -- Stationary point found.
 Normal termination of Gaussian 16 at Sun Dec 13 20:40:42 2020.

 --------------------------------------------------------------------
 #N Geom=AllCheck Guess=TCheck SCRF=Check GenChk RB3LYP/6-31G(d) Freq
 --------------------------------------------------------------------

 Structure from the checkpoint file:  "JID_10312.chk"
 --------------------------------
 CID_152136184_JID_10312_neutraal
 --------------------------------
 Charge =  0 Multiplicity = 1

 SCF Done:  E(RB3LYP) =  -1167.82256351     A.U. after    1 cycles

  Exact polarizability: 315.501   2.911 219.777  16.467   3.225 114.726
 Approx polarizability: 446.382   2.539 366.914  39.287   4.062 198.360

                      1                      2                      3
                      A                      A                      A
 Frequencies --     41.8724                46.1915                52.6384
 Red. masses --      4.4609                 3.8849                 5.5612
 Frc consts  --      0.0046                 0.0049                 0.0091
 IR Inten    --      0.4928                 0.0804                 0.3470

                      4                      5                      6
                      A                      A                      A
 Frequencies --     64.5776                77.9117                94.2122
 Red. masses --      5.1109                 7.4346                 5.1487
 Frc consts  --      0.0126                 0.0266                 0.0269
 IR Inten    --      0.1998                 2.7546                 1.4013

                      7                      8                      9
                      A                      A                      A
 Frequencies --    116.9597               166.1029               186.0745
 Red. masses --      4.6908                 5.2195                 5.6677
 Frc consts  --      0.0378                 0.0848                 0.1156
 IR Inten    --      0.7750                 1.0314                 0.2047

                     10                     11                     12
                      A                      A                      A
 Frequencies --    240.5865               251.8423               292.1648
 Red. masses --      7.0413                 4.8814                 6.4178
 Frc consts  --      0.2401                 0.1824                 0.3228
 IR Inten    --      0.4202                 1.0588                 2.2623

                     13                     14                     15
                      A                      A                      A
 Frequencies --    301.1000               343.7956               376.0565
 Red. masses --      4.7615                 5.6983                 2.5515
 Frc consts  --      0.2543                 0.3968                 0.2126
 IR Inten    --      0.8671                 5.3715                31.8157

                     16                     17                     18
                      A                      A                      A
 Frequencies --    419.1259               419.8063               425.9351
 Red. masses --      3.0407                 3.0045                 1.6866
 Frc consts  --      0.3147                 0.3120                 0.1803
 IR Inten    --      0.1319                 1.4590                96.2665

                     19                     20                     21
                      A                      A                      A
 Frequencies --    433.6768               492.7441               501.2878
 Red. masses --      3.7552                 4.1584                 4.6476
 Frc consts  --      0.4161                 0.5949                 0.6881
 IR Inten    --      5.7655                 2.9774                 1.9490

                     22                     23                     24
                      A                      A                      A
 Frequencies --    517.8994               574.9246               625.8456
 Red. masses --      4.7121                 3.6951                 4.9928
 Frc consts  --      0.7447                 0.7196                 1.1522
 IR Inten    --      3.0440                12.1087                 1.5770

                     25                     26                     27
                      A                      A                      A
 Frequencies --    634.7088               638.3246               647.2016
 Red. masses --      6.4907                 5.7896                 5.9840
 Frc consts  --      1.5406                 1.3899                 1.4768
 IR Inten    --      1.3873                 2.0438                 5.5752

                     28                     29                     30
                      A                      A                      A
 Frequencies --    670.8696               714.0998               716.9585
 Red. masses --      6.8040                 1.8669                 2.0306
 Frc consts  --      1.8042                 0.5609                 0.6150
 IR Inten    --      3.0922                22.3867                43.4146

                     31                     32                     33
                      A                      A                      A
 Frequencies --    729.0406               740.3837               752.0778
 Red. masses --      5.0411                 3.8095                12.6773
 Frc consts  --      1.5786                 1.2304                 4.2248
 IR Inten    --      2.3089                 2.1173                85.5123

                     34                     35                     36
                      A                      A                      A
 Frequencies --    777.9474               781.2658               843.5079
 Red. masses --      1.8806                 2.0185                 5.5222
 Frc consts  --      0.6706                 0.7259                 2.3149
 IR Inten    --     36.7407                20.9620                 1.5706

                     37                     38                     39
                      A                      A                      A
 Frequencies --    854.0000               859.8714               864.4166
 Red. masses --      1.3960                 1.2476                 1.2461
 Frc consts  --      0.5998                 0.5435                 0.5486
 IR Inten    --     15.1762                 0.3101                 0.9802

                     40                     41                     42
                      A                      A                      A
 Frequencies --    917.4581               930.9273               939.3334
 Red. masses --      1.3442                 1.4078                 1.4567
 Frc consts  --      0.6666                 0.7188                 0.7573
 IR Inten    --      7.5208                 2.0014                 0.4728

                     43                     44                     45
                      A                      A                      A
 Frequencies --    968.7706               973.1473               974.8538
 Red. masses --      1.3433                 1.3420                 1.2873
 Frc consts  --      0.7428                 0.7488                 0.7208
 IR Inten    --      0.4515                 1.4657                 0.4387

                     46                     47                     48
                      A                      A                      A
 Frequencies --    994.8596               997.8840              1020.7465
 Red. masses --      1.2459                 1.2457                 6.0984
 Frc consts  --      0.7265                 0.7309                 3.7437
 IR Inten    --      0.0928                 0.3569                 0.9015

                     49                     50                     51
                      A                      A                      A
 Frequencies --   1021.0997              1032.0039              1056.4047
 Red. masses --      6.0709                 7.4199                 3.2650
 Frc consts  --      3.7294                 4.6560                 2.1468
 IR Inten    --      1.4812                 5.2696                 1.4375

                     52                     53                     54
                      A                      A                      A
 Frequencies --   1064.2577              1075.3219              1110.5643
 Red. masses --      2.5510                 2.1240                 2.2488
 Frc consts  --      1.7024                 1.4471                 1.6341
 IR Inten    --     11.2958                 4.0404                 8.7168

                     55                     56                     57
                      A                      A                      A
 Frequencies --   1114.2172              1116.2721              1186.7071
 Red. masses --      1.6037                 1.5905                 1.4536
 Frc consts  --      1.1730                 1.1676                 1.2061
 IR Inten    --      2.8576                 2.5399                 1.0119

                     58                     59                     60
                      A                      A                      A
 Frequencies --   1194.5644              1195.1141              1217.3473
 Red. masses --      1.0978                 1.0964                 1.1134
 Frc consts  --      0.9230                 0.9227                 0.9721
 IR Inten    --      0.0160                 0.0477                22.5332

                     61                     62                     63
                      A                      A                      A
 Frequencies --   1217.8301              1219.5296              1273.7503
 Red. masses --      1.1117                 1.1419                 2.4945
 Frc consts  --      0.9714                 1.0006                 2.3845
 IR Inten    --     17.4674                 4.7116                 0.5527

                     64                     65                     66
                      A                      A                      A
 Frequencies --   1290.5504              1315.9609              1334.2596
 Red. masses --      1.5852                 3.4116                 2.8753
 Frc consts  --      1.5556                 3.4809                 3.0159
 IR Inten    --      5.8714                 3.8969                 2.4984

                     67                     68                     69
                      A                      A                      A
 Frequencies --   1347.3996              1353.4350              1369.1151
 Red. masses --      4.7307                 2.7442                 1.8676
 Frc consts  --      5.0602                 2.9617                 2.0626
 IR Inten    --      0.3902                 0.8415                 0.3601

                     70                     71                     72
                      A                      A                      A
 Frequencies --   1372.3737              1435.5771              1490.6537
 Red. masses --      1.8530                 3.2124                 2.2552
 Frc consts  --      2.0563                 3.9006                 2.9526
 IR Inten    --      0.3940                10.6209                18.0295

                     73                     74                     75
                      A                      A                      A
 Frequencies --   1498.8181              1514.5962              1549.4197
 Red. masses --      2.3900                 2.4221                 2.3768
 Frc consts  --      3.1633                 3.2736                 3.3619
 IR Inten    --      0.4145                60.6893                 5.3582

                     76                     77                     78
                      A                      A                      A
 Frequencies --   1551.7964              1604.2721              1636.5561
 Red. masses --      2.4430                 6.1116                 5.2512
 Frc consts  --      3.4662                 9.2675                 8.2865
 IR Inten    --      4.5358                 3.4081                 2.7498

                     79                     80                     81
                      A                      A                      A
 Frequencies --   1640.9297              1654.1131              1664.7325
 Red. masses --      5.7424                 5.7274                 5.5642
 Frc consts  --      9.1100                 9.2329                 9.0853
 IR Inten    --      1.7165                 4.3025                 9.6257

                     82                     83                     84
                      A                      A                      A
 Frequencies --   1666.1869              3181.9340              3184.0550
 Red. masses --      5.5925                 1.0846                 1.0849
 Frc consts  --      9.1475                 6.4703                 6.4802
 IR Inten    --      6.5749                 6.2618                 3.0702

                     85                     86                     87
                      A                      A                      A
 Frequencies --   3188.0326              3190.1705              3196.0514
 Red. masses --      1.0874                 1.0874                 1.0900
 Frc consts  --      6.5113                 6.5204                 6.5600
 IR Inten    --      3.4131                 1.5737                15.0952

                     88                     89                     90
                      A                      A                      A
 Frequencies --   3197.5187              3199.0417              3201.4660
 Red. masses --      1.0900                 1.0907                 1.0901
 Frc consts  --      6.5660                 6.5767                 6.5829
 IR Inten    --     11.2300                12.7340                 5.7519

                     91                     92                     93
                      A                      A                      A
 Frequencies --   3205.1245              3205.7526              3212.9179
 Red. masses --      1.0936                 1.0935                 1.0979
 Frc consts  --      6.6192                 6.6212                 6.6774
 IR Inten    --     43.6582                20.2081                25.4419

                     94                     95                     96
                      A                      A                      A
 Frequencies --   3213.9389              3226.9053              3691.8666
 Red. masses --      1.0981                 1.0920                 1.0679
 Frc consts  --      6.6832                 6.6995                 8.5755
 IR Inten    --     20.5487                 4.0014                45.4499

 - Thermochemistry -
 -------------------
 Temperature   298.150 Kelvin.  Pressure   1.00000 Atm.
 Atom     1 has atomic number  6 and mass  12.00000

 Molecular mass:   278.07654 amu.
 Principal axes and moments of inertia in atomic units:
                           1         2         3
     Eigenvalues --  3661.80736********************
           X            0.99995   0.01036   0.00110
           Y           -0.01037   0.99994   0.00391
           Z           -0.00106  -0.00392   0.99999
 This molecule is an asymmetric top.
 Rotational symmetry number  1.
 Warning -- assumption of classical behavior for rotation
           may cause significant error
 Rotational temperatures (Kelvin)      0.02365     0.00865     0.00664
 Rotational constants (GHZ):           0.49286     0.18021     0.13835
 Zero-point vibrational energy     703921.5 (Joules/Mol)
                                  168.24129 (Kcal/Mol)
 Warning -- explicit consideration of  23 degrees of freedom as
           vibrations may cause significant error
 Vibrational temperatures:     60.24    66.46    75.73    92.91   112.10
          (Kelvin)            135.55   168.28   238.99   267.72   346.15
                              362.34   420.36   433.22   494.65   541.06
                              603.03   604.01   612.83   623.96   708.95
                              721.24   745.14   827.19   900.45   913.20
                              918.41   931.18   965.23  1027.43  1031.54
                             1048.93  1065.25  1082.07  1119.29  1124.07
                             1213.62  1228.72  1237.16  1243.70  1320.02
                             1339.40  1351.49  1393.84  1400.14  1402.60
                             1431.38  1435.73  1468.63  1469.13  1484.82
                             1519.93  1531.23  1547.15  1597.85  1603.11
                             1606.07  1707.41  1718.71  1719.50  1751.49
                             1752.19  1754.63  1832.64  1856.81  1893.37
                             1919.70  1938.61  1947.29  1969.85  1974.54
                             2065.48  2144.72  2156.46  2179.17  2229.27
                             2232.69  2308.19  2354.64  2360.93  2379.90
                             2395.18  2397.27  4578.09  4581.15  4586.87
                             4589.94  4598.41  4600.52  4602.71  4606.20
                             4611.46  4612.36  4622.67  4624.14  4642.80
                             5311.77

 Zero-point correction=                           0.268110 (Hartree/Particle)
 Thermal correction to Energy=                    0.284655
 Thermal correction to Enthalpy=                  0.285599
 Thermal correction to Gibbs Free Energy=         0.222450
 Sum of electronic and zero-point Energies=          -1167.554454
 Sum of electronic and thermal Energies=             -1167.537909
 Sum of electronic and thermal Enthalpies=           -1167.536964
 Sum of electronic and thermal Free Energies=        -1167.600113

                     E (Thermal)             CV                S
                      KCal/Mol        Cal/Mol-Kelvin    Cal/Mol-Kelvin
 Total                  178.624             65.300            132.908
 Electronic               0.000              0.000              0.000
 Translational            0.889              2.981             42.767
 Rotational               0.889              2.981             34.525
 Vibrational            176.846             59.338             55.617
 Vibration     1          0.594              1.980              5.168
 Vibration     2          0.595              1.979              4.974
 Vibration     3          0.596              1.977              4.716
 Vibration     4          0.597              1.971              4.312
 Vibration     5          0.599              1.964              3.943
 Vibration     6          0.603              1.953              3.571
 Vibration     7          0.608              1.935              3.150
 Vibration     8          0.624              1.884              2.479
 Vibration     9          0.632              1.859              2.267
 Vibration    10          0.658              1.778              1.799
 Vibration    11          0.664              1.760              1.718
 Vibration    12          0.688              1.688              1.461
 Vibration    13          0.693              1.672              1.411
 Vibration    14          0.723              1.588              1.194
 Vibration    15          0.747              1.521              1.055
 Vibration    16          0.782              1.429              0.895
 Vibration    17          0.782              1.427              0.893
 Vibration    18          0.788              1.414              0.872
 Vibration    19          0.794              1.397              0.847
 Vibration    20          0.848              1.266              0.677
 Vibration    21          0.857              1.247              0.655
 Vibration    22          0.873              1.210              0.615
 Vibration    23          0.931              1.085              0.495

 Optimization completed.
    -- Stationary point found.
 Normal termination of Gaussian 16 at Sun Dec 13 20:56:47 2020.

 ----------------------------------------------------------------------
 # B3LYP/6-311++G(d,p) empiricaldispersion=gd3bj scf=xqc pop=npa geom=c
 heck
 ----------------------------------------------------------------------

 ----------------------------------------
 CID_152136184_JID_10312_Energie_neutraal
 ----------------------------------------
 Structure from the checkpoint file:  "JID_10312.chk"
 Charge =  0 Multiplicity = 1

 SCF Done:  E(RB3LYP) =  -1168.04986616     A.U. after   17 cycles
 Normal termination of Gaussian 16 at Sun Dec 13 21:03:42 2020.

 ----------------------------------------------------------------------
 # B3LYP/6-311++G(d,p) empiricaldispersion=gd3bj scf=xqc pop=npa geom=c
 heck
 ----------------------------------------------------------------------

 --------------------------------------
 CID_152136184_JID_10312_Energie_kation
 --------------------------------------
 Structure from the checkpoint file:  "JID_10312.chk"
 Charge =  1 Multiplicity = 2

 SCF Done:  E(UB3LYP) =  -1167.77894749     A.U. after   28 cycles
 Normal termination of Gaussian 16 at Sun Dec 13 21:19:30 2020.
 Gaussian 16:  ES64L-G16RevA.03 25-Dec-2016

 ----------------------------------------------------------------------
 # B3LYP/6-311++G(d,p) empiricaldispersion=gd3bj scf=xqc pop=npa geom=c
 heck
 ----------------------------------------------------------------------

 -------------------------------------
 CID_152136184_JID_10312_Energie_anion
 -------------------------------------
 Structure from the checkpoint file:  "JID_10312.chk"
 Charge = -1 Multiplicity = 2

                         Standard orientation:
 ---------------------------------------------------------------------
 Center     Atomic      Atomic             Coordinates (Angstroms)
 Number     Number       Type             X           Y           Z
 ---------------------------------------------------------------------
      1          6           0        5.629785   -0.984541   -0.014356
      2          6           0        4.638889   -1.703993   -0.684070
      3          6           0        3.327304   -1.234950   -0.710282
      4          6           0        2.976664   -0.038195   -0.064740
      5          6           0        3.983600    0.674594    0.605979
      6          6           0        5.295988    0.207721    0.629910
      7          6           0        1.582698    0.459895   -0.089027
      8          6           0        0.499212   -0.425775   -0.033444
      9          6           0       -0.829138    0.011290   -0.054861
     10          6           0       -1.079556    1.397288   -0.126507
     11          6           0       -0.009996    2.295483   -0.197761
     12          6           0        1.300257    1.831638   -0.175424
     13         16           0       -2.764507    2.002137   -0.073072
     14          8           0       -2.505420    3.638319    0.285260
     15          6           0       -1.931392   -0.979815    0.018019
     16          6           0       -1.934459   -1.965786    1.016525
     17          6           0       -2.964156   -2.901133    1.088655
     18          6           0       -4.009668   -2.867645    0.163316
     19          6           0       -4.013975   -1.897186   -0.838284
     20          6           0       -2.980517   -0.963564   -0.914030
     21          1           0        6.652738   -1.349366    0.004900
     22          1           0        4.889347   -2.628565   -1.196883
     23          1           0        2.569199   -1.785809   -1.259116
     24          1           0        3.727227    1.588321    1.134109
     25          1           0        6.057713    0.771726    1.161187
     26          1           0        0.685121   -1.492954    0.042001
     27          1           0       -0.215908    3.357611   -0.265874
     28          1           0        2.116570    2.543168   -0.256821
     29          1           0       -2.408358    3.697379    1.252498
     30          1           0       -1.131950   -1.979547    1.748327
     31          1           0       -2.955065   -3.652922    1.872933
     32          1           0       -4.813983   -3.595311    0.222230
     33          1           0       -4.816486   -1.870890   -1.569874
     34          1           0       -2.969940   -0.235563   -1.720251
 ---------------------------------------------------------------------

 SCF Done:  E(UB3LYP) =  -1168.05667646     A.U. after   29 cycles

 The electronic state is 2-A.
 Alpha  occ. eigenvalues --  -88.75324 -19.02312 -10.07409 -10.07376 -10.07163
 Alpha  occ. eigenvalues --  -10.07129 -10.07103 -10.06902 -10.06754 -10.06689
 Alpha  occ. eigenvalues --  -10.06512 -10.06467 -10.06411 -10.06407 -10.06389
 Alpha  occ. eigenvalues --  -10.06064 -10.05548 -10.05479 -10.05068 -10.04967
 Alpha  occ. eigenvalues --   -7.83521  -5.80164  -5.79501  -5.78782  -0.90941
 Alpha  occ. eigenvalues --   -0.76253  -0.75289  -0.73424  -0.67867  -0.65823
 Alpha  occ. eigenvalues --   -0.64237  -0.64150  -0.62649  -0.61111  -0.56709
 Alpha  occ. eigenvalues --   -0.51842  -0.50526  -0.49880  -0.49820  -0.47206
 Alpha  occ. eigenvalues --   -0.45584  -0.42544  -0.40471  -0.39051  -0.37163
 Alpha  occ. eigenvalues --   -0.36148  -0.34998  -0.34692  -0.34196  -0.32748
 Alpha  occ. eigenvalues --   -0.32268  -0.31974  -0.31705  -0.30711  -0.30393
 Alpha  occ. eigenvalues --   -0.27736  -0.26862  -0.26596  -0.25888  -0.25561
 Alpha  occ. eigenvalues --   -0.24793  -0.24336  -0.23624  -0.22717  -0.22132
 Alpha  occ. eigenvalues --   -0.18254  -0.17725  -0.15851  -0.15363  -0.15143
 Alpha  occ. eigenvalues --   -0.13878  -0.12502  -0.08665   0.03764
 Alpha virt. eigenvalues --    0.06757   0.06972   0.07333   0.07724   0.08460
 Alpha virt. eigenvalues --    0.08621   0.08808   0.09031   0.09439   0.10225
 Alpha virt. eigenvalues --    0.10816   0.11012   0.11556   0.11994   0.12049

  Beta  occ. eigenvalues --  -88.75257 -19.02112 -10.07404 -10.07201 -10.07181
  Beta  occ. eigenvalues --  -10.07143 -10.07120 -10.06817 -10.06710 -10.06689
  Beta  occ. eigenvalues --  -10.06418 -10.06361 -10.06357 -10.06355 -10.06327
  Beta  occ. eigenvalues --  -10.05936 -10.05541 -10.05391 -10.05080 -10.04861
  Beta  occ. eigenvalues --   -7.83457  -5.79995  -5.79459  -5.78710  -0.90432
  Beta  occ. eigenvalues --   -0.76081  -0.75143  -0.73250  -0.67600  -0.65628
  Beta  occ. eigenvalues --   -0.64129  -0.63997  -0.62370  -0.60943  -0.56392
  Beta  occ. eigenvalues --   -0.51713  -0.50333  -0.49750  -0.49655  -0.47098
  Beta  occ. eigenvalues --   -0.45410  -0.42476  -0.40373  -0.38761  -0.37008
  Beta  occ. eigenvalues --   -0.36034  -0.34907  -0.34595  -0.34080  -0.32621
  Beta  occ. eigenvalues --   -0.32198  -0.31935  -0.31634  -0.30637  -0.30281
  Beta  occ. eigenvalues --   -0.27334  -0.26533  -0.26282  -0.25733  -0.25360
  Beta  occ. eigenvalues --   -0.24518  -0.24275  -0.23433  -0.22588  -0.22023
  Beta  occ. eigenvalues --   -0.17567  -0.17455  -0.15441  -0.15066  -0.14672
  Beta  occ. eigenvalues --   -0.13297  -0.12117  -0.08056
  Beta virt. eigenvalues --    0.06897   0.07243   0.07319   0.07793   0.08148
  Beta virt. eigenvalues --    0.08500   0.08877   0.08961   0.09190   0.09604
  Beta virt. eigenvalues --    0.10176   0.10819   0.11285   0.11526   0.11969

 Mulliken charges and spin densities:
               1          2
     1  C   -0.487361   0.113925
     2  C   -0.341105  -0.010505
     3  C   -0.789898   0.071758
     4  C    1.608761   0.104671
     5  C   -0.613107   0.060192
     6  C   -0.201312  -0.029663
     7  C    0.891590  -0.049486
     8  C   -0.896432  -0.070108
     9  C    0.487815  -0.007269
    10  C   -0.608037   0.027487
    11  C   -0.215257   0.151617
    12  C   -0.423333   0.125693
    13  S   -0.032956  -0.095505
    14  O   -0.189626  -0.101980
    15  C    1.251845   0.046628
    16  C   -0.323044   0.103234
    17  C   -0.403343  -0.007229
    18  C   -0.359696   0.055145
    19  C   -0.404258   0.076088
    20  C   -0.518882  -0.071629
    21  H    0.117170  -0.008079
    22  H    0.136160   0.001601
    23  H    0.137616   0.003681
    24  H    0.130140  -0.002370
    25  H    0.138012   0.000889
    26  H    0.080454  -0.003672
    27  H    0.073382   0.146298
    28  H    0.098992   0.018397
    29  H   -0.075330   0.354826
    30  H    0.161583  -0.004555
    31  H    0.133662   0.001382
    32  H    0.119080  -0.004025
    33  H    0.144424  -0.006237
    34  H    0.172292   0.008801
 Sum of Mulliken charges =  -1.00000   1.00000

 Dipole moment (field-independent basis, Debye):
    X=              2.1892    Y=             -4.0689    Z=              0.3518  Tot=              4.6338
 Quadrupole moment (field-independent basis, Debye-Ang):
   XX=           -181.7171   YY=           -159.9417   ZZ=           -135.4351
   XY=             13.8849   XZ=              2.6856   YZ=              1.6467

 Summary of Natural Population Analysis:

                                       Natural Population
                Natural  -----------------------------------------------
    Atom  No    Charge         Core      Valence    Rydberg      Total
 -----------------------------------------------------------------------
      C    1   -0.09064      0.99957     2.08150    0.00956     3.09064
      C    2   -0.10884      0.99958     2.10013    0.00913     3.10884
      C    3   -0.08894      0.99953     2.08173    0.00768     3.08894
      C    4   -0.00462      0.99950     1.99615    0.00898     3.00462
      C    5   -0.08824      0.99953     2.08111    0.00759     3.08824
      C    6   -0.10969      0.99957     2.10102    0.00909     3.10969
      C    7   -0.02479      0.99949     2.01510    0.01020     3.02479
      C    8   -0.08364      0.99949     2.07663    0.00751     3.08364
      C    9   -0.03790      0.99943     2.02702    0.01145     3.03790
      C   10   -0.05815      0.99936     2.04655    0.01224     3.05815
      C   11   -0.12240      0.99950     2.11143    0.01147     3.12240
      C   12   -0.06981      0.99953     2.06318    0.00710     3.06981
      S   13    0.28421      4.99951     2.68999    0.02629     7.71579
      O   14   -0.41101      0.99992     3.40322    0.00787     4.41101
      C   15   -0.01866      0.99949     2.00769    0.01148     3.01866
      C   16   -0.07443      0.99952     2.06714    0.00776     3.07443
      C   17   -0.10738      0.99957     2.09892    0.00889     3.10738
      C   18   -0.09888      0.99957     2.09023    0.00908     3.09888
      C   19   -0.08764      0.99957     2.07920    0.00887     3.08764
      C   20   -0.10045      0.99952     2.09293    0.00799     3.10045
      H   21    0.09194      0.00000     0.40708    0.00098     0.40806
      H   22    0.09407      0.00000     0.40494    0.00099     0.40593
      H   23    0.09921      0.00000     0.39957    0.00121     0.40079
      H   24    0.09863      0.00000     0.40012    0.00125     0.40137
      H   25    0.09384      0.00000     0.40517    0.00099     0.40616
      H   26    0.09939      0.00000     0.39944    0.00117     0.40061
      H   27    0.10980      0.00000     0.38901    0.00119     0.39020
      H   28    0.09459      0.00000     0.40396    0.00145     0.40541
      H   29    0.23354      0.00000     0.26020    0.00626     0.26646
      H   30    0.09949      0.00000     0.39934    0.00117     0.40051
      H   31    0.09436      0.00000     0.40468    0.00096     0.40564
      H   32    0.09296      0.00000     0.40607    0.00096     0.40704
      H   33    0.09416      0.00000     0.40489    0.00095     0.40584
      H   34    0.10591      0.00000     0.39264    0.00145     0.39409
 =======================================================================
   * Total *    0.00000     23.99078    48.78799    0.22124    73.00000

 Normal termination of Gaussian 16 at Sun Dec 13 21:35:30 2020.
