 Gaussian 16, Revision A.03,

 -----------------------------------------------------------
 # opt freq B3LYP/6-31G(d) empiricaldispersion=gd3bj scf=xqc
 -----------------------------------------------------------

 -------------------------------
 CID_116193806_JID_9354_neutraal
 -------------------------------
 Symbolic Z-matrix:
 Charge =  0 Multiplicity = 1

 SCF Done:  E(RB3LYP) =  -826.314700464     A.U. after   16 cycles
 SCF Done:  E(RB3LYP) =  -826.333038775     A.U. after   13 cycles
 SCF Done:  E(RB3LYP) =  -826.334817743     A.U. after   13 cycles
 SCF Done:  E(RB3LYP) =  -826.331113419     A.U. after   15 cycles
 SCF Done:  E(RB3LYP) =  -826.335265199     A.U. after   13 cycles
 SCF Done:  E(RB3LYP) =  -826.334289937     A.U. after   13 cycles
 SCF Done:  E(RB3LYP) =  -826.333571010     A.U. after   13 cycles
 SCF Done:  E(RB3LYP) =  -826.331903838     A.U. after   12 cycles
 SCF Done:  E(RB3LYP) =  -826.335410232     A.U. after   10 cycles
 SCF Done:  E(RB3LYP) =  -826.336135768     A.U. after   12 cycles
 SCF Done:  E(RB3LYP) =  -826.336332438     A.U. after    8 cycles
 SCF Done:  E(RB3LYP) =  -826.336332724     A.U. after    8 cycles
 SCF Done:  E(RB3LYP) =  -826.336332823     A.U. after    8 cycles
 SCF Done:  E(RB3LYP) =  -826.336332861     A.U. after    7 cycles
 SCF Done:  E(RB3LYP) =  -826.336332883     A.U. after    6 cycles
 Optimization completed.
    -- Stationary point found.
 Normal termination of Gaussian 16 at Mon Dec 14 13:43:54 2020.

 --------------------------------------------------------------------
 #N Geom=AllCheck Guess=TCheck SCRF=Check GenChk RB3LYP/6-31G(d) Freq
 --------------------------------------------------------------------

 Structure from the checkpoint file:  "JID_9354.chk"
 -------------------------------
 CID_116193806_JID_9354_neutraal
 -------------------------------
 Charge =  0 Multiplicity = 1

 SCF Done:  E(RB3LYP) =  -826.336332883     A.U. after    1 cycles

  Exact polarizability: 253.301   9.862 174.694   0.235 -14.949 121.091
 Approx polarizability: 375.413  19.120 249.191   9.255 -29.693 191.778

                      1                      2                      3
                      A                      A                      A
 Frequencies --      8.8941                13.5385                33.2278
 Red. masses --      5.0910                 4.8887                 3.9716
 Frc consts  --      0.0002                 0.0005                 0.0026
 IR Inten    --      1.1571                 1.0619                 0.0818

                      4                      5                      6
                      A                      A                      A
 Frequencies --     56.2415                62.5986                66.0930
 Red. masses --      3.8678                 3.8500                 4.7615
 Frc consts  --      0.0072                 0.0089                 0.0123
 IR Inten    --      1.2754                 1.0789                 0.1178

                      7                      8                      9
                      A                      A                      A
 Frequencies --    100.6207               114.9602               127.2958
 Red. masses --      3.5630                 3.3355                 1.1907
 Frc consts  --      0.0213                 0.0260                 0.0114
 IR Inten    --      2.6402                 0.2971                 0.1733

                     10                     11                     12
                      A                      A                      A
 Frequencies --    155.2139               178.9831               197.4198
 Red. masses --      3.1042                 3.7339                 3.3996
 Frc consts  --      0.0441                 0.0705                 0.0781
 IR Inten    --      0.0855                 0.5326                 1.9372

                     13                     14                     15
                      A                      A                      A
 Frequencies --    222.3305               232.2324               280.5925
 Red. masses --      2.4510                 1.3247                 2.7300
 Frc consts  --      0.0714                 0.0421                 0.1266
 IR Inten    --      2.1388                 1.5174                 1.0192

                     16                     17                     18
                      A                      A                      A
 Frequencies --    311.6576               325.6464               339.9632
 Red. masses --      4.3362                 3.3525                 2.6577
 Frc consts  --      0.2482                 0.2095                 0.1810
 IR Inten    --      4.9438                 3.4315                 0.9949

                     19                     20                     21
                      A                      A                      A
 Frequencies --    354.9131               368.6359               380.3152
 Red. masses --      3.5393                 2.3806                 3.7813
 Frc consts  --      0.2627                 0.1906                 0.3222
 IR Inten    --      0.6997                10.7248                 5.5553

                     22                     23                     24
                      A                      A                      A
 Frequencies --    397.8738               420.2574               430.0017
 Red. masses --      3.3811                 2.9154                 1.4551
 Frc consts  --      0.3154                 0.3034                 0.1585
 IR Inten    --      2.0981                 6.7399                80.0939

                     25                     26                     27
                      A                      A                      A
 Frequencies --    438.2035               470.4828               514.9888
 Red. masses --      3.8560                 3.8097                 3.9648
 Frc consts  --      0.4363                 0.4969                 0.6195
 IR Inten    --     10.6135                 9.8166                 6.2579

                     28                     29                     30
                      A                      A                      A
 Frequencies --    546.7882               566.7956               581.5202
 Red. masses --      3.9069                 3.7936                 2.9210
 Frc consts  --      0.6882                 0.7180                 0.5820
 IR Inten    --      3.8366                31.1574                 4.3113

                     31                     32                     33
                      A                      A                      A
 Frequencies --    607.7166               661.2086               676.5347
 Red. masses --      2.3317                 3.5419                 3.6850
 Frc consts  --      0.5074                 0.9124                 0.9937
 IR Inten    --     23.0111                11.9808                16.0371

                     34                     35                     36
                      A                      A                      A
 Frequencies --    731.5567               747.8670               789.7055
 Red. masses --      3.3244                 3.9286                 2.5537
 Frc consts  --      1.0482                 1.2946                 0.9383
 IR Inten    --     17.1019                 7.8799                 2.6372

                     37                     38                     39
                      A                      A                      A
 Frequencies --    794.7062               798.3737               841.5315
 Red. masses --      3.4061                 1.3538                 3.1825
 Frc consts  --      1.2674                 0.5084                 1.3279
 IR Inten    --     15.1369                 5.8333                 3.3709

                     40                     41                     42
                      A                      A                      A
 Frequencies --    844.6274               870.1916               882.4797
 Red. masses --      1.4016                 2.1635                 2.1032
 Frc consts  --      0.5891                 0.9652                 0.9650
 IR Inten    --     13.7753                 5.7027                 2.5257

                     43                     44                     45
                      A                      A                      A
 Frequencies --    921.5504               927.5707               948.2352
 Red. masses --      2.1184                 1.5374                 1.7994
 Frc consts  --      1.0600                 0.7794                 0.9533
 IR Inten    --      1.9351                19.7331                 6.1326

                     46                     47                     48
                      A                      A                      A
 Frequencies --    952.1200               964.5217              1027.0043
 Red. masses --      1.4831                 1.3069                 1.9653
 Frc consts  --      0.7922                 0.7163                 1.2213
 IR Inten    --      1.7534                 0.0124                 7.2696

                     49                     50                     51
                      A                      A                      A
 Frequencies --   1030.3603              1049.2586              1055.8936
 Red. masses --      1.7881                 2.3236                 1.2535
 Frc consts  --      1.1184                 1.5072                 0.8234
 IR Inten    --     11.0325                 2.8818                 5.8110

                     52                     53                     54
                      A                      A                      A
 Frequencies --   1074.3792              1075.2607              1083.8052
 Red. masses --      2.0051                 1.5246                 1.8726
 Frc consts  --      1.3636                 1.0385                 1.2960
 IR Inten    --     30.2672                 5.1854                 8.2971

                     55                     56                     57
                      A                      A                      A
 Frequencies --   1093.0012              1100.5751              1119.9339
 Red. masses --      1.4516                 3.1811                 2.8671
 Frc consts  --      1.0217                 2.2702                 2.1187
 IR Inten    --      1.4943                52.5861                13.9672

                     58                     59                     60
                      A                      A                      A
 Frequencies --   1144.2046              1187.9805              1206.5405
 Red. masses --      1.7967                 1.3277                 1.2951
 Frc consts  --      1.3859                 1.1040                 1.1108
 IR Inten    --      5.2887                 1.6572                 1.0044

                     61                     62                     63
                      A                      A                      A
 Frequencies --   1217.1717              1242.9197              1246.1869
 Red. masses --      1.1577                 2.5271                 1.2117
 Frc consts  --      1.0105                 2.3001                 1.1087
 IR Inten    --     15.4630                 0.7914                 3.7127

                     64                     65                     66
                      A                      A                      A
 Frequencies --   1285.4870              1322.0168              1324.9805
 Red. masses --      2.5900                 2.0042                 2.0544
 Frc consts  --      2.5217                 2.0638                 2.1250
 IR Inten    --     36.7553                 8.1574                21.3180

                     67                     68                     69
                      A                      A                      A
 Frequencies --   1334.9967              1346.1441              1366.7641
 Red. masses --      5.6108                 2.6130                 1.5634
 Frc consts  --      5.8916                 2.7898                 1.7207
 IR Inten    --     10.2602                13.4071                24.1875

                     70                     71                     72
                      A                      A                      A
 Frequencies --   1385.8320              1404.4617              1440.8042
 Red. masses --      4.3925                 1.2377                 2.3088
 Frc consts  --      4.9703                 1.4384                 2.8239
 IR Inten    --    227.4955                 7.2015                21.5839

                     73                     74                     75
                      A                      A                      A
 Frequencies --   1443.8951              1444.1048              1445.4855
 Red. masses --      1.2939                 1.3301                 1.4543
 Frc consts  --      1.5894                 1.6343                 1.7903
 IR Inten    --      7.2939                83.8038                12.9039

                     76                     77                     78
                      A                      A                      A
 Frequencies --   1458.7107              1487.1278              1493.3894
 Red. masses --      1.5767                 1.1042                 1.0978
 Frc consts  --      1.9766                 1.4388                 1.4426
 IR Inten    --     10.1210                 0.6190                 8.5192

                     79                     80                     81
                      A                      A                      A
 Frequencies --   1507.2791              1518.1554              1519.7344
 Red. masses --      1.0558                 1.0670                 1.1104
 Frc consts  --      1.4132                 1.4490                 1.5111
 IR Inten    --     11.5283                 1.1387                11.1788

                     82                     83                     84
                      A                      A                      A
 Frequencies --   1527.5827              1538.0651              1538.2660
 Red. masses --      1.2371                 1.1232                 1.1192
 Frc consts  --      1.7009                 1.5656                 1.5604
 IR Inten    --      8.4872                 1.4197                 0.8166

                     85                     86                     87
                      A                      A                      A
 Frequencies --   1545.1329              1613.0941              1665.1704
 Red. masses --      2.8447                 5.4943                 5.9707
 Frc consts  --      4.0015                 8.4233                 9.7542
 IR Inten    --     24.0200                 6.9791                 2.1469

                     88                     89                     90
                      A                      A                      A
 Frequencies --   1769.1733              2342.6518              3005.9338
 Red. masses --      8.5365                11.8952                 1.0714
 Frc consts  --     15.7423                38.4626                 5.7036
 IR Inten    --    330.6309                 0.6332                60.9814

                     91                     92                     93
                      A                      A                      A
 Frequencies --   3037.0324              3052.4195              3056.5302
 Red. masses --      1.0594                 1.0366                 1.0394
 Frc consts  --      5.7574                 5.6907                 5.7214
 IR Inten    --     33.4033                19.9738                26.0903

                     94                     95                     96
                      A                      A                      A
 Frequencies --   3076.5666              3112.5782              3117.6706
 Red. masses --      1.1017                 1.0948                 1.0970
 Frc consts  --      6.1439                 6.2492                 6.2823
 IR Inten    --     19.4970                55.4494                19.9584

                     97                     98                     99
                      A                      A                      A
 Frequencies --   3119.2648              3133.6423              3145.1392
 Red. masses --      1.1012                 1.1016                 1.1028
 Frc consts  --      6.3128                 6.3736                 6.4271
 IR Inten    --     17.2148                18.8545                10.0958

                    100                    101                    102
                      A                      A                      A
 Frequencies --   3149.6451              3157.8228              3187.8991
 Red. masses --      1.0530                 1.0575                 1.0886
 Frc consts  --      6.1546                 6.2129                 6.5182
 IR Inten    --     16.8203                 7.4818                16.4891

                    103                    104                    105
                      A                      A                      A
 Frequencies --   3215.2505              3228.8211              3238.4457
 Red. masses --      1.0938                 1.1190                 1.0947
 Frc consts  --      6.6622                 6.8734                 6.7644
 IR Inten    --     11.9629                 2.4972                 4.2498

                    106                    107                    108
                      A                      A                      A
 Frequencies --   3247.6755              3557.9348              3697.2697
 Red. masses --      1.1121                 1.0753                 1.0653
 Frc consts  --      6.9107                 8.0198                 8.5799
 IR Inten    --     12.8398                19.9128                35.0977

 - Thermochemistry -
 -------------------
 Temperature   298.150 Kelvin.  Pressure   1.00000 Atm.
 Atom     1 has atomic number  6 and mass  12.00000

 Molecular mass:   257.14158 amu.
 Principal axes and moments of inertia in atomic units:
                           1         2         3
     Eigenvalues --  3696.258797513.544089937.63845
           X            0.99989   0.00245  -0.01463
           Y           -0.00248   1.00000  -0.00171
           Z            0.01463   0.00174   0.99989
 This molecule is an asymmetric top.
 Rotational symmetry number  1.
 Warning -- assumption of classical behavior for rotation
           may cause significant error
 Rotational temperatures (Kelvin)      0.02343     0.01153     0.00872
 Rotational constants (GHZ):           0.48826     0.24020     0.18161
 Zero-point vibrational energy     836305.2 (Joules/Mol)
                                  199.88173 (Kcal/Mol)
 Warning -- explicit consideration of  31 degrees of freedom as
           vibrations may cause significant error
 Vibrational temperatures:     12.80    19.48    47.81    80.92    90.07
          (Kelvin)             95.09   144.77   165.40   183.15   223.32
                              257.52   284.04   319.88   334.13   403.71
                              448.41   468.53   489.13   510.64   530.38
                              547.19   572.45   604.66   618.68   630.48
                              676.92   740.95   786.71   815.49   836.68
                              874.37   951.33   973.38  1052.55  1076.01
                             1136.21  1143.40  1148.68  1210.78  1215.23
                             1252.01  1269.69  1325.91  1334.57  1364.30
                             1369.89  1387.73  1477.63  1482.46  1509.65
                             1519.20  1545.79  1547.06  1559.35  1572.58
                             1583.48  1611.34  1646.26  1709.24  1735.94
                             1751.24  1788.28  1792.99  1849.53  1902.09
                             1906.35  1920.76  1936.80  1966.47  1993.90
                             2020.71  2073.00  2077.44  2077.74  2079.73
                             2098.76  2139.65  2148.65  2168.64  2184.29
                             2186.56  2197.85  2212.93  2213.22  2223.10
                             2320.88  2395.81  2545.45  3370.55  4324.87
                             4369.61  4391.75  4397.67  4426.49  4478.31
                             4485.63  4487.93  4508.61  4525.15  4531.64
                             4543.40  4586.68  4626.03  4645.55  4659.40
                             4672.68  5119.07  5319.55

 Zero-point correction=                           0.318532 (Hartree/Particle)
 Thermal correction to Energy=                    0.338115
 Thermal correction to Enthalpy=                  0.339060
 Thermal correction to Gibbs Free Energy=         0.267083
 Sum of electronic and zero-point Energies=           -826.017801
 Sum of electronic and thermal Energies=              -825.998218
 Sum of electronic and thermal Enthalpies=            -825.997273
 Sum of electronic and thermal Free Energies=         -826.069250

                     E (Thermal)             CV                S
                      KCal/Mol        Cal/Mol-Kelvin    Cal/Mol-Kelvin
 Total                  212.171             72.839            151.488
 Electronic               0.000              0.000              0.000
 Translational            0.889              2.981             42.533
 Rotational               0.889              2.981             33.978
 Vibrational            210.393             66.877             74.977
 Vibration     1          0.593              1.987              8.244
 Vibration     2          0.593              1.986              7.409
 Vibration     3          0.594              1.983              5.627
 Vibration     4          0.596              1.975              4.585
 Vibration     5          0.597              1.972              4.374
 Vibration     6          0.597              1.970              4.266
 Vibration     7          0.604              1.949              3.442
 Vibration     8          0.608              1.937              3.183
 Vibration     9          0.611              1.926              2.987
 Vibration    10          0.620              1.897              2.607
 Vibration    11          0.629              1.868              2.339
 Vibration    12          0.637              1.843              2.157
 Vibration    13          0.648              1.807              1.940
 Vibration    14          0.653              1.792              1.862
 Vibration    15          0.680              1.710              1.530
 Vibration    16          0.700              1.651              1.354
 Vibration    17          0.710              1.624              1.282
 Vibration    18          0.720              1.596              1.212
 Vibration    19          0.731              1.565              1.144
 Vibration    20          0.741              1.537              1.085
 Vibration    21          0.750              1.512              1.038
 Vibration    22          0.764              1.475              0.970
 Vibration    23          0.783              1.426              0.891
 Vibration    24          0.791              1.405              0.859
 Vibration    25          0.798              1.387              0.832
 Vibration    26          0.828              1.316              0.736
 Vibration    27          0.870              1.217              0.622
 Vibration    28          0.902              1.147              0.551
 Vibration    29          0.923              1.103              0.510
 Vibration    30          0.938              1.071              0.483
 Vibration    31          0.967              1.015              0.437

                           ! Non-Optimized Parameters !
 Normal termination of Gaussian 16 at Mon Dec 14 14:03:56 2020.

 ----------------------------------------------------------------------
 # B3LYP/6-311++G(d,p) empiricaldispersion=gd3bj scf=xqc pop=npa geom=c
 heck
 ----------------------------------------------------------------------

 ---------------------------------------
 CID_116193806_JID_9354_Energie_neutraal
 ---------------------------------------
 Structure from the checkpoint file:  "JID_9354.chk"
 Charge =  0 Multiplicity = 1

 SCF Done:  E(RB3LYP) =  -826.574043343     A.U. after   17 cycles
 Normal termination of Gaussian 16 at Mon Dec 14 14:14:19 2020.

 ----------------------------------------------------------------------
 # B3LYP/6-311++G(d,p) empiricaldispersion=gd3bj scf=xqc pop=npa geom=c
 heck
 ----------------------------------------------------------------------

 -------------------------------------
 CID_116193806_JID_9354_Energie_kation
 -------------------------------------
 Structure from the checkpoint file:  "JID_9354.chk"
 Charge =  1 Multiplicity = 2

 SCF Done:  E(UB3LYP) =  -826.277306497     A.U. after   29 cycles
 Normal termination of Gaussian 16 at Mon Dec 14 14:39:45 2020.
 Gaussian 16:  ES64L-G16RevA.03 25-Dec-2016

 ----------------------------------------------------------------------
 # B3LYP/6-311++G(d,p) empiricaldispersion=gd3bj scf=xqc pop=npa geom=c
 heck
 ----------------------------------------------------------------------

 ------------------------------------
 CID_116193806_JID_9354_Energie_anion
 ------------------------------------
 Structure from the checkpoint file:  "JID_9354.chk"
 Charge = -1 Multiplicity = 2

                         Standard orientation:
 ---------------------------------------------------------------------
 Center     Atomic      Atomic             Coordinates (Angstroms)
 Number     Number       Type             X           Y           Z
 ---------------------------------------------------------------------
      1          6           0       -3.493323   -2.096603    0.328106
      2          6           0       -2.003872   -1.887128    0.222706
      3          6           0       -1.456939   -0.768572   -0.440368
      4          6           0       -0.076915   -0.611611   -0.536989
      5          6           0        0.805105   -1.540354    0.039191
      6          6           0        0.262868   -2.642013    0.719446
      7          6           0       -1.117045   -2.802089    0.800791
      8          6           0        2.214601   -1.335485   -0.049012
      9          6           0        3.412675   -1.158310   -0.122223
     10          6           0        4.826238   -0.795363   -0.202238
     11          6           0        4.973135    0.697496   -0.563944
     12          8           0        4.315451    1.537231    0.364725
     13          6           0       -2.365540    0.229404   -1.101933
     14          8           0       -3.227311   -0.115948   -1.902985
     15          7           0       -2.178386    1.560202   -0.797977
     16          6           0       -1.578713    2.110436    0.402672
     17          6           0       -0.129896    2.541470    0.343958
     18          6           0       -1.227263    3.574574    0.307071
     19          6           0       -2.139700    1.593756    1.715319
     20          1           0       -3.992618   -1.220786    0.759129
     21          1           0       -3.718444   -2.961793    0.958283
     22          1           0       -3.934178   -2.249307   -0.660675
     23          1           0        0.330539    0.236570   -1.072243
     24          1           0        0.928535   -3.364871    1.179871
     25          1           0       -1.521574   -3.661906    1.328151
     26          1           0        5.313490   -0.978475    0.764148
     27          1           0        5.346016   -1.409598   -0.950271
     28          1           0        6.030415    0.977762   -0.540895
     29          1           0        4.599826    0.855991   -1.587961
     30          1           0        3.396604    1.222136    0.415203
     31          1           0       -2.886013    2.135571   -1.243553
     32          1           0        0.465773    2.437811    1.246553
     33          1           0        0.410677    2.368104   -0.579930
     34          1           0       -1.406102    4.076764   -0.639766
     35          1           0       -1.402142    4.191173    1.183874
     36          1           0       -3.222787    1.757570    1.760527
     37          1           0       -1.946583    0.523392    1.834476
     38          1           0       -1.680350    2.114577    2.561669
 ---------------------------------------------------------------------

 SCF Done:  E(UB3LYP) =  -826.572399187     A.U. after   33 cycles
 SCF Done:  E(UB3LYP) =  -826.572399187     a.u. after    1 cycles

 The electronic state is 2-A.
 Alpha  occ. eigenvalues --  -19.02656 -18.96373 -14.22109 -10.14426 -10.12687
 Alpha  occ. eigenvalues --  -10.12607 -10.09378 -10.08422 -10.07926 -10.06933
 Alpha  occ. eigenvalues --  -10.05925 -10.05470 -10.05134 -10.04638 -10.04615
 Alpha  occ. eigenvalues --  -10.04601 -10.04571 -10.04444 -10.03615  -0.93026
 Alpha  occ. eigenvalues --   -0.91684  -0.82697  -0.74529  -0.73678  -0.69105
 Alpha  occ. eigenvalues --   -0.66438  -0.63148  -0.62215  -0.61420  -0.57180
 Alpha  occ. eigenvalues --   -0.53767  -0.52466  -0.51377  -0.49485  -0.47625
 Alpha  occ. eigenvalues --   -0.45188  -0.42017  -0.41460  -0.39871  -0.38368
 Alpha  occ. eigenvalues --   -0.37986  -0.35917  -0.35486  -0.34583  -0.33282
 Alpha  occ. eigenvalues --   -0.32197  -0.31766  -0.31160  -0.30644  -0.30347
 Alpha  occ. eigenvalues --   -0.29926  -0.29513  -0.28718  -0.27785  -0.27380
 Alpha  occ. eigenvalues --   -0.26996  -0.24861  -0.24394  -0.23210  -0.22825
 Alpha  occ. eigenvalues --   -0.21437  -0.19990  -0.18862  -0.17890  -0.15366
 Alpha  occ. eigenvalues --   -0.14668  -0.13929  -0.12858  -0.10685   0.04553
 Alpha virt. eigenvalues --    0.06441   0.06541   0.08106   0.08477   0.08818
 Alpha virt. eigenvalues --    0.09129   0.09419   0.09626   0.09826   0.10545
 Alpha virt. eigenvalues --    0.11226   0.11484   0.12370   0.12617   0.12974

  Beta  occ. eigenvalues --  -19.02650 -18.96235 -14.22090 -10.14322 -10.12686
  Beta  occ. eigenvalues --  -10.12589 -10.09385 -10.08406 -10.07913 -10.06927
  Beta  occ. eigenvalues --  -10.05818 -10.05513 -10.05130 -10.04727 -10.04640
  Beta  occ. eigenvalues --  -10.04492 -10.04327 -10.04252 -10.03287  -0.93013
  Beta  occ. eigenvalues --   -0.91439  -0.82619  -0.74430  -0.73371  -0.68951
  Beta  occ. eigenvalues --   -0.66086  -0.62825  -0.62198  -0.61258  -0.57026
  Beta  occ. eigenvalues --   -0.53710  -0.52302  -0.51202  -0.49347  -0.47368
  Beta  occ. eigenvalues --   -0.44975  -0.41965  -0.41436  -0.39746  -0.38315
  Beta  occ. eigenvalues --   -0.37902  -0.35821  -0.35275  -0.34323  -0.33083
  Beta  occ. eigenvalues --   -0.32112  -0.31674  -0.31058  -0.30584  -0.30253
  Beta  occ. eigenvalues --   -0.29778  -0.29296  -0.28544  -0.27754  -0.26963
  Beta  occ. eigenvalues --   -0.26915  -0.24470  -0.24107  -0.23009  -0.22697
  Beta  occ. eigenvalues --   -0.21267  -0.19931  -0.18830  -0.17243  -0.15278
  Beta  occ. eigenvalues --   -0.14399  -0.13502  -0.12260  -0.09405
  Beta virt. eigenvalues --    0.06515   0.06876   0.08113   0.08505   0.08834
  Beta virt. eigenvalues --    0.09077   0.09439   0.09703   0.09742   0.09847
  Beta virt. eigenvalues --    0.10507   0.11222   0.11393   0.12334   0.12611

 Mulliken charges and spin densities:
               1          2
     1  C   -0.497789  -0.045829
     2  C    0.265986   0.205926
     3  C    0.504724   0.095824
     4  C   -0.349609  -0.073720
     5  C    0.134028  -0.025404
     6  C   -0.646510   0.323767
     7  C   -0.357203  -0.066765
     8  C    0.243281  -0.000354
     9  C    0.424091  -0.255368
    10  C   -0.875878   0.503724
    11  C    0.278791  -0.585480
    12  O   -0.279310   0.023452
    13  C   -0.313445   0.011989
    14  O   -0.327892   0.044249
    15  N   -0.182348   0.013998
    16  C    0.022361   0.266870
    17  C   -0.313342  -0.038830
    18  C   -0.043369  -0.286291
    19  C   -0.470933  -0.285201
    20  H    0.119813   0.024366
    21  H    0.107440   0.000349
    22  H    0.191146   0.016170
    23  H    0.094971   0.041221
    24  H    0.104506  -0.018475
    25  H    0.108056   0.007290
    26  H    0.185416  -0.006840
    27  H   -0.073579   0.213898
    28  H   -0.229720   0.394066
    29  H    0.105750   0.025336
    30  H    0.187808   0.019782
    31  H    0.249626   0.042864
    32  H    0.122510   0.053172
    33  H    0.151060  -0.018500
    34  H   -0.003716   0.140351
    35  H    0.019619   0.117191
    36  H    0.098734   0.060375
    37  H    0.188870  -0.005664
    38  H    0.056058   0.066493
 Sum of Mulliken charges =  -1.00000   1.00000

 Dipole moment (field-independent basis, Debye):
    X=             -1.5901    Y=              1.7029    Z=              2.6976  Tot=              3.5645
 Quadrupole moment (field-independent basis, Debye-Ang):
   XX=           -184.6660   YY=           -143.7971   ZZ=           -135.8671
   XY=             -8.4203   XZ=             -8.7634   YZ=             -4.0465

 Summary of Natural Population Analysis:

                                       Natural Population
                Natural  -----------------------------------------------
    Atom  No    Charge         Core      Valence    Rydberg      Total
 -----------------------------------------------------------------------
      C    1   -0.29654      0.99965     2.29256    0.00433     3.29654
      C    2    0.05381      0.99949     1.93847    0.00823     2.94619
      C    3   -0.05349      0.99941     2.04310    0.01098     3.05349
      C    4   -0.07989      0.99950     2.07066    0.00972     3.07989
      C    5   -0.07497      0.99949     2.06307    0.01240     3.07497
      C    6   -0.01791      0.99954     2.00986    0.00851     3.01791
      C    7   -0.12673      0.99953     2.11909    0.00811     3.12673
      C    8    0.03750      0.99926     1.95322    0.01002     2.96250
      C    9   -0.03610      0.99934     2.02567    0.01108     3.03610
      C   10   -0.23603      0.99958     2.22771    0.00874     3.23603
      C   11   -0.00225      0.99962     1.98863    0.01400     3.00225
      O   12   -0.37206      0.99990     3.36489    0.00727     4.37206
      C   13    0.36103      0.99962     1.61625    0.02311     2.63897
      O   14   -0.31183      0.99988     3.30633    0.00562     4.31183
      N   15   -0.32598      0.99964     2.81542    0.01091     3.82598
      C   16    0.05021      0.99955     1.93726    0.01299     2.94979
      C   17   -0.19105      0.99958     2.18288    0.00858     3.19105
      C   18   -0.19670      0.99959     2.18918    0.00793     3.19670
      C   19   -0.28679      0.99962     2.28242    0.00476     3.28679
      H   20    0.10107      0.00000     0.39798    0.00095     0.39893
      H   21    0.09178      0.00000     0.40734    0.00088     0.40822
      H   22    0.11497      0.00000     0.38404    0.00099     0.38503
      H   23    0.09840      0.00000     0.39984    0.00177     0.40160
      H   24    0.09152      0.00000     0.40709    0.00139     0.40848
      H   25    0.09153      0.00000     0.40745    0.00102     0.40847
      H   26    0.10668      0.00000     0.39184    0.00148     0.39332
      H   27    0.10967      0.00000     0.38823    0.00210     0.39033
      H   28    0.08387      0.00000     0.41459    0.00154     0.41613
      H   29    0.07495      0.00000     0.42368    0.00138     0.42505
      H   30    0.23396      0.00000     0.26255    0.00348     0.26604
      H   31    0.18762      0.00000     0.30932    0.00306     0.31238
      H   32    0.10342      0.00000     0.39561    0.00096     0.39658
      H   33    0.10712      0.00000     0.39163    0.00125     0.39288
      H   34    0.10298      0.00000     0.39585    0.00117     0.39702
      H   35    0.10017      0.00000     0.39875    0.00108     0.39983
      H   36    0.09759      0.00000     0.40134    0.00107     0.40241
      H   37    0.11310      0.00000     0.38587    0.00103     0.38690
      H   38    0.09696      0.00000     0.40225    0.00079     0.40304
 =======================================================================
   * Total *    0.00160     18.99180    49.79192    0.21468    68.99840

 Normal termination of Gaussian 16 at Mon Dec 14 15:08:17 2020.
