 Gaussian 16, Revision A.03,

 -----------------------------------------------------------
 # opt freq B3LYP/6-31G(d) empiricaldispersion=gd3bj scf=xqc
 -----------------------------------------------------------

 --------------------------------
 CID_135771861_JID_10949_neutraal
 --------------------------------
 Symbolic Z-matrix:
 Charge =  0 Multiplicity = 1

 SCF Done:  E(RB3LYP) =  -911.419637233     A.U. after   16 cycles
 SCF Done:  E(RB3LYP) =  -911.425607868     A.U. after   13 cycles
 SCF Done:  E(RB3LYP) =  -911.426975239     A.U. after   13 cycles
 SCF Done:  E(RB3LYP) =  -911.427563841     A.U. after   13 cycles
 SCF Done:  E(RB3LYP) =  -911.427829367     A.U. after   11 cycles
 SCF Done:  E(RB3LYP) =  -911.427900666     A.U. after   11 cycles
 SCF Done:  E(RB3LYP) =  -911.427921286     A.U. after   11 cycles
 SCF Done:  E(RB3LYP) =  -911.427931493     A.U. after   10 cycles
 SCF Done:  E(RB3LYP) =  -911.427938138     A.U. after   10 cycles
 SCF Done:  E(RB3LYP) =  -911.427944467     A.U. after   10 cycles
 SCF Done:  E(RB3LYP) =  -911.430184362     A.U. after   11 cycles
 SCF Done:  E(RB3LYP) =  -911.430197619     A.U. after   11 cycles
 SCF Done:  E(RB3LYP) =  -911.430200095     A.U. after    8 cycles
 SCF Done:  E(RB3LYP) =  -911.430200546     A.U. after    8 cycles
 SCF Done:  E(RB3LYP) =  -911.430200713     A.U. after    7 cycles
 SCF Done:  E(RB3LYP) =  -911.430200743     A.U. after    7 cycles
 Optimization completed.
    -- Stationary point found.
 Normal termination of Gaussian 16 at Sun Dec 13 21:09:30 2020.

 --------------------------------------------------------------------
 #N Geom=AllCheck Guess=TCheck SCRF=Check GenChk RB3LYP/6-31G(d) Freq
 --------------------------------------------------------------------

 Structure from the checkpoint file:  "JID_10949.chk"
 --------------------------------
 CID_135771861_JID_10949_neutraal
 --------------------------------
 Charge =  0 Multiplicity = 1

 SCF Done:  E(RB3LYP) =  -911.430200743     A.U. after    1 cycles

  Exact polarizability: 259.908  11.266 197.854 -11.026  15.814  91.380
 Approx polarizability: 388.750   4.750 330.124 -23.618  48.185 153.483

                      1                      2                      3
                      A                      A                      A
 Frequencies --     21.9327                35.0705                53.3019
 Red. masses --      5.7683                 3.1895                 4.8649
 Frc consts  --      0.0016                 0.0023                 0.0081
 IR Inten    --      1.3817                 0.5269                 0.1625

                      4                      5                      6
                      A                      A                      A
 Frequencies --     69.3796                79.5440               125.4099
 Red. masses --      3.2945                 5.0608                 4.0097
 Frc consts  --      0.0093                 0.0189                 0.0372
 IR Inten    --      0.3567                 0.7640                 0.5195

                      7                      8                      9
                      A                      A                      A
 Frequencies --    150.3626               154.6087               192.8295
 Red. masses --      4.5869                 1.9546                 6.2572
 Frc consts  --      0.0611                 0.0275                 0.1371
 IR Inten    --      0.4341                 2.0582                 0.9463

                     10                     11                     12
                      A                      A                      A
 Frequencies --    210.1404               224.8442               252.6726
 Red. masses --      2.4143                 4.0882                 4.9370
 Frc consts  --      0.0628                 0.1218                 0.1857
 IR Inten    --      0.0264                 1.3239                 0.3890

                     13                     14                     15
                      A                      A                      A
 Frequencies --    271.9589               298.5128               320.2613
 Red. masses --      3.3653                 4.6202                 2.6481
 Frc consts  --      0.1467                 0.2426                 0.1600
 IR Inten    --      0.6796                 1.9525                 0.1660

                     16                     17                     18
                      A                      A                      A
 Frequencies --    325.0983               372.8316               447.5103
 Red. masses --      9.3049                 5.3491                 3.0055
 Frc consts  --      0.5794                 0.4381                 0.3546
 IR Inten    --      7.5510                 0.4518                 1.9694

                     19                     20                     21
                      A                      A                      A
 Frequencies --    476.3470               489.5329               530.7597
 Red. masses --      3.8285                 4.7534                 5.1863
 Frc consts  --      0.5118                 0.6712                 0.8608
 IR Inten    --      0.8202                 1.2052                 6.3045

                     22                     23                     24
                      A                      A                      A
 Frequencies --    546.3837               552.5692               566.1703
 Red. masses --      5.7891                 6.1506                 2.0161
 Frc consts  --      1.0183                 1.1065                 0.3808
 IR Inten    --      4.2246                 2.1831                36.9083

                     25                     26                     27
                      A                      A                      A
 Frequencies --    616.9766               649.9587               661.3766
 Red. masses --      5.0744                 2.3688                 5.8420
 Frc consts  --      1.1381                 0.5896                 1.5056
 IR Inten    --      4.7794                 4.3736                 3.1137

                     28                     29                     30
                      A                      A                      A
 Frequencies --    669.1667               692.8040               713.9813
 Red. masses --      4.7347                 5.0701                 2.1447
 Frc consts  --      1.2491                 1.4338                 0.6442
 IR Inten    --      5.7130                10.6922                65.0603

                     31                     32                     33
                      A                      A                      A
 Frequencies --    748.1227               749.8105               767.9837
 Red. masses --      3.0347                 1.9370                 1.3605
 Frc consts  --      1.0007                 0.6416                 0.4728
 IR Inten    --      6.5568                59.7918                52.1202

                     34                     35                     36
                      A                      A                      A
 Frequencies --    772.3186               802.9416               807.8155
 Red. masses --      1.5742                 3.4054                 4.4919
 Frc consts  --      0.5532                 1.2935                 1.7271
 IR Inten    --     22.5057                 1.4170                 2.3283

                     37                     38                     39
                      A                      A                      A
 Frequencies --    829.7597               855.9094               866.0248
 Red. masses --      1.8006                 3.1625                 1.5305
 Frc consts  --      0.7304                 1.3650                 0.6763
 IR Inten    --     25.0627                 7.1773                 2.3607

                     40                     41                     42
                      A                      A                      A
 Frequencies --    901.1782               943.8538               948.1657
 Red. masses --      2.5880                 1.2685                 3.0355
 Frc consts  --      1.2383                 0.6658                 1.6079
 IR Inten    --      0.7985                 1.3058                 5.8685

                     43                     44                     45
                      A                      A                      A
 Frequencies --    953.3792               979.7252              1002.5175
 Red. masses --      1.7023                 1.2585                11.7910
 Frc consts  --      0.9116                 0.7117                 6.9821
 IR Inten    --      3.1396                 0.0457                24.0876

                     46                     47                     48
                      A                      A                      A
 Frequencies --   1009.3890              1080.9134              1089.6097
 Red. masses --      2.3476                 2.8501                 2.5694
 Frc consts  --      1.4092                 1.9619                 1.7973
 IR Inten    --     58.1024                20.4524                13.5854

                     49                     50                     51
                      A                      A                      A
 Frequencies --   1095.8097              1136.6117              1154.5566
 Red. masses --      2.0668                 2.0200                 2.9760
 Frc consts  --      1.4622                 1.5376                 2.3373
 IR Inten    --     19.1581                 2.2041                59.2551

                     52                     53                     54
                      A                      A                      A
 Frequencies --   1163.2626              1186.3820              1189.2267
 Red. masses --      2.9105                 2.9183                 1.9647
 Frc consts  --      2.3205                 2.4200                 1.6371
 IR Inten    --      2.6874                45.5213                24.5243

                     55                     56                     57
                      A                      A                      A
 Frequencies --   1202.1949              1204.0033              1251.8155
 Red. masses --      1.1016                 4.0816                 2.4984
 Frc consts  --      0.9381                 3.4861                 2.3067
 IR Inten    --      7.8764                33.5849                34.0325

                     58                     59                     60
                      A                      A                      A
 Frequencies --   1283.9579              1290.8000              1302.9424
 Red. masses --      1.3646                 2.1168                 3.0703
 Frc consts  --      1.3254                 2.0780                 3.0711
 IR Inten    --     46.9515               108.4216               136.0450

                     61                     62                     63
                      A                      A                      A
 Frequencies --   1313.8851              1322.3742              1347.5783
 Red. masses --      2.3399                 1.3238                 5.8182
 Frc consts  --      2.3799                 1.3639                 6.2251
 IR Inten    --     10.7948                 6.1271                 4.9507

                     64                     65                     66
                      A                      A                      A
 Frequencies --   1353.9429              1401.5642              1414.7567
 Red. masses --      2.3343                 1.3852                 4.2023
 Frc consts  --      2.5212                 1.6032                 4.9556
 IR Inten    --     40.2305                 2.1192                 3.9781

                     67                     68                     69
                      A                      A                      A
 Frequencies --   1429.9834              1446.9963              1450.8567
 Red. masses --      1.4638                 2.1641                 1.3480
 Frc consts  --      1.7636                 2.6697                 1.6718
 IR Inten    --      8.5906                 2.8253                15.7271

                     70                     71                     72
                      A                      A                      A
 Frequencies --   1491.7190              1499.8757              1510.3391
 Red. masses --      1.7282                 2.4884                 1.0818
 Frc consts  --      2.2658                 3.2983                 1.4539
 IR Inten    --      5.9112                66.4933                 3.7204

                     73                     74                     75
                      A                      A                      A
 Frequencies --   1525.5637              1531.1658              1536.1004
 Red. masses --      1.1169                 1.7517                 1.1056
 Frc consts  --      1.5316                 2.4196                 1.5370
 IR Inten    --     16.8588                42.9249                 1.4170

                     76                     77                     78
                      A                      A                      A
 Frequencies --   1548.6122              1550.6361              1581.2747
 Red. masses --      1.3513                 3.6297                 4.8127
 Frc consts  --      1.9093                 5.1421                 7.0901
 IR Inten    --      6.9775                22.5833                23.2141

                     79                     80                     81
                      A                      A                      A
 Frequencies --   1635.2334              1655.4605              1669.4219
 Red. masses --      5.9393                 5.8312                 5.6097
 Frc consts  --      9.3571                 9.4156                 9.2113
 IR Inten    --     13.4882                88.4171               107.5903

                     82                     83                     84
                      A                      A                      A
 Frequencies --   1802.1443              3023.9955              3048.7916
 Red. masses --      8.9040                 1.0554                 1.0647
 Frc consts  --     17.0379                 5.6865                 5.8308
 IR Inten    --    493.1463                33.9981                15.6558

                     85                     86                     87
                      A                      A                      A
 Frequencies --   3054.7417              3069.6246              3088.9016
 Red. masses --      1.0412                 1.1044                 1.1018
 Frc consts  --      5.7245                 6.1313                 6.1939
 IR Inten    --     19.2420                42.6331                30.3847

                     88                     89                     90
                      A                      A                      A
 Frequencies --   3122.8656              3146.1043              3195.8572
 Red. masses --      1.0996                 1.1018                 1.0864
 Frc consts  --      6.3179                 6.4255                 6.5376
 IR Inten    --     31.7128                28.3619                 1.4042

                     91                     92                     93
                      A                      A                      A
 Frequencies --   3209.5473              3222.7254              3237.0869
 Red. masses --      1.0905                 1.0949                 1.0921
 Frc consts  --      6.6186                 6.6999                 6.7424
 IR Inten    --     17.2248                15.4538                 9.4999

                     94                     95                     96
                      A                      A                      A
 Frequencies --   3263.7431              3602.4040              3657.1975
 Red. masses --      1.0919                 1.0768                 1.0823
 Frc consts  --      6.8528                 8.2330                 8.5286
 IR Inten    --      3.2357               143.6082               165.9775

 - Thermochemistry -
 -------------------
 Temperature   298.150 Kelvin.  Pressure   1.00000 Atm.
 Atom     1 has atomic number  6 and mass  12.00000

 Molecular mass:   270.11168 amu.
 Principal axes and moments of inertia in atomic units:
                           1         2         3
     Eigenvalues --  3633.943547246.55242**********
           X            0.99976  -0.02184   0.00051
           Y            0.02184   0.99966  -0.01422
           Z           -0.00020   0.01423   0.99990
 This molecule is an asymmetric top.
 Rotational symmetry number  1.
 Warning -- assumption of classical behavior for rotation
           may cause significant error
 Rotational temperatures (Kelvin)      0.02383     0.01195     0.00846
 Rotational constants (GHZ):           0.49663     0.24905     0.17637
 Zero-point vibrational energy     713610.4 (Joules/Mol)
                                  170.55699 (Kcal/Mol)
 Warning -- explicit consideration of  25 degrees of freedom as
           vibrations may cause significant error
 Vibrational temperatures:     31.56    50.46    76.69    99.82   114.45
          (Kelvin)            180.44   216.34   222.45   277.44   302.35
                              323.50   363.54   391.29   429.49   460.78
                              467.74   536.42   643.87   685.36   704.33
                              763.64   786.12   795.02   814.59   887.69
                              935.15   951.57   962.78   996.79  1027.26
                             1076.38  1078.81  1104.96  1111.19  1155.25
                             1162.27  1193.84  1231.46  1246.02  1296.59
                             1358.00  1364.20  1371.70  1409.61  1442.40
                             1452.29  1555.19  1567.71  1576.63  1635.33
                             1661.15  1673.68  1706.94  1711.03  1729.69
                             1732.29  1801.08  1847.33  1857.17  1874.64
                             1890.39  1902.60  1938.86  1948.02  2016.54
                             2035.52  2057.43  2081.90  2087.46  2146.25
                             2157.99  2173.04  2194.95  2203.01  2210.11
                             2228.11  2231.02  2275.10  2352.74  2381.84
                             2401.93  2592.88  4350.86  4386.53  4395.09
                             4416.51  4444.24  4493.11  4526.54  4598.13
                             4617.82  4636.78  4657.45  4695.80  5183.06
                             5261.89

 Zero-point correction=                           0.271800 (Hartree/Particle)
 Thermal correction to Energy=                    0.288534
 Thermal correction to Enthalpy=                  0.289478
 Thermal correction to Gibbs Free Energy=         0.225675
 Sum of electronic and zero-point Energies=           -911.158401
 Sum of electronic and thermal Energies=              -911.141667
 Sum of electronic and thermal Enthalpies=            -911.140723
 Sum of electronic and thermal Free Energies=         -911.204526

                     E (Thermal)             CV                S
                      KCal/Mol        Cal/Mol-Kelvin    Cal/Mol-Kelvin
 Total                  181.058             64.514            134.285
 Electronic               0.000              0.000              0.000
 Translational            0.889              2.981             42.680
 Rotational               0.889              2.981             33.954
 Vibrational            179.280             58.553             57.651
 Vibration     1          0.593              1.985              6.451
 Vibration     2          0.594              1.982              5.520
 Vibration     3          0.596              1.976              4.691
 Vibration     4          0.598              1.969              4.171
 Vibration     5          0.600              1.963              3.902
 Vibration     6          0.610              1.928              3.015
 Vibration     7          0.618              1.902              2.668
 Vibration     8          0.620              1.898              2.615
 Vibration     9          0.635              1.850              2.200
 Vibration    10          0.642              1.825              2.042
 Vibration    11          0.650              1.803              1.920
 Vibration    12          0.664              1.758              1.712
 Vibration    13          0.675              1.725              1.584
 Vibration    14          0.692              1.676              1.425
 Vibration    15          0.706              1.635              1.309
 Vibration    16          0.709              1.625              1.284
 Vibration    17          0.744              1.528              1.068
 Vibration    18          0.807              1.366              0.803
 Vibration    19          0.833              1.303              0.720
 Vibration    20          0.845              1.273              0.685
 Vibration    21          0.886              1.182              0.586
 Vibration    22          0.902              1.148              0.552
 Vibration    23          0.908              1.134              0.539
 Vibration    24          0.922              1.104              0.512
 Vibration    25          0.977              0.996              0.421

                           ! Non-Optimized Parameters !
 Normal termination of Gaussian 16 at Sun Dec 13 21:26:03 2020.

 ----------------------------------------------------------------------
 # B3LYP/6-311++G(d,p) empiricaldispersion=gd3bj scf=xqc pop=npa geom=c
 heck
 ----------------------------------------------------------------------

 ----------------------------------------
 CID_135771861_JID_10949_Energie_neutraal
 ----------------------------------------
 Structure from the checkpoint file:  "JID_10949.chk"
 Charge =  0 Multiplicity = 1

 SCF Done:  E(RB3LYP) =  -911.675656691     A.U. after   16 cycles
 Normal termination of Gaussian 16 at Sun Dec 13 21:33:41 2020.

 ----------------------------------------------------------------------
 # B3LYP/6-311++G(d,p) empiricaldispersion=gd3bj scf=xqc pop=npa geom=c
 heck
 ----------------------------------------------------------------------

 --------------------------------------
 CID_135771861_JID_10949_Energie_kation
 --------------------------------------
 Structure from the checkpoint file:  "JID_10949.chk"
 Charge =  1 Multiplicity = 2

 SCF Done:  E(UB3LYP) =  -911.397385553     A.U. after   23 cycles
 Normal termination of Gaussian 16 at Sun Dec 13 21:48:34 2020.
 Gaussian 16:  ES64L-G16RevA.03 25-Dec-2016

 ----------------------------------------------------------------------
 # B3LYP/6-311++G(d,p) empiricaldispersion=gd3bj scf=xqc pop=npa geom=c
 heck
 ----------------------------------------------------------------------

 -------------------------------------
 CID_135771861_JID_10949_Energie_anion
 -------------------------------------
 Structure from the checkpoint file:  "JID_10949.chk"
 Charge = -1 Multiplicity = 2

                         Standard orientation:
 ---------------------------------------------------------------------
 Center     Atomic      Atomic             Coordinates (Angstroms)
 Number     Number       Type             X           Y           Z
 ---------------------------------------------------------------------
      1          6           0       -1.353180    3.429439   -1.217725
      2          6           0       -2.394179    3.221507   -0.115151
      3          6           0       -3.006265    1.828513   -0.118653
      4          8           0       -1.939109    0.893678    0.063785
      5          6           0       -2.188547   -0.448155    0.066288
      6          6           0       -3.480822   -0.978103    0.017900
      7          6           0       -3.674984   -2.358636    0.041532
      8          6           0       -2.582722   -3.218593    0.123077
      9          6           0       -1.297092   -2.687139    0.168306
     10          6           0       -1.060897   -1.305293    0.122571
     11          6           0        0.336947   -0.814163    0.109727
     12          6           0        1.358948   -1.534000   -0.448298
     13          6           0        2.665093   -0.968588   -0.369282
     14          7           0        3.840138   -1.448088   -0.819648
     15          7           0        4.690072   -0.475659   -0.470141
     16          7           0        4.207360    0.586346    0.155079
     17          6           0        2.900129    0.293870    0.235814
     18          6           0        1.820831    1.092976    0.802414
     19          8           0        1.885933    2.209212    1.297451
     20          7           0        0.600251    0.410114    0.712926
     21          1           0       -0.502426    2.755670   -1.084713
     22          1           0       -0.973841    4.455855   -1.202968
     23          1           0       -1.784707    3.241643   -2.208523
     24          1           0       -1.941326    3.404819    0.867195
     25          1           0       -3.216249    3.940890   -0.222632
     26          1           0       -3.738312    1.717327    0.692201
     27          1           0       -3.508531    1.617443   -1.072785
     28          1           0       -4.336945   -0.317287   -0.036716
     29          1           0       -4.685807   -2.754273    0.007562
     30          1           0       -2.726970   -4.293484    0.162449
     31          1           0       -0.445921   -3.352959    0.260678
     32          1           0        1.181734   -2.471795   -0.954981
     33          1           0        5.676425   -0.552061   -0.676218
     34          1           0       -0.196015    0.954292    1.020931
 ---------------------------------------------------------------------

 SCF Done:  E(UB3LYP) =  -911.688893745     A.U. after   28 cycles

 The electronic state is 2-A.
 Alpha  occ. eigenvalues --  -19.04886 -18.95236 -14.28285 -14.21807 -14.21698
 Alpha  occ. eigenvalues --  -14.19819 -10.14094 -10.13651 -10.11540 -10.08787
 Alpha  occ. eigenvalues --  -10.07959 -10.07123 -10.06980 -10.06838 -10.05159
 Alpha  occ. eigenvalues --  -10.05057 -10.04735 -10.04325 -10.04219 -10.02238
 Alpha  occ. eigenvalues --   -0.97262  -0.96660  -0.90574  -0.81290  -0.76261
 Alpha  occ. eigenvalues --   -0.73561  -0.70546  -0.70140  -0.65559  -0.62747
 Alpha  occ. eigenvalues --   -0.61359  -0.58979  -0.56741  -0.52011  -0.51994
 Alpha  occ. eigenvalues --   -0.47963  -0.47583  -0.45141  -0.43244  -0.42983
 Alpha  occ. eigenvalues --   -0.41088  -0.39430  -0.38324  -0.36724  -0.35085
 Alpha  occ. eigenvalues --   -0.34844  -0.33827  -0.33613  -0.33426  -0.31373
 Alpha  occ. eigenvalues --   -0.30038  -0.29865  -0.28871  -0.28697  -0.27773
 Alpha  occ. eigenvalues --   -0.27439  -0.26230  -0.25577  -0.25229  -0.24129
 Alpha  occ. eigenvalues --   -0.22018  -0.21364  -0.21208  -0.19587  -0.17248
 Alpha  occ. eigenvalues --   -0.17138  -0.15600  -0.13960  -0.13031  -0.11638
 Alpha  occ. eigenvalues --   -0.07841   0.03989
 Alpha virt. eigenvalues --    0.06568   0.08002   0.08509   0.08764   0.08949
 Alpha virt. eigenvalues --    0.09345   0.10278   0.10651   0.11394   0.11935
 Alpha virt. eigenvalues --    0.12221   0.12705   0.13324   0.13952   0.14253

  Beta  occ. eigenvalues --  -19.04882 -18.95179 -14.27940 -14.21736 -14.21722
  Beta  occ. eigenvalues --  -14.19411 -10.14034 -10.13647 -10.11476 -10.08788
  Beta  occ. eigenvalues --  -10.07776 -10.07176 -10.06979 -10.06878 -10.05154
  Beta  occ. eigenvalues --  -10.04920 -10.04808 -10.04044 -10.04041 -10.02035
  Beta  occ. eigenvalues --   -0.96797  -0.96626  -0.90462  -0.81156  -0.75789
  Beta  occ. eigenvalues --   -0.73321  -0.70289  -0.70053  -0.65137  -0.62597
  Beta  occ. eigenvalues --   -0.61015  -0.58824  -0.56488  -0.51963  -0.51642
  Beta  occ. eigenvalues --   -0.47838  -0.47383  -0.44970  -0.43122  -0.42811
  Beta  occ. eigenvalues --   -0.40853  -0.39374  -0.38173  -0.36630  -0.34753
  Beta  occ. eigenvalues --   -0.34104  -0.33701  -0.33476  -0.33292  -0.31242
  Beta  occ. eigenvalues --   -0.29925  -0.29418  -0.28686  -0.28512  -0.27540
  Beta  occ. eigenvalues --   -0.27306  -0.26152  -0.25347  -0.25142  -0.24022
  Beta  occ. eigenvalues --   -0.21576  -0.21044  -0.20600  -0.19368  -0.16914
  Beta  occ. eigenvalues --   -0.16138  -0.14599  -0.13252  -0.12675  -0.11110
  Beta  occ. eigenvalues --   -0.06508
  Beta virt. eigenvalues --    0.06542   0.07974   0.08729   0.08886   0.08967
  Beta virt. eigenvalues --    0.09367   0.10068   0.10257   0.10680   0.11654
  Beta virt. eigenvalues --    0.11929   0.12222   0.12699   0.13361   0.14169

 Mulliken charges and spin densities:
               1          2
     1  C   -0.418013   0.001146
     2  C   -0.506811   0.000182
     3  C   -0.019015  -0.011707
     4  O   -0.075913   0.007796
     5  C    0.064641   0.058524
     6  C   -0.036411   0.001198
     7  C   -0.496255   0.212753
     8  C   -0.468687  -0.067281
     9  C   -0.441916   0.181445
    10  C    0.563289   0.042873
    11  C    0.315105   0.098544
    12  C   -0.686925   0.144746
    13  C   -0.063510  -0.054435
    14  N   -0.271990   0.184634
    15  N    0.070139   0.120140
    16  N   -0.243868   0.032501
    17  C   -0.026197   0.002725
    18  C   -0.152665   0.041104
    19  O   -0.382370   0.022562
    20  N   -0.020247  -0.010529
    21  H    0.191800   0.000062
    22  H    0.127091   0.000219
    23  H    0.107021   0.000237
    24  H    0.149501   0.000611
    25  H    0.125297  -0.000059
    26  H    0.127230   0.005786
    27  H    0.147920   0.008405
    28  H    0.115692  -0.000331
    29  H    0.113230  -0.018123
    30  H    0.114099   0.005504
    31  H    0.124752  -0.001149
    32  H    0.143981  -0.006472
    33  H    0.295993  -0.007022
    34  H    0.414009   0.003413
 Sum of Mulliken charges =  -1.00000   1.00000

 Dipole moment (field-independent basis, Debye):
    X=             -5.2150    Y=              1.6928    Z=             -1.5238  Tot=              5.6906
 Quadrupole moment (field-independent basis, Debye-Ang):
   XX=           -151.9566   YY=           -145.5315   ZZ=           -131.0918
   XY=            -17.1155   XZ=             -3.8460   YZ=             -7.7153

 Summary of Natural Population Analysis:

                                       Natural Population
                Natural  -----------------------------------------------
    Atom  No    Charge         Core      Valence    Rydberg      Total
 -----------------------------------------------------------------------
      C    1   -0.28845      0.99967     2.28384    0.00495     3.28845
      C    2   -0.19795      0.99964     2.19181    0.00649     3.19795
      C    3   -0.00665      0.99958     1.99739    0.00968     3.00665
      O    4   -0.29265      0.99985     3.28134    0.01147     4.29265
      C    5    0.17849      0.99937     1.81123    0.01091     2.82151
      C    6   -0.15281      0.99953     2.14541    0.00787     3.15281
      C    7   -0.04855      0.99958     2.03961    0.00935     3.04855
      C    8   -0.13972      0.99959     2.13029    0.00984     3.13972
      C    9   -0.04509      0.99946     2.03764    0.00799     3.04509
      C   10   -0.03225      0.99939     2.02359    0.00928     3.03225
      C   11    0.12935      0.99950     1.86009    0.01106     2.87065
      C   12   -0.10965      0.99949     2.10204    0.00812     3.10965
      C   13    0.04599      0.99953     1.94014    0.01433     2.95401
      N   14   -0.10166      0.99971     2.58797    0.01399     3.60166
      N   15   -0.02515      0.99975     2.50854    0.01686     3.52515
      N   16   -0.12616      0.99971     2.61270    0.01374     3.62616
      C   17   -0.00961      0.99946     1.99689    0.01326     3.00961
      C   18    0.32233      0.99962     1.65695    0.02110     2.67767
      O   19   -0.32807      0.99988     3.32170    0.00649     4.32807
      N   20   -0.29883      0.99964     2.79007    0.00911     3.79883
      H   21    0.11308      0.00000     0.38588    0.00103     0.38692
      H   22    0.09640      0.00000     0.40280    0.00080     0.40360
      H   23    0.09159      0.00000     0.40754    0.00087     0.40841
      H   24    0.10060      0.00000     0.39815    0.00125     0.39940
      H   25    0.09158      0.00000     0.40734    0.00109     0.40842
      H   26    0.08317      0.00000     0.41527    0.00156     0.41683
      H   27    0.08201      0.00000     0.41645    0.00154     0.41799
      H   28    0.09525      0.00000     0.40340    0.00135     0.40475
      H   29    0.08744      0.00000     0.41103    0.00153     0.41256
      H   30    0.09320      0.00000     0.40569    0.00111     0.40680
      H   31    0.09737      0.00000     0.40078    0.00184     0.40263
      H   32    0.10326      0.00000     0.39513    0.00161     0.39674
      H   33    0.18535      0.00000     0.31318    0.00146     0.31465
      H   34    0.20678      0.00000     0.29103    0.00219     0.29322
 =======================================================================
   * Total *    0.00000     19.99195    50.77294    0.23511    71.00000

 Normal termination of Gaussian 16 at Sun Dec 13 22:06:10 2020.
