 Gaussian 16, Revision A.03,

 -----------------------------------------------------------
 # opt freq B3LYP/6-31G(d) empiricaldispersion=gd3bj scf=xqc
 -----------------------------------------------------------

 -------------------------------
 CID_151971639_JID_5076_neutraal
 -------------------------------
 Symbolic Z-matrix:
 Charge =  0 Multiplicity = 1

 SCF Done:  E(RB3LYP) =  -719.567976882     A.U. after   15 cycles
 SCF Done:  E(RB3LYP) =  -719.573419988     A.U. after   15 cycles
 SCF Done:  E(RB3LYP) =  -719.574650566     A.U. after   13 cycles
 SCF Done:  E(RB3LYP) =  -719.575273315     A.U. after   12 cycles
 SCF Done:  E(RB3LYP) =  -719.575207130     A.U. after   12 cycles
 SCF Done:  E(RB3LYP) =  -719.575308566     A.U. after   13 cycles
 SCF Done:  E(RB3LYP) =  -719.575317778     A.U. after    9 cycles
 SCF Done:  E(RB3LYP) =  -719.575319538     A.U. after    9 cycles
 SCF Done:  E(RB3LYP) =  -719.575320349     A.U. after    9 cycles
 SCF Done:  E(RB3LYP) =  -719.575320733     A.U. after    8 cycles
 SCF Done:  E(RB3LYP) =  -719.576102559     A.U. after    9 cycles
 SCF Done:  E(RB3LYP) =  -719.576102679     A.U. after    8 cycles
 SCF Done:  E(RB3LYP) =  -719.576102721     A.U. after    7 cycles
 SCF Done:  E(RB3LYP) =  -719.576102743     A.U. after    6 cycles
 SCF Done:  E(RB3LYP) =  -719.576102755     A.U. after    6 cycles
 Optimization completed.
    -- Stationary point found.
 Normal termination of Gaussian 16 at Thu Dec 10 15:07:04 2020.

 --------------------------------------------------------------------
 #N Geom=AllCheck Guess=TCheck SCRF=Check GenChk RB3LYP/6-31G(d) Freq
 --------------------------------------------------------------------

 Structure from the checkpoint file:  "JID_5076.chk"
 -------------------------------
 CID_151971639_JID_5076_neutraal
 -------------------------------
 Charge =  0 Multiplicity = 1

 SCF Done:  E(RB3LYP) =  -719.576102755     A.U. after    1 cycles

  Exact polarizability: 152.738  -1.145 106.096   1.663   6.536 106.935
 Approx polarizability: 247.813  -1.398 163.174  12.890  20.951 177.248

                      1                      2                      3
                      A                      A                      A
 Frequencies --     33.2229                57.1096                67.1886
 Red. masses --      4.3102                 8.4710                 5.2409
 Frc consts  --      0.0028                 0.0163                 0.0139
 IR Inten    --      0.8351                 0.5506                 1.3532

                      4                      5                      6
                      A                      A                      A
 Frequencies --     87.1304               108.1550               131.6731
 Red. masses --      2.2737                 2.4781                 1.8875
 Frc consts  --      0.0102                 0.0171                 0.0193
 IR Inten    --      1.1872                 3.0214                 2.5993

                      7                      8                      9
                      A                      A                      A
 Frequencies --    154.6724               173.9088               196.1790
 Red. masses --      3.8643                 2.1347                 2.3694
 Frc consts  --      0.0545                 0.0380                 0.0537
 IR Inten    --      0.5137                 1.1357                 1.8262

                     10                     11                     12
                      A                      A                      A
 Frequencies --    234.0761               240.3449               255.0882
 Red. masses --      3.2227                 2.5895                 3.4791
 Frc consts  --      0.1040                 0.0881                 0.1334
 IR Inten    --      4.5764                 6.0740                 6.5775

                     13                     14                     15
                      A                      A                      A
 Frequencies --    293.3831               339.4346               353.3784
 Red. masses --      4.0321                 3.9578                 4.1365
 Frc consts  --      0.2045                 0.2687                 0.3043
 IR Inten    --      0.4980                 2.4877                 0.8238

                     16                     17                     18
                      A                      A                      A
 Frequencies --    389.8602               425.0825               479.2641
 Red. masses --      2.6092                 3.7307                 4.2179
 Frc consts  --      0.2337                 0.3972                 0.5708
 IR Inten    --      0.0683                 3.0400                11.0358

                     19                     20                     21
                      A                      A                      A
 Frequencies --    514.8106               562.6109               574.5388
 Red. masses --      5.4785                11.2527                 4.8999
 Frc consts  --      0.8555                 2.0986                 0.9530
 IR Inten    --      1.8461                17.6239                18.7292

                     22                     23                     24
                      A                      A                      A
 Frequencies --    633.8768               671.1395               686.4012
 Red. masses --      3.9452                 6.6602                 6.9417
 Frc consts  --      0.9340                 1.7675                 1.9269
 IR Inten    --     18.5938                23.3412                 0.9743

                     25                     26                     27
                      A                      A                      A
 Frequencies --    733.4547               770.0643               835.8855
 Red. masses --      5.6285                 3.4390                 1.5535
 Frc consts  --      1.7840                 1.2015                 0.6395
 IR Inten    --      6.2903                 1.2615                42.0363

                     28                     29                     30
                      A                      A                      A
 Frequencies --    880.7117               897.9979               961.9102
 Red. masses --      2.5751                 1.2545                 5.7928
 Frc consts  --      1.1768                 0.5960                 3.1580
 IR Inten    --      5.9951                 0.5962                31.4027

                     31                     32                     33
                      A                      A                      A
 Frequencies --    981.4199               997.5153              1016.7871
 Red. masses --      1.3371                 1.4415                 6.9815
 Frc consts  --      0.7588                 0.8451                 4.2526
 IR Inten    --      1.9593                 0.1263                 2.8628

                     34                     35                     36
                      A                      A                      A
 Frequencies --   1022.5167              1083.8049              1089.9413
 Red. masses --      4.9511                 3.4705                 4.3213
 Frc consts  --      3.0500                 2.4019                 3.0246
 IR Inten    --     18.5052                46.5828                22.6254

                     37                     38                     39
                      A                      A                      A
 Frequencies --   1109.7055              1130.9926              1145.7492
 Red. masses --      1.8436                 2.0878                 4.7835
 Frc consts  --      1.3376                 1.5735                 3.6998
 IR Inten    --      3.3760                92.9224               193.1290

                     40                     41                     42
                      A                      A                      A
 Frequencies --   1159.7327              1190.4223              1192.9253
 Red. masses --      2.8580                 1.2931                 1.3012
 Frc consts  --      2.2648                 1.0797                 1.0910
 IR Inten    --     42.8287                 2.4205                 9.8342

                     43                     44                     45
                      A                      A                      A
 Frequencies --   1225.5272              1244.5040              1253.1909
 Red. masses --      1.4015                 2.3684                 1.6466
 Frc consts  --      1.2402                 2.1612                 1.5236
 IR Inten    --     15.4217                58.4285                12.0977

                     46                     47                     48
                      A                      A                      A
 Frequencies --   1259.3449              1301.6331              1320.6140
 Red. masses --      1.2801                 6.3383                 2.9334
 Frc consts  --      1.1961                 6.3270                 3.0142
 IR Inten    --      2.6171                18.5496                37.3297

                     49                     50                     51
                      A                      A                      A
 Frequencies --   1366.5851              1381.0252              1397.4043
 Red. masses --      1.6559                 1.6871                 1.6944
 Frc consts  --      1.8221                 1.8958                 1.9495
 IR Inten    --     75.8645                75.4486                33.0907

                     52                     53                     54
                      A                      A                      A
 Frequencies --   1458.3458              1503.4506              1505.4825
 Red. masses --      1.9966                 1.1194                 1.0948
 Frc consts  --      2.5018                 1.4908                 1.4620
 IR Inten    --     27.0889                 1.2677                15.0332

                     55                     56                     57
                      A                      A                      A
 Frequencies --   1508.3330              1521.6577              1526.8056
 Red. masses --      1.1159                 1.0494                 1.0825
 Frc consts  --      1.4957                 1.4316                 1.4868
 IR Inten    --      0.8072                 6.4519                 4.7749

                     58                     59                     60
                      A                      A                      A
 Frequencies --   1539.4186              1543.7250              1549.1251
 Red. masses --      1.0604                 2.0830                 1.0501
 Frc consts  --      1.4806                 2.9247                 1.4848
 IR Inten    --     10.7265                 0.2202                 3.0833

                     61                     62                     63
                      A                      A                      A
 Frequencies --   1621.3608              1656.4515              2269.8576
 Red. masses --      7.1628                 5.2577                13.6552
 Frc consts  --     11.0942                 8.4998                41.4521
 IR Inten    --      9.9157                27.7926               598.2524

                     64                     65                     66
                      A                      A                      A
 Frequencies --   3027.6382              3048.7702              3082.6544
 Red. masses --      1.0396                 1.0318                 1.0587
 Frc consts  --      5.6147                 5.6503                 5.9274
 IR Inten    --     42.1120                45.6913                27.3028

                     67                     68                     69
                      A                      A                      A
 Frequencies --   3093.5115              3114.3182              3138.5666
 Red. masses --      1.0972                 1.1050                 1.1090
 Frc consts  --      6.1864                 6.3147                 6.4362
 IR Inten    --     38.3342                29.6937                11.5265

                     70                     71                     72
                      A                      A                      A
 Frequencies --   3142.0535              3153.0788              3174.4883
 Red. masses --      1.1045                 1.1009                 1.0884
 Frc consts  --      6.4243                 6.4489                 6.4622
 IR Inten    --     23.6808                27.8034                35.7913

                     73                     74                     75
                      A                      A                      A
 Frequencies --   3177.9070              3225.5636              3234.0840
 Red. masses --      1.0916                 1.0928                 1.0923
 Frc consts  --      6.4952                 6.6988                 6.7315
 IR Inten    --     18.9257                 3.9391                 4.2904

 - Thermochemistry -
 -------------------
 Temperature   298.150 Kelvin.  Pressure   1.00000 Atm.
 Atom     1 has atomic number  6 and mass  12.00000

 Molecular mass:   208.09603 amu.
 Principal axes and moments of inertia in atomic units:
                           1         2         3
     Eigenvalues --  2008.174334016.512894530.32693
           X            0.99998   0.00052   0.00699
           Y           -0.00003   0.99759  -0.06936
           Z           -0.00701   0.06936   0.99757
 This molecule is an asymmetric top.
 Rotational symmetry number  1.
 Warning -- assumption of classical behavior for rotation
           may cause significant error
 Rotational temperatures (Kelvin)      0.04313     0.02156     0.01912
 Rotational constants (GHZ):           0.89870     0.44933     0.39837
 Zero-point vibrational energy     564820.1 (Joules/Mol)
                                  134.99524 (Kcal/Mol)
 Warning -- explicit consideration of  21 degrees of freedom as
           vibrations may cause significant error
 Vibrational temperatures:     47.80    82.17    96.67   125.36   155.61
          (Kelvin)            189.45   222.54   250.22   282.26   336.78
                              345.80   367.02   422.11   488.37   508.43
                              560.92   611.60   689.55   740.70   809.47
                              826.63   912.01   965.62   987.58  1055.28
                             1107.95  1202.65  1267.15  1292.02  1383.97
                             1412.04  1435.20  1462.93  1471.17  1559.35
                             1568.18  1596.62  1627.25  1648.48  1668.60
                             1712.75  1716.35  1763.26  1790.56  1803.06
                             1811.92  1872.76  1900.07  1966.21  1986.99
                             2010.55  2098.23  2163.13  2166.05  2170.15
                             2189.33  2196.73  2214.88  2221.08  2228.85
                             2332.78  2383.26  3265.82  4356.10  4386.50
                             4435.25  4450.87  4480.81  4515.70  4520.71
                             4536.58  4567.38  4572.30  4640.87  4653.13

 Zero-point correction=                           0.215129 (Hartree/Particle)
 Thermal correction to Energy=                    0.229737
 Thermal correction to Enthalpy=                  0.230681
 Thermal correction to Gibbs Free Energy=         0.172668
 Sum of electronic and zero-point Energies=           -719.360974
 Sum of electronic and thermal Energies=              -719.346366
 Sum of electronic and thermal Enthalpies=            -719.345422
 Sum of electronic and thermal Free Energies=         -719.403435

                     E (Thermal)             CV                S
                      KCal/Mol        Cal/Mol-Kelvin    Cal/Mol-Kelvin
 Total                  144.162             52.896            122.099
 Electronic               0.000              0.000              0.000
 Translational            0.889              2.981             41.902
 Rotational               0.889              2.981             31.969
 Vibrational            142.384             46.935             48.228
 Vibration     1          0.594              1.983              5.627
 Vibration     2          0.596              1.975              4.555
 Vibration     3          0.598              1.970              4.234
 Vibration     4          0.601              1.958              3.723
 Vibration     5          0.606              1.943              3.302
 Vibration     6          0.612              1.922              2.921
 Vibration     7          0.620              1.897              2.614
 Vibration     8          0.627              1.875              2.393
 Vibration     9          0.636              1.845              2.169
 Vibration    10          0.654              1.789              1.847
 Vibration    11          0.657              1.779              1.800
 Vibration    12          0.665              1.754              1.695
 Vibration    13          0.688              1.686              1.454
 Vibration    14          0.719              1.597              1.215
 Vibration    15          0.730              1.568              1.151
 Vibration    16          0.758              1.492              1.001
 Vibration    17          0.787              1.416              0.875
 Vibration    18          0.836              1.296              0.712
 Vibration    19          0.870              1.217              0.622
 Vibration    20          0.918              1.112              0.519
 Vibration    21          0.931              1.086              0.496

 Optimization completed.
    -- Stationary point found.
 Normal termination of Gaussian 16 at Thu Dec 10 15:16:07 2020.

 ----------------------------------------------------------------------
 # B3LYP/6-311++G(d,p) empiricaldispersion=gd3bj scf=xqc pop=npa geom=c
 heck
 ----------------------------------------------------------------------

 ---------------------------------------
 CID_151971639_JID_5076_Energie_neutraal
 ---------------------------------------
 Structure from the checkpoint file:  "JID_5076.chk"
 Charge =  0 Multiplicity = 1

 SCF Done:  E(RB3LYP) =  -719.774085285     A.U. after   17 cycles
 Normal termination of Gaussian 16 at Thu Dec 10 15:21:05 2020.

 ----------------------------------------------------------------------
 # B3LYP/6-311++G(d,p) empiricaldispersion=gd3bj scf=xqc pop=npa geom=c
 heck
 ----------------------------------------------------------------------

 -------------------------------------
 CID_151971639_JID_5076_Energie_kation
 -------------------------------------
 Structure from the checkpoint file:  "JID_5076.chk"
 Charge =  1 Multiplicity = 2

 SCF Done:  E(UB3LYP) =  -719.448749512     A.U. after   31 cycles
 Normal termination of Gaussian 16 at Thu Dec 10 15:32:03 2020.
 Gaussian 16:  ES64L-G16RevA.03 25-Dec-2016

 ----------------------------------------------------------------------
 # B3LYP/6-311++G(d,p) empiricaldispersion=gd3bj scf=xqc pop=npa geom=c
 heck
 ----------------------------------------------------------------------

 ------------------------------------
 CID_151971639_JID_5076_Energie_anion
 ------------------------------------
 Structure from the checkpoint file:  "JID_5076.chk"
 Charge = -1 Multiplicity = 2

                         Standard orientation:
 ---------------------------------------------------------------------
 Center     Atomic      Atomic             Coordinates (Angstroms)
 Number     Number       Type             X           Y           Z
 ---------------------------------------------------------------------
      1          6           0        1.219173   -0.344070    2.053472
      2          8           0        0.821840    0.888133    1.459871
      3          6           0        0.339257    0.871182    0.135564
      4          6           0        1.472084    0.595688   -0.880430
      5          7           0        1.926949   -0.809331   -0.917322
      6          7           0        3.056781   -1.027327   -0.476780
      7          7           0        4.078229   -1.355515   -0.084338
      8          6           0       -0.888565   -0.029048    0.016389
      9          6           0       -1.889912    0.104695    0.984794
     10          6           0       -3.047104   -0.659218    0.868840
     11          7           0       -3.268232   -1.531249   -0.125975
     12          6           0       -2.305321   -1.652866   -1.044285
     13          6           0       -1.108347   -0.931538   -1.023035
     14          8           0       -0.011497    2.237204   -0.038432
     15          6           0       -0.890239    2.564336   -1.105277
     16          1           0        1.101497   -0.210729    3.131719
     17          1           0        2.270424   -0.576764    1.847514
     18          1           0        0.593128   -1.181557    1.728298
     19          1           0        1.119494    0.835694   -1.886914
     20          1           0        2.284122    1.282610   -0.626571
     21          1           0       -1.755824    0.799027    1.807241
     22          1           0       -3.839693   -0.569311    1.609335
     23          1           0       -2.494086   -2.366662   -1.844155
     24          1           0       -0.368234   -1.098810   -1.796439
     25          1           0       -0.520313    2.220410   -2.081059
     26          1           0       -1.895807    2.157368   -0.949452
     27          1           0       -0.939692    3.655015   -1.116319
 ---------------------------------------------------------------------

 SCF Done:  E(UB3LYP) =  -719.773658791     A.U. after   33 cycles
 SCF Done:  E(UB3LYP) =  -719.773658791     a.u. after    1 cycles

 The electronic state is 2-A.
 Alpha  occ. eigenvalues --  -19.00863 -19.00617 -14.32683 -14.23100 -14.22293
 Alpha  occ. eigenvalues --  -14.14616 -10.15847 -10.10343 -10.09490 -10.09196
 Alpha  occ. eigenvalues --  -10.05731 -10.05717 -10.03207 -10.03163 -10.02855
 Alpha  occ. eigenvalues --   -0.99950  -0.95439  -0.89228  -0.84248  -0.79231
 Alpha  occ. eigenvalues --   -0.67769  -0.64178  -0.61598  -0.60359  -0.56042
 Alpha  occ. eigenvalues --   -0.51345  -0.48512  -0.45814  -0.42558  -0.40643
 Alpha  occ. eigenvalues --   -0.39389  -0.38145  -0.37404  -0.35008  -0.33760
 Alpha  occ. eigenvalues --   -0.33315  -0.32370  -0.32287  -0.31593  -0.31441
 Alpha  occ. eigenvalues --   -0.29790  -0.29432  -0.28380  -0.26310  -0.25391
 Alpha  occ. eigenvalues --   -0.22304  -0.22111  -0.20047  -0.17703  -0.16151
 Alpha  occ. eigenvalues --   -0.15422  -0.14493  -0.12484  -0.11743  -0.11147
 Alpha  occ. eigenvalues --    0.05607
 Alpha virt. eigenvalues --    0.07651   0.08610   0.09482   0.10223   0.10260
 Alpha virt. eigenvalues --    0.11161   0.11725   0.12089   0.12496   0.13289
 Alpha virt. eigenvalues --    0.13492   0.14015   0.14604   0.15237   0.15724

  Beta  occ. eigenvalues --  -19.00760 -19.00575 -14.32361 -14.22753 -14.22328
  Beta  occ. eigenvalues --  -14.14170 -10.15861 -10.10347 -10.09491 -10.09129
  Beta  occ. eigenvalues --  -10.05701 -10.05693 -10.03183 -10.03146 -10.02455
  Beta  occ. eigenvalues --   -0.99386  -0.95279  -0.89065  -0.84000  -0.78646
  Beta  occ. eigenvalues --   -0.67302  -0.63865  -0.61382  -0.60219  -0.56006
  Beta  occ. eigenvalues --   -0.50859  -0.48397  -0.45546  -0.42375  -0.40352
  Beta  occ. eigenvalues --   -0.39236  -0.37541  -0.36859  -0.34757  -0.33550
  Beta  occ. eigenvalues --   -0.33134  -0.32180  -0.32011  -0.31379  -0.31037
  Beta  occ. eigenvalues --   -0.29701  -0.29145  -0.28330  -0.26057  -0.24222
  Beta  occ. eigenvalues --   -0.22122  -0.21915  -0.19842  -0.17081  -0.15924
  Beta  occ. eigenvalues --   -0.15183  -0.12652  -0.11859  -0.11483  -0.10725
  Beta virt. eigenvalues --    0.08043   0.09352   0.09859   0.10158   0.10796
  Beta virt. eigenvalues --    0.11041   0.11325   0.11742   0.12243   0.12563
  Beta virt. eigenvalues --    0.13320   0.13652   0.14176   0.14554   0.15208

 Mulliken charges and spin densities:
               1          2
     1  C   -0.374999  -0.023672
     2  O   -0.079487   0.007141
     3  C   -0.711883   0.014143
     4  C   -0.361117  -0.036259
     5  N   -0.104422   0.053724
     6  N    0.540431   0.075405
     7  N   -0.590950   0.173042
     8  C    0.040814   0.043909
     9  C    0.700837   0.166642
    10  C   -0.615845   0.017904
    11  N   -0.117405   0.189141
    12  C   -0.777148   0.002126
    13  C    0.015742   0.201702
    14  O   -0.012834  -0.001902
    15  C   -0.251219  -0.015639
    16  H    0.120451   0.006388
    17  H    0.132929  -0.003252
    18  H    0.149302   0.030504
    19  H    0.216034   0.006019
    20  H    0.191651   0.001279
    21  H    0.192234  -0.000534
    22  H    0.124739  -0.005515
    23  H    0.130241  -0.005495
    24  H    0.124804   0.026145
    25  H    0.070101   0.025405
    26  H    0.126513   0.047077
    27  H    0.120484   0.004571
 Sum of Mulliken charges =  -1.00000   1.00000

 Dipole moment (field-independent basis, Debye):
    X=              0.8848    Y=              3.4202    Z=             -0.5839  Tot=              3.5808
 Quadrupole moment (field-independent basis, Debye-Ang):
   XX=           -145.4617   YY=           -111.3958   ZZ=            -95.9376
   XY=             -1.7931   XZ=             -2.1824   YZ=             -4.8643

 Summary of Natural Population Analysis:

                                       Natural Population
                Natural  -----------------------------------------------
    Atom  No    Charge         Core      Valence    Rydberg      Total
 -----------------------------------------------------------------------
      C    1   -0.10429      0.99960     2.09658    0.00812     3.10429
      O    2   -0.29970      0.99985     3.29045    0.00940     4.29970
      C    3    0.29706      0.99944     1.68280    0.02070     2.70294
      C    4   -0.10508      0.99952     2.09442    0.01114     3.10508
      N    5   -0.20679      0.99969     2.69240    0.01469     3.70679
      N    6    0.14211      0.99970     2.34248    0.01570     3.35789
      N    7   -0.03168      0.99982     2.51828    0.01358     3.53168
      C    8    0.02172      0.99945     1.96700    0.01183     2.97828
      C    9   -0.12049      0.99951     2.11108    0.00990     3.12049
      C   10    0.01888      0.99960     1.96491    0.01661     2.98112
      N   11   -0.18836      0.99971     2.67662    0.01203     3.68836
      C   12    0.02202      0.99960     1.96180    0.01658     2.97798
      C   13   -0.11894      0.99951     2.11006    0.00937     3.11894
      O   14   -0.29369      0.99986     3.28373    0.01010     4.29369
      C   15   -0.10279      0.99960     2.09354    0.00964     3.10279
      H   16    0.08284      0.00000     0.41627    0.00089     0.41716
      H   17    0.08093      0.00000     0.41785    0.00123     0.41907
      H   18    0.09347      0.00000     0.40521    0.00133     0.40653
      H   19    0.09570      0.00000     0.40338    0.00093     0.40430
      H   20    0.09709      0.00000     0.40113    0.00178     0.40291
      H   21    0.10360      0.00000     0.39521    0.00120     0.39640
      H   22    0.07996      0.00000     0.41897    0.00107     0.42004
      H   23    0.08020      0.00000     0.41871    0.00109     0.41980
      H   24    0.10474      0.00000     0.39430    0.00096     0.39526
      H   25    0.07568      0.00000     0.42300    0.00132     0.42432
      H   26    0.09053      0.00000     0.40795    0.00152     0.40947
      H   27    0.08528      0.00000     0.41399    0.00073     0.41472
 =======================================================================
   * Total *   -0.00000     14.99447    39.80212    0.20342    55.00000

 Normal termination of Gaussian 16 at Thu Dec 10 15:43:01 2020.
