 Gaussian 16, Revision A.03,

 -----------------------------------------------------------
 # opt freq B3LYP/6-31G(d) empiricaldispersion=gd3bj scf=xqc
 -----------------------------------------------------------

 -------------------------------
 CID_137037927_JID_4025_neutraal
 -------------------------------
 Symbolic Z-matrix:
 Charge =  0 Multiplicity = 1

 SCF Done:  E(RB3LYP) =  -700.175558203     A.U. after   15 cycles
 SCF Done:  E(RB3LYP) =  -700.182474883     A.U. after   12 cycles
 SCF Done:  E(RB3LYP) =  -700.183588406     A.U. after   12 cycles
 SCF Done:  E(RB3LYP) =  -700.184024260     A.U. after   12 cycles
 SCF Done:  E(RB3LYP) =  -700.184240281     A.U. after   11 cycles
 SCF Done:  E(RB3LYP) =  -700.184703353     A.U. after   12 cycles
 SCF Done:  E(RB3LYP) =  -700.184898892     A.U. after   13 cycles
 SCF Done:  E(RB3LYP) =  -700.185338382     A.U. after   12 cycles
 SCF Done:  E(RB3LYP) =  -700.185669171     A.U. after   12 cycles
 SCF Done:  E(RB3LYP) =  -700.185751135     A.U. after   10 cycles
 SCF Done:  E(RB3LYP) =  -700.185768424     A.U. after   11 cycles
 SCF Done:  E(RB3LYP) =  -700.185775733     A.U. after   11 cycles
 SCF Done:  E(RB3LYP) =  -700.185784166     A.U. after   11 cycles
 SCF Done:  E(RB3LYP) =  -700.185788991     A.U. after   11 cycles
 SCF Done:  E(RB3LYP) =  -700.185789383     A.U. after    8 cycles
 SCF Done:  E(RB3LYP) =  -700.185789474     A.U. after    8 cycles
 Optimization completed.
    -- Stationary point found.
 Normal termination of Gaussian 16 at Thu Dec 10 09:15:16 2020.

 --------------------------------------------------------------------
 #N Geom=AllCheck Guess=TCheck SCRF=Check GenChk RB3LYP/6-31G(d) Freq
 --------------------------------------------------------------------

 Structure from the checkpoint file:  "JID_4025.chk"
 -------------------------------
 CID_137037927_JID_4025_neutraal
 -------------------------------
 Charge =  0 Multiplicity = 1

 SCF Done:  E(RB3LYP) =  -700.185789474     A.U. after    1 cycles

  Exact polarizability: 176.318 -15.237 152.598   0.812  -0.698  47.675
 Approx polarizability: 257.799 -26.727 259.008  -0.034   0.801  74.753

                      1                      2                      3
                      A                      A                      A
 Frequencies --     32.9165                44.6569                74.1402
 Red. masses --      4.4197                 2.7530                 6.9452
 Frc consts  --      0.0028                 0.0032                 0.0225
 IR Inten    --      3.1151                16.4749                 1.6677

                      4                      5                      6
                      A                      A                      A
 Frequencies --     78.4888               102.9142               129.7673
 Red. masses --      6.0936                 6.8099                 3.5929
 Frc consts  --      0.0221                 0.0425                 0.0356
 IR Inten    --      1.0475                 1.1853                 1.3413

                      7                      8                      9
                      A                      A                      A
 Frequencies --    140.9153               240.6178               240.7921
 Red. masses --      5.8950                 4.0381                 5.3668
 Frc consts  --      0.0690                 0.1377                 0.1833
 IR Inten    --      1.0725                 1.5795                 6.1877

                     10                     11                     12
                      A                      A                      A
 Frequencies --    295.8733               312.4568               345.3243
 Red. masses --      1.9510                 7.6767                 2.8113
 Frc consts  --      0.1006                 0.4416                 0.1975
 IR Inten    --     10.2124                19.4130                25.3674

                     13                     14                     15
                      A                      A                      A
 Frequencies --    354.4353               382.7072               429.7951
 Red. masses --      3.7343                 1.6563                 6.3156
 Frc consts  --      0.2764                 0.1429                 0.6874
 IR Inten    --      2.9225                16.2524                26.2674

                     16                     17                     18
                      A                      A                      A
 Frequencies --    483.0865               521.1140               537.7385
 Red. masses --      5.8355                 2.4992                 5.5569
 Frc consts  --      0.8024                 0.3999                 0.9467
 IR Inten    --     15.2637                 2.0148                 7.0786

                     19                     20                     21
                      A                      A                      A
 Frequencies --    612.3492               626.1789               672.1719
 Red. masses --      1.2363                 5.6983                 1.9536
 Frc consts  --      0.2731                 1.3164                 0.5200
 IR Inten    --     64.5779                27.4244                 1.9655

                     22                     23                     24
                      A                      A                      A
 Frequencies --    688.8404               732.2479               742.5426
 Red. masses --      4.1040                 4.1048                 2.0535
 Frc consts  --      1.1474                 1.2967                 0.6671
 IR Inten    --     43.8035                61.5927               153.6290

                     25                     26                     27
                      A                      A                      A
 Frequencies --    746.7418               819.0322               873.5112
 Red. masses --      4.4844                 1.6297                 4.6752
 Frc consts  --      1.4733                 0.6441                 2.1018
 IR Inten    --     24.8130               402.8504                14.2923

                     28                     29                     30
                      A                      A                      A
 Frequencies --    906.5361               918.9565               925.5557
 Red. masses --      2.1306                 1.6258                 3.9697
 Frc consts  --      1.0316                 0.8089                 2.0036
 IR Inten    --     16.8257                11.0478                20.1423

                     31                     32                     33
                      A                      A                      A
 Frequencies --    948.4216               984.5321              1040.8298
 Red. masses --      1.4831                 1.5069                 1.4053
 Frc consts  --      0.7860                 0.8606                 0.8970
 IR Inten    --     22.2851                 0.0776                22.4992

                     34                     35                     36
                      A                      A                      A
 Frequencies --   1098.2482              1131.4850              1147.0606
 Red. masses --      2.0755                 4.9113                 3.1348
 Frc consts  --      1.4749                 3.7047                 2.4301
 IR Inten    --     15.9514                99.2228                66.8017

                     37                     38                     39
                      A                      A                      A
 Frequencies --   1157.3045              1201.2763              1253.4530
 Red. masses --      1.1264                 2.0267                 1.4201
 Frc consts  --      0.8889                 1.7231                 1.3146
 IR Inten    --      0.6970               234.7717                17.3021

                     40                     41                     42
                      A                      A                      A
 Frequencies --   1258.7092              1308.1998              1320.8716
 Red. masses --      2.1497                 1.1967                 2.3305
 Frc consts  --      2.0067                 1.2066                 2.3957
 IR Inten    --     51.6773                 5.8224               148.0836

                     43                     44                     45
                      A                      A                      A
 Frequencies --   1371.4156              1381.6239              1399.1506
 Red. masses --      2.7730                 4.3170                 2.7303
 Frc consts  --      3.0728                 4.8553                 3.1492
 IR Inten    --     16.1921               368.7382                99.6627

                     46                     47                     48
                      A                      A                      A
 Frequencies --   1400.2864              1452.6698              1504.6525
 Red. masses --      1.8025                 1.1402                 2.0732
 Frc consts  --      2.0823                 1.4176                 2.7655
 IR Inten    --    118.6311                 0.1226                70.4322

                     49                     50                     51
                      A                      A                      A
 Frequencies --   1574.9220              1660.3543              1696.1542
 Red. masses --      7.2208                 6.2679                 1.2411
 Frc consts  --     10.5524                10.1806                 2.1037
 IR Inten    --     12.5896                86.8354                21.7023

                     52                     53                     54
                      A                      A                      A
 Frequencies --   1732.1614              1753.1852              1816.4263
 Red. masses --      5.6555                 4.5177                 9.7113
 Frc consts  --      9.9977                 8.1813                18.8782
 IR Inten    --    111.7205               291.8167               395.4350

                     55                     56                     57
                      A                      A                      A
 Frequencies --   3049.2754              3082.7739              3195.2388
 Red. masses --      1.0607                 1.0997                 1.0870
 Frc consts  --      5.8105                 6.1575                 6.5384
 IR Inten    --      2.2734                 2.3381                18.6896

                     58                     59                     60
                      A                      A                      A
 Frequencies --   3250.5076              3266.9573              3413.2101
 Red. masses --      1.0936                 1.0969                 1.0545
 Frc consts  --      6.8081                 6.8976                 7.2381
 IR Inten    --      2.7047                 0.1500                 8.3976

                     61                     62                     63
                      A                      A                      A
 Frequencies --   3572.4762              3584.5183              3697.0210
 Red. masses --      1.0750                 1.0888                 1.0641
 Frc consts  --      8.0835                 8.2422                 8.5689
 IR Inten    --     58.6729                 9.0905                79.1462

 - Thermochemistry -
 -------------------
 Temperature   298.150 Kelvin.  Pressure   1.00000 Atm.
 Atom     1 has atomic number  6 and mass  12.00000

 Molecular mass:   195.06439 amu.
 Principal axes and moments of inertia in atomic units:
                           1         2         3
     Eigenvalues --  1874.145104803.687966663.78703
           X            0.99975  -0.02244   0.00189
           Y            0.02244   0.99974  -0.00346
           Z           -0.00182   0.00350   0.99999
 This molecule is an asymmetric top.
 Rotational symmetry number  1.
 Warning -- assumption of classical behavior for rotation
           may cause significant error
 Rotational temperatures (Kelvin)      0.04622     0.01803     0.01300
 Rotational constants (GHZ):           0.96297     0.37570     0.27083
 Zero-point vibrational energy     458874.2 (Joules/Mol)
                                  109.67357 (Kcal/Mol)
 Warning -- explicit consideration of  19 degrees of freedom as
           vibrations may cause significant error
 Vibrational temperatures:     47.36    64.25   106.67   112.93   148.07
          (Kelvin)            186.71   202.75   346.20   346.45   425.70
                              449.56   496.84   509.95   550.63   618.38
                              695.05   749.77   773.69   881.03   900.93
                              967.11   991.09  1053.54  1068.35  1074.39
                             1178.40  1256.79  1304.30  1322.17  1331.67
                             1364.57  1416.52  1497.52  1580.13  1627.95
                             1650.36  1665.10  1728.37  1803.44  1811.00
                             1882.21  1900.44  1973.16  1987.85  2013.07
                             2014.70  2090.07  2164.86  2265.96  2388.88
                             2440.39  2492.19  2522.44  2613.43  4387.23
                             4435.42  4597.24  4676.76  4700.42  4910.85
                             5140.00  5157.32  5319.19

 Zero-point correction=                           0.174776 (Hartree/Particle)
 Thermal correction to Energy=                    0.188200
 Thermal correction to Enthalpy=                  0.189144
 Thermal correction to Gibbs Free Energy=         0.132948
 Sum of electronic and zero-point Energies=           -700.011014
 Sum of electronic and thermal Energies=              -699.997589
 Sum of electronic and thermal Enthalpies=            -699.996645
 Sum of electronic and thermal Free Energies=         -700.052841

                     E (Thermal)             CV                S
                      KCal/Mol        Cal/Mol-Kelvin    Cal/Mol-Kelvin
 Total                  118.097             48.646            118.274
 Electronic               0.000              0.000              0.000
 Translational            0.889              2.981             41.710
 Rotational               0.889              2.981             32.462
 Vibrational            116.320             42.684             44.103
 Vibration     1          0.594              1.983              5.645
 Vibration     2          0.595              1.980              5.041
 Vibration     3          0.599              1.966              4.040
 Vibration     4          0.600              1.964              3.928
 Vibration     5          0.605              1.947              3.398
 Vibration     6          0.612              1.924              2.949
 Vibration     7          0.615              1.912              2.791
 Vibration     8          0.658              1.778              1.798
 Vibration     9          0.658              1.778              1.797
 Vibration    10          0.690              1.681              1.440
 Vibration    11          0.701              1.650              1.349
 Vibration    12          0.724              1.585              1.187
 Vibration    13          0.730              1.566              1.146
 Vibration    14          0.752              1.507              1.028
 Vibration    15          0.791              1.405              0.859
 Vibration    16          0.839              1.288              0.702
 Vibration    17          0.876              1.203              0.607
 Vibration    18          0.893              1.167              0.570
 Vibration    19          0.972              1.006              0.429

                           ! Non-Optimized Parameters !
 Normal termination of Gaussian 16 at Thu Dec 10 09:20:09 2020.

 ----------------------------------------------------------------------
 # B3LYP/6-311++G(d,p) empiricaldispersion=gd3bj scf=xqc pop=npa geom=c
 heck
 ----------------------------------------------------------------------

 ---------------------------------------
 CID_137037927_JID_4025_Energie_neutraal
 ---------------------------------------
 Structure from the checkpoint file:  "JID_4025.chk"
 Charge =  0 Multiplicity = 1

 SCF Done:  E(RB3LYP) =  -700.404292103     A.U. after   15 cycles
 Normal termination of Gaussian 16 at Thu Dec 10 09:22:11 2020.

 ----------------------------------------------------------------------
 # B3LYP/6-311++G(d,p) empiricaldispersion=gd3bj scf=xqc pop=npa geom=c
 heck
 ----------------------------------------------------------------------

 -------------------------------------
 CID_137037927_JID_4025_Energie_kation
 -------------------------------------
 Structure from the checkpoint file:  "JID_4025.chk"
 Charge =  1 Multiplicity = 2

 SCF Done:  E(UB3LYP) =  -700.102043256     A.U. after   28 cycles
 Normal termination of Gaussian 16 at Thu Dec 10 09:26:55 2020.
 Gaussian 16:  ES64L-G16RevA.03 25-Dec-2016

 ----------------------------------------------------------------------
 # B3LYP/6-311++G(d,p) empiricaldispersion=gd3bj scf=xqc pop=npa geom=c
 heck
 ----------------------------------------------------------------------

 ------------------------------------
 CID_137037927_JID_4025_Energie_anion
 ------------------------------------
 Structure from the checkpoint file:  "JID_4025.chk"
 Charge = -1 Multiplicity = 2

                         Standard orientation:
 ---------------------------------------------------------------------
 Center     Atomic      Atomic             Coordinates (Angstroms)
 Number     Number       Type             X           Y           Z
 ---------------------------------------------------------------------
      1          6           0       -0.599133   -0.214769   -0.011040
      2          6           0       -0.011836    1.178504   -0.007446
      3          6           0       -1.036564    2.075751    0.001955
      4          6           0       -2.306772    1.378993    0.006358
      5          6           0       -2.081945    0.039995    0.001231
      6          6           0       -3.127726   -0.985595    0.003329
      7          8           0       -4.325084   -0.777094    0.011079
      8          8           0       -2.604928   -2.244523   -0.003914
      9          6           0        1.392295    1.657738   -0.002018
     10          8           0        1.637125    2.861964    0.015862
     11          7           0        2.456061    0.771429   -0.013408
     12          6           0        2.544271   -0.616330   -0.032274
     13          7           0        3.696925   -1.161675    0.035588
     14          7           0        3.758589   -2.543718   -0.092416
     15          1           0       -0.294174   -0.808352    0.861019
     16          1           0       -0.313335   -0.795128   -0.898650
     17          1           0       -0.901452    3.149600    0.007248
     18          1           0       -3.284836    1.844760    0.013216
     19          1           0       -3.370957   -2.847978   -0.003934
     20          1           0        3.352084    1.248720    0.009259
     21          1           0        1.614359   -1.172042   -0.123371
     22          1           0        2.937999   -3.024549    0.284810
     23          1           0        4.586848   -2.865790    0.397256
 ---------------------------------------------------------------------

 SCF Done:  E(UB3LYP) =  -700.449546390     A.U. after   23 cycles

 The electronic state is 2-A.
 Alpha  occ. eigenvalues --  -19.03438 -18.95898 -18.94167 -14.24306 -14.22711
 Alpha  occ. eigenvalues --  -14.22185 -10.14723 -10.13147 -10.13082 -10.04526
 Alpha  occ. eigenvalues --  -10.02619 -10.02397 -10.02307 -10.02171  -0.96749
 Alpha  occ. eigenvalues --   -0.90624  -0.88972  -0.87373  -0.81009  -0.72345
 Alpha  occ. eigenvalues --   -0.69325  -0.60147  -0.57602  -0.53059  -0.51398
 Alpha  occ. eigenvalues --   -0.48753  -0.43968  -0.43292  -0.39617  -0.38514
 Alpha  occ. eigenvalues --   -0.37384  -0.35251  -0.34470  -0.32824  -0.31661
 Alpha  occ. eigenvalues --   -0.31309  -0.29378  -0.28592  -0.27003  -0.26176
 Alpha  occ. eigenvalues --   -0.23866  -0.23189  -0.22710  -0.19951  -0.19459
 Alpha  occ. eigenvalues --   -0.18155  -0.16740  -0.14311  -0.12285  -0.10671
 Alpha  occ. eigenvalues --   -0.09474   0.01544
 Alpha virt. eigenvalues --    0.06732   0.08689   0.09790   0.10472   0.10830
 Alpha virt. eigenvalues --    0.11535   0.12464   0.13168   0.13747   0.13981
 Alpha virt. eigenvalues --    0.15442   0.16285   0.16377   0.17110   0.17864

  Beta  occ. eigenvalues --  -19.03392 -18.95669 -18.93912 -14.24297 -14.22718
  Beta  occ. eigenvalues --  -14.22084 -10.14584 -10.13087 -10.13024 -10.04573
  Beta  occ. eigenvalues --  -10.02478 -10.02223 -10.02099 -10.01913  -0.96547
  Beta  occ. eigenvalues --   -0.90358  -0.88756  -0.87035  -0.80888  -0.71914
  Beta  occ. eigenvalues --   -0.69246  -0.59458  -0.57176  -0.52821  -0.51090
  Beta  occ. eigenvalues --   -0.48611  -0.43864  -0.42956  -0.39369  -0.38294
  Beta  occ. eigenvalues --   -0.37205  -0.35111  -0.34268  -0.32079  -0.31336
  Beta  occ. eigenvalues --   -0.30824  -0.28799  -0.28323  -0.26341  -0.25954
  Beta  occ. eigenvalues --   -0.23560  -0.23029  -0.22490  -0.19266  -0.18580
  Beta  occ. eigenvalues --   -0.18009  -0.15318  -0.14059  -0.12008  -0.10116
  Beta  occ. eigenvalues --   -0.07545
  Beta virt. eigenvalues --    0.06641   0.07195   0.08673   0.10129   0.10744
  Beta virt. eigenvalues --    0.10942   0.11532   0.13076   0.13180   0.13717
  Beta virt. eigenvalues --    0.14919   0.15402   0.16266   0.16377   0.17101

 Mulliken charges and spin densities:
               1          2
     1  C   -1.564433  -0.056949
     2  C    0.637271   0.154483
     3  C   -0.264323   0.129899
     4  C   -0.212250   0.158437
     5  C    0.466896   0.118149
     6  C    0.347940   0.118858
     7  O   -0.411204   0.081675
     8  O   -0.223699   0.011802
     9  C   -0.178696   0.083298
    10  O   -0.422189   0.095157
    11  N   -0.309328  -0.004464
    12  C   -0.273674   0.004906
    13  N   -0.233570   0.040345
    14  N   -0.167062   0.006907
    15  H    0.150329   0.040366
    16  H    0.138615   0.035461
    17  H    0.156032  -0.007380
    18  H    0.136373  -0.009089
    19  H    0.264876  -0.000788
    20  H    0.314054  -0.001257
    21  H    0.239211  -0.005823
    22  H    0.184994   0.005494
    23  H    0.223836   0.000515
 Sum of Mulliken charges =  -1.00000   1.00000

 Dipole moment (field-independent basis, Debye):
    X=              3.0331    Y=             -5.3951    Z=              1.0363  Tot=              6.2754
 Quadrupole moment (field-independent basis, Debye-Ang):
   XX=           -135.8767   YY=           -101.3005   ZZ=            -88.8208
   XY=             -6.9565   XZ=              4.7628   YZ=             -3.9257

 Summary of Natural Population Analysis:

                                       Natural Population
                Natural  -----------------------------------------------
    Atom  No    Charge         Core      Valence    Rydberg      Total
 -----------------------------------------------------------------------
      C    1   -0.22155      0.99960     2.21523    0.00672     3.22155
      C    2   -0.01234      0.99945     2.00373    0.00916     3.01234
      C    3   -0.06014      0.99951     2.05159    0.00904     3.06014
      C    4   -0.05273      0.99950     2.04451    0.00872     3.05273
      C    5   -0.02073      0.99945     2.01058    0.01071     3.02073
      C    6    0.40148      0.99962     1.57517    0.02373     2.59852
      O    7   -0.30815      0.99987     3.30174    0.00653     4.30815
      O    8   -0.35384      0.99988     3.34816    0.00580     4.35384
      C    9    0.34149      0.99961     1.63754    0.02135     2.65851
      O   10   -0.30503      0.99988     3.29857    0.00657     4.30503
      N   11   -0.30807      0.99966     2.79988    0.00853     3.80807
      C   12    0.11617      0.99963     1.86815    0.01605     2.88383
      N   13   -0.16882      0.99964     2.65186    0.01732     3.66882
      N   14   -0.31926      0.99977     2.80613    0.01336     3.81926
      H   15    0.11499      0.00000     0.38369    0.00131     0.38501
      H   16    0.11545      0.00000     0.38324    0.00131     0.38455
      H   17    0.10339      0.00000     0.39560    0.00102     0.39661
      H   18    0.09924      0.00000     0.39979    0.00097     0.40076
      H   19    0.22677      0.00000     0.26737    0.00586     0.27323
      H   20    0.19497      0.00000     0.30194    0.00310     0.30503
      H   21    0.08241      0.00000     0.41559    0.00201     0.41759
      H   22    0.16172      0.00000     0.33624    0.00205     0.33828
      H   23    0.17257      0.00000     0.32563    0.00180     0.32743
 =======================================================================
   * Total *   -0.00000     13.99508    36.82192    0.18300    51.00000

 Normal termination of Gaussian 16 at Thu Dec 10 09:31:15 2020.
