 Gaussian 16, Revision A.03,

 -----------------------------------------------------------
 # opt freq B3LYP/6-31G(d) empiricaldispersion=gd3bj scf=xqc
 -----------------------------------------------------------

 ------------------------------
 CID_63103067_JID_7858_neutraal
 ------------------------------
 Symbolic Z-matrix:
 Charge =  0 Multiplicity = 1

 SCF Done:  E(RB3LYP) =  -793.244457026     A.U. after   15 cycles
 SCF Done:  E(RB3LYP) =  -793.249132859     A.U. after   13 cycles
 SCF Done:  E(RB3LYP) =  -793.248955370     A.U. after   13 cycles
 SCF Done:  E(RB3LYP) =  -793.252550470     A.U. after   12 cycles
 SCF Done:  E(RB3LYP) =  -793.253962920     A.U. after   12 cycles
 SCF Done:  E(RB3LYP) =  -793.254943950     A.U. after   12 cycles
 SCF Done:  E(RB3LYP) =  -793.255080032     A.U. after   12 cycles
 SCF Done:  E(RB3LYP) =  -793.255277588     A.U. after   11 cycles
 SCF Done:  E(RB3LYP) =  -793.255326851     A.U. after   11 cycles
 SCF Done:  E(RB3LYP) =  -793.255343806     A.U. after   11 cycles
 SCF Done:  E(RB3LYP) =  -793.255358219     A.U. after    8 cycles
 SCF Done:  E(RB3LYP) =  -793.255358561     A.U. after    8 cycles
 SCF Done:  E(RB3LYP) =  -793.255358637     A.U. after    8 cycles
 SCF Done:  E(RB3LYP) =  -793.255358661     A.U. after    7 cycles
 Optimization completed.
    -- Stationary point found.
 Normal termination of Gaussian 16 at Fri Dec 11 13:28:53 2020.

 --------------------------------------------------------------------
 #N Geom=AllCheck Guess=TCheck SCRF=Check GenChk RB3LYP/6-31G(d) Freq
 --------------------------------------------------------------------

 Structure from the checkpoint file:  "JID_7858.chk"
 ------------------------------
 CID_63103067_JID_7858_neutraal
 ------------------------------
 Charge =  0 Multiplicity = 1

 SCF Done:  E(RB3LYP) =  -793.255358661     A.U. after    1 cycles

  Exact polarizability: 185.731 -13.420 140.795   0.178  -1.741  91.513
 Approx polarizability: 246.676 -21.959 254.168   2.965  -4.546 147.518

                      1                      2                      3
                      A                      A                      A
 Frequencies --     21.4001                39.9361                53.7020
 Red. masses --      4.8471                 4.9714                 5.5173
 Frc consts  --      0.0013                 0.0047                 0.0094
 IR Inten    --      0.4636                 1.8289                 1.8582

                      4                      5                      6
                      A                      A                      A
 Frequencies --     71.4934                91.8680               106.1827
 Red. masses --      4.4223                 3.7494                 5.7951
 Frc consts  --      0.0133                 0.0186                 0.0385
 IR Inten    --      1.4935                 1.5705                 2.5366

                      7                      8                      9
                      A                      A                      A
 Frequencies --    131.9988               177.9806               201.7517
 Red. masses --      5.4156                 4.3515                 4.9307
 Frc consts  --      0.0556                 0.0812                 0.1182
 IR Inten    --      5.2486                 1.7284                 2.0052

                     10                     11                     12
                      A                      A                      A
 Frequencies --    244.5059               258.7088               273.2283
 Red. masses --      1.7627                 1.9591                 3.1569
 Frc consts  --      0.0621                 0.0773                 0.1389
 IR Inten    --      0.5925                 1.0451                 4.2737

                     13                     14                     15
                      A                      A                      A
 Frequencies --    313.3789               336.2404               354.4836
 Red. masses --      2.3237                 1.5954                 4.8742
 Frc consts  --      0.1345                 0.1063                 0.3609
 IR Inten    --     28.2111                29.4195                 3.2906

                     16                     17                     18
                      A                      A                      A
 Frequencies --    390.3184               436.1268               455.6377
 Red. masses --      1.9014                 3.2928                 3.9637
 Frc consts  --      0.1707                 0.3690                 0.4848
 IR Inten    --      3.2446                 3.8428                10.7144

                     19                     20                     21
                      A                      A                      A
 Frequencies --    515.7236               537.9940               609.1474
 Red. masses --      1.8880                 3.4763                 3.9515
 Frc consts  --      0.2959                 0.5928                 0.8639
 IR Inten    --     40.2733                 8.9016                 1.1843

                     22                     23                     24
                      A                      A                      A
 Frequencies --    631.3930               634.0943               661.9839
 Red. masses --      3.4867                 4.5160                 3.9140
 Frc consts  --      0.8190                 1.0698                 1.0106
 IR Inten    --     11.1861                 4.9293                41.8044

                     25                     26                     27
                      A                      A                      A
 Frequencies --    668.9593               707.1559               713.0640
 Red. masses --      5.9240                 2.5242                 6.0654
 Frc consts  --      1.5619                 0.7437                 1.8170
 IR Inten    --      1.8222                51.6402                21.4721

                     28                     29                     30
                      A                      A                      A
 Frequencies --    755.3863               760.8332               769.4667
 Red. masses --      1.2149                 3.1580                 3.8813
 Frc consts  --      0.4084                 1.0771                 1.3540
 IR Inten    --     47.7246                56.0243                 7.4227

                     31                     32                     33
                      A                      A                      A
 Frequencies --    811.6907               830.2427               837.7874
 Red. masses --      1.3003                 1.2692                 1.5726
 Frc consts  --      0.5048                 0.5155                 0.6503
 IR Inten    --     59.6175                 1.6462               108.5708

                     34                     35                     36
                      A                      A                      A
 Frequencies --    856.4086               887.6521               902.8862
 Red. masses --      2.0277                 1.3048                 1.8936
 Frc consts  --      0.8762                 0.6057                 0.9095
 IR Inten    --     58.4040                 1.8190                57.1733

                     37                     38                     39
                      A                      A                      A
 Frequencies --    940.3720               946.1439               962.0933
 Red. masses --      2.1693                 3.6443                 3.7120
 Frc consts  --      1.1302                 1.9221                 2.0244
 IR Inten    --     15.6055                 5.0271                66.2056

                     40                     41                     42
                      A                      A                      A
 Frequencies --    979.2871               994.5953              1075.1806
 Red. masses --      1.9246                 2.4042                 1.5152
 Frc consts  --      1.0874                 1.4013                 1.0320
 IR Inten    --      8.2169                12.4027                25.2536

                     43                     44                     45
                      A                      A                      A
 Frequencies --   1090.9967              1094.7247              1122.3450
 Red. masses --      1.7572                 1.6380                 2.1711
 Frc consts  --      1.2323                 1.1566                 1.6113
 IR Inten    --      7.7188                 2.8896                 1.1929

                     46                     47                     48
                      A                      A                      A
 Frequencies --   1126.4146              1169.7554              1172.7368
 Red. masses --      1.7162                 2.4164                 2.2226
 Frc consts  --      1.2830                 1.9481                 1.8010
 IR Inten    --     18.0482                66.0039                 3.7448

                     49                     50                     51
                      A                      A                      A
 Frequencies --   1201.5817              1232.7912              1269.3548
 Red. masses --      2.4869                 1.8257                 2.0751
 Frc consts  --      2.1155                 1.6348                 1.9699
 IR Inten    --     11.4329                52.7206                33.6444

                     52                     53                     54
                      A                      A                      A
 Frequencies --   1280.4262              1292.7604              1323.9891
 Red. masses --      3.0477                 1.8386                 2.4172
 Frc consts  --      2.9439                 1.8104                 2.4965
 IR Inten    --     29.6715                20.2825                20.4444

                     55                     56                     57
                      A                      A                      A
 Frequencies --   1356.3541              1379.4957              1385.9556
 Red. masses --      1.8146                 4.5077                 1.7023
 Frc consts  --      1.9668                 5.0542                 1.9266
 IR Inten    --      1.3843               188.1839                30.5498

                     58                     59                     60
                      A                      A                      A
 Frequencies --   1399.3075              1409.4785              1417.2799
 Red. masses --      1.4142                 2.5849                 1.9327
 Frc consts  --      1.6314                 3.0256                 2.2874
 IR Inten    --     25.3015               103.1495                24.9435

                     61                     62                     63
                      A                      A                      A
 Frequencies --   1442.1486              1448.6328              1468.9055
 Red. masses --      1.3002                 3.6812                 2.6504
 Frc consts  --      1.5932                 4.5515                 3.3694
 IR Inten    --      7.9911                28.2050                43.5438

                     64                     65                     66
                      A                      A                      A
 Frequencies --   1496.4492              1503.9183              1510.8147
 Red. masses --      2.5299                 1.1876                 1.2436
 Frc consts  --      3.3379                 1.5826                 1.6724
 IR Inten    --      0.0558                 8.3909                55.4851

                     67                     68                     69
                      A                      A                      A
 Frequencies --   1528.2629              1532.0366              1559.1426
 Red. masses --      1.0638                 1.2022                 4.2755
 Frc consts  --      1.4638                 1.6626                 6.1236
 IR Inten    --      9.4847                43.9049                62.2872

                     70                     71                     72
                      A                      A                      A
 Frequencies --   1572.0049              1625.5031              1688.1121
 Red. masses --      4.0264                 4.2754                 1.1969
 Frc consts  --      5.8624                 6.6559                 2.0096
 IR Inten    --     21.1670                19.3399                77.8930

                     73                     74                     75
                      A                      A                      A
 Frequencies --   1751.6423              3054.3890              3083.3591
 Red. masses --      7.8397                 1.0372                 1.0609
 Frc consts  --     14.1724                 5.7012                 5.9425
 IR Inten    --    369.6747                17.4225                24.6880

                     76                     77                     78
                      A                      A                      A
 Frequencies --   3110.9225              3124.5818              3139.0918
 Red. masses --      1.0881                 1.0987                 1.1054
 Frc consts  --      6.2044                 6.3199                 6.4177
 IR Inten    --      2.2963                19.2943                17.1831

                     79                     80                     81
                      A                      A                      A
 Frequencies --   3143.3948              3254.7911              3262.3067
 Red. masses --      1.1023                 1.0960                 1.0929
 Frc consts  --      6.4171                 6.8406                 6.8532
 IR Inten    --     15.2904                 9.0109                 3.8712

                     82                     83                     84
                      A                      A                      A
 Frequencies --   3273.5182              3292.5477              3474.0383
 Red. masses --      1.0937                 1.1061                 1.0754
 Frc consts  --      6.9052                 7.0646                 7.6473
 IR Inten    --      2.4884                 1.9094               190.4132

                     85                     86                     87
                      A                      A                      A
 Frequencies --   3508.4183              3606.0495              3657.8820
 Red. masses --      1.0494                 1.0957                 1.0812
 Frc consts  --      7.6106                 8.3948                 8.5231
 IR Inten    --      5.2289                10.7323               101.0876

 - Thermochemistry -
 -------------------
 Temperature   298.150 Kelvin.  Pressure   1.00000 Atm.
 Atom     1 has atomic number  6 and mass  12.00000

 Molecular mass:   234.12291 amu.
 Principal axes and moments of inertia in atomic units:
                           1         2         3
     Eigenvalues --  1477.543287535.306788179.36945
           X            0.99997  -0.00520  -0.00591
           Y            0.00531   0.99980   0.01913
           Z            0.00581  -0.01916   0.99980
 This molecule is an asymmetric top.
 Rotational symmetry number  1.
 Warning -- assumption of classical behavior for rotation
           may cause significant error
 Rotational temperatures (Kelvin)      0.05862     0.01149     0.01059
 Rotational constants (GHZ):           1.22145     0.23950     0.22065
 Zero-point vibrational energy     668635.3 (Joules/Mol)
                                  159.80768 (Kcal/Mol)
 Warning -- explicit consideration of  21 degrees of freedom as
           vibrations may cause significant error
 Vibrational temperatures:     30.79    57.46    77.27   102.86   132.18
          (Kelvin)            152.77   189.92   256.07   290.28   351.79
                              372.22   393.11   450.88   483.77   510.02
                              561.58   627.49   655.56   742.01   774.05
                              876.43   908.43   912.32   952.45   962.48
                             1017.44  1025.94  1086.83  1094.67  1107.09
                             1167.84  1194.53  1205.39  1232.18  1277.13
                             1299.05  1352.99  1361.29  1384.24  1408.98
                             1431.00  1546.95  1569.70  1575.06  1614.80
                             1620.66  1683.02  1687.31  1728.81  1773.71
                             1826.32  1842.25  1859.99  1904.92  1951.49
                             1984.79  1994.08  2013.29  2027.93  2039.15
                             2074.93  2084.26  2113.43  2153.06  2163.80
                             2173.73  2198.83  2204.26  2243.26  2261.76
                             2338.74  2428.82  2520.22  4394.58  4436.27
                             4475.92  4495.58  4516.45  4522.64  4682.92
                             4693.73  4709.86  4737.24  4998.37  5047.83
                             5188.30  5262.88

 Zero-point correction=                           0.254670 (Hartree/Particle)
 Thermal correction to Energy=                    0.270122
 Thermal correction to Enthalpy=                  0.271066
 Thermal correction to Gibbs Free Energy=         0.210158
 Sum of electronic and zero-point Energies=           -793.000689
 Sum of electronic and thermal Energies=              -792.985237
 Sum of electronic and thermal Enthalpies=            -792.984292
 Sum of electronic and thermal Free Energies=         -793.045201

                     E (Thermal)             CV                S
                      KCal/Mol        Cal/Mol-Kelvin    Cal/Mol-Kelvin
 Total                  169.504             58.416            128.193
 Electronic               0.000              0.000              0.000
 Translational            0.889              2.981             42.254
 Rotational               0.889              2.981             32.876
 Vibrational            167.727             52.454             53.063
 Vibration     1          0.593              1.985              6.500
 Vibration     2          0.594              1.981              5.262
 Vibration     3          0.596              1.976              4.676
 Vibration     4          0.598              1.968              4.112
 Vibration     5          0.602              1.955              3.620
 Vibration     6          0.605              1.944              3.338
 Vibration     7          0.612              1.921              2.917
 Vibration     8          0.628              1.869              2.349
 Vibration     9          0.639              1.837              2.117
 Vibration    10          0.660              1.772              1.770
 Vibration    11          0.668              1.748              1.670
 Vibration    12          0.676              1.723              1.576
 Vibration    13          0.701              1.648              1.344
 Vibration    14          0.717              1.603              1.230
 Vibration    15          0.730              1.566              1.146
 Vibration    16          0.758              1.491              0.999
 Vibration    17          0.797              1.391              0.839
 Vibration    18          0.814              1.348              0.779
 Vibration    19          0.871              1.215              0.620
 Vibration    20          0.893              1.166              0.570
 Vibration    21          0.968              1.012              0.434

 Optimization completed.
    -- Stationary point found.
 Normal termination of Gaussian 16 at Fri Dec 11 13:40:59 2020.

 ----------------------------------------------------------------------
 # B3LYP/6-311++G(d,p) empiricaldispersion=gd3bj scf=xqc pop=npa geom=c
 heck
 ----------------------------------------------------------------------

 --------------------------------------
 CID_63103067_JID_7858_Energie_neutraal
 --------------------------------------
 Structure from the checkpoint file:  "JID_7858.chk"
 Charge =  0 Multiplicity = 1

 SCF Done:  E(RB3LYP) =  -793.484652180     A.U. after   16 cycles
 Normal termination of Gaussian 16 at Fri Dec 11 13:46:57 2020.

 ----------------------------------------------------------------------
 # B3LYP/6-311++G(d,p) empiricaldispersion=gd3bj scf=xqc pop=npa geom=c
 heck
 ----------------------------------------------------------------------

 ------------------------------------
 CID_63103067_JID_7858_Energie_kation
 ------------------------------------
 Structure from the checkpoint file:  "JID_7858.chk"
 Charge =  1 Multiplicity = 2

 SCF Done:  E(UB3LYP) =  -793.187376612     A.U. after   33 cycles
 SCF Done:  E(UB3LYP) =  -793.187376612     a.u. after    2 cycles
 Normal termination of Gaussian 16 at Fri Dec 11 14:21:08 2020.
 Gaussian 16:  ES64L-G16RevA.03 25-Dec-2016

 ----------------------------------------------------------------------
 # B3LYP/6-311++G(d,p) empiricaldispersion=gd3bj scf=xqc pop=npa geom=c
 heck
 ----------------------------------------------------------------------

 -----------------------------------
 CID_63103067_JID_7858_Energie_anion
 -----------------------------------
 Structure from the checkpoint file:  "JID_7858.chk"
 Charge = -1 Multiplicity = 2

                         Standard orientation:
 ---------------------------------------------------------------------
 Center     Atomic      Atomic             Coordinates (Angstroms)
 Number     Number       Type             X           Y           Z
 ---------------------------------------------------------------------
      1          6           0       -0.685157   -0.151810    1.756149
      2          6           0       -0.420438   -0.662040    0.335293
      3          6           0       -1.641624   -1.382115   -0.256621
      4          7           0       -2.862521   -0.595210   -0.179227
      5          6           0       -3.976170   -0.846015    0.557745
      6          6           0       -4.827667    0.228971    0.379696
      7          6           0       -4.126127    1.094167   -0.485660
      8          7           0       -2.935670    0.595160   -0.823261
      9          7           0       -0.022912    0.421660   -0.581446
     10          6           0        1.125585    1.164970   -0.378519
     11          8           0        1.153913    2.388932   -0.499917
     12          6           0        2.355321    0.421479   -0.066640
     13          6           0        2.840123   -0.857830   -0.351295
     14          6           0        4.168954   -0.851849    0.134976
     15          7           0        4.497342    0.334722    0.661076
     16          7           0        3.401741    1.079967    0.523375
     17          7           0        2.151013   -1.915742   -0.961180
     18          1           0       -1.470958    0.609943    1.759196
     19          1           0        0.226094    0.290257    2.169589
     20          1           0       -0.993798   -0.971741    2.415551
     21          1           0        0.381962   -1.403401    0.358709
     22          1           0       -1.450454   -1.633805   -1.304262
     23          1           0       -1.824547   -2.306872    0.296143
     24          1           0       -4.073574   -1.754255    1.134780
     25          1           0       -5.809996    0.363778    0.807291
     26          1           0       -4.433271    2.053480   -0.880153
     27          1           0       -0.814430    1.017252   -0.830222
     28          1           0        4.892279   -1.656543    0.116516
     29          1           0        3.400006    2.059170    0.770719
     30          1           0        2.778934   -2.586595   -1.391465
     31          1           0        1.480692   -1.583594   -1.649159
 ---------------------------------------------------------------------

 SCF Done:  E(UB3LYP) =  -793.479202727     A.U. after   33 cycles
 SCF Done:  E(UB3LYP) =  -793.479202727     a.u. after    2 cycles

 The electronic state is 2-A.
 Alpha  occ. eigenvalues --  -18.98883 -14.30334 -14.28397 -14.24272 -14.23874
 Alpha  occ. eigenvalues --  -14.22437 -14.22430 -10.17185 -10.12357 -10.12072
 Alpha  occ. eigenvalues --  -10.11913 -10.11497 -10.10639 -10.10516 -10.09186
 Alpha  occ. eigenvalues --  -10.08192 -10.07124  -0.96578  -0.95870  -0.93397
 Alpha  occ. eigenvalues --   -0.82765  -0.81507  -0.75891  -0.72311  -0.70227
 Alpha  occ. eigenvalues --   -0.67598  -0.66533  -0.60815  -0.55225  -0.53061
 Alpha  occ. eigenvalues --   -0.52006  -0.51491  -0.49129  -0.47426  -0.44753
 Alpha  occ. eigenvalues --   -0.42952  -0.41294  -0.40386  -0.37973  -0.37110
 Alpha  occ. eigenvalues --   -0.35979  -0.35406  -0.34849  -0.34535  -0.33740
 Alpha  occ. eigenvalues --   -0.32896  -0.32471  -0.32049  -0.31005  -0.29068
 Alpha  occ. eigenvalues --   -0.28755  -0.27146  -0.27059  -0.23914  -0.21330
 Alpha  occ. eigenvalues --   -0.20320  -0.17712  -0.17176  -0.16647  -0.16178
 Alpha  occ. eigenvalues --   -0.15198  -0.11972   0.03897
 Alpha virt. eigenvalues --    0.05599   0.05980   0.07142   0.07820   0.08410
 Alpha virt. eigenvalues --    0.08822   0.09318   0.09817   0.10338   0.10669
 Alpha virt. eigenvalues --    0.11595   0.12076   0.12792   0.12983   0.13298

  Beta  occ. eigenvalues --  -18.98802 -14.30328 -14.28327 -14.24254 -14.23773
  Beta  occ. eigenvalues --  -14.22440 -14.22381 -10.17095 -10.12318 -10.12058
  Beta  occ. eigenvalues --  -10.11872 -10.11470 -10.10632 -10.10513 -10.09195
  Beta  occ. eigenvalues --  -10.08190 -10.07112  -0.96551  -0.95738  -0.93246
  Beta  occ. eigenvalues --   -0.82707  -0.81418  -0.75850  -0.72184  -0.70180
  Beta  occ. eigenvalues --   -0.67520  -0.66492  -0.60767  -0.55053  -0.53008
  Beta  occ. eigenvalues --   -0.51978  -0.51449  -0.49051  -0.47349  -0.44676
  Beta  occ. eigenvalues --   -0.42887  -0.41227  -0.40325  -0.37888  -0.37018
  Beta  occ. eigenvalues --   -0.35894  -0.35338  -0.34712  -0.34407  -0.33683
  Beta  occ. eigenvalues --   -0.32816  -0.32426  -0.32004  -0.30948  -0.28851
  Beta  occ. eigenvalues --   -0.28672  -0.27044  -0.26951  -0.23770  -0.21296
  Beta  occ. eigenvalues --   -0.20184  -0.17586  -0.17076  -0.16585  -0.15952
  Beta  occ. eigenvalues --   -0.15035  -0.11766
  Beta virt. eigenvalues --    0.06393   0.06620   0.06954   0.07907   0.08150
  Beta virt. eigenvalues --    0.08608   0.09058   0.09699   0.09981   0.10917
  Beta virt. eigenvalues --    0.11060   0.11858   0.12369   0.12838   0.12998

 Mulliken charges and spin densities:
               1          2
     1  C   -0.428162  -0.464358
     2  C   -0.515878   0.933941
     3  C    0.733496  -1.503029
     4  N    0.239214   0.077241
     5  C    0.288663  -0.531033
     6  C    0.300781  -0.287817
     7  C    0.080735  -0.377881
     8  N   -0.412421   0.182387
     9  N   -0.087638  -0.040962
    10  C    0.428484  -0.823116
    11  O   -0.346000   0.033484
    12  C   -0.148703   0.008594
    13  C    0.360730  -0.040991
    14  C   -0.048350  -0.172824
    15  N   -0.220941   0.011409
    16  N   -0.046989   0.076455
    17  N   -0.367910   0.066639
    18  H    0.222798  -0.053758
    19  H    0.109508   0.047212
    20  H   -0.049484   0.213314
    21  H    0.139522   0.121659
    22  H   -0.217549   0.425981
    23  H   -0.426945   0.635269
    24  H   -0.899671   1.046415
    25  H   -0.114956   0.281500
    26  H    0.142675  -0.018742
    27  H    0.389778   0.002201
    28  H   -0.198553   0.364327
    29  H    0.321889  -0.001051
    30  H   -0.322148   0.604250
    31  H    0.094024   0.183282
 Sum of Mulliken charges =  -1.00000   1.00000

 Dipole moment (field-independent basis, Debye):
    X=             -0.8504    Y=              4.8445    Z=              1.1092  Tot=              5.0421
 Quadrupole moment (field-independent basis, Debye-Ang):
   XX=           -175.1338   YY=           -151.2528   ZZ=           -128.7922
   XY=             -9.2155   XZ=              6.7489   YZ=              2.6923

 Summary of Natural Population Analysis:

                                       Natural Population
                Natural  -----------------------------------------------
    Atom  No    Charge         Core      Valence    Rydberg      Total
 -----------------------------------------------------------------------
      C    1   -0.29328      0.99964     2.28851    0.00513     3.29328
      C    2   -0.02687      0.99958     2.01473    0.01257     3.02687
      C    3   -0.08102      0.99957     2.06795    0.01350     3.08102
      N    4   -0.10838      0.99966     2.59343    0.01529     3.60838
      C    5    0.00377      0.99955     1.98487    0.01181     2.99623
      C    6   -0.17061      0.99957     2.16184    0.00920     3.17061
      C    7   -0.01088      0.99963     1.99815    0.01310     3.01088
      N    8   -0.16563      0.99972     2.65407    0.01183     3.66563
      N    9   -0.33642      0.99967     2.82705    0.00969     3.83642
      C   10    0.33633      0.99962     1.64164    0.02241     2.66367
      O   11   -0.31708      0.99988     3.31207    0.00513     4.31708
      C   12   -0.00855      0.99945     1.99495    0.01415     3.00855
      C   13    0.05318      0.99945     1.93550    0.01187     2.94682
      C   14   -0.04540      0.99959     2.02994    0.01587     3.04540
      N   15   -0.12769      0.99975     2.61527    0.01267     3.62769
      N   16   -0.14520      0.99966     2.63455    0.01099     3.64520
      N   17   -0.40018      0.99972     2.88988    0.01058     3.90018
      H   18    0.10215      0.00000     0.39690    0.00095     0.39785
      H   19    0.10381      0.00000     0.39537    0.00083     0.39619
      H   20    0.10194      0.00000     0.39728    0.00078     0.39806
      H   21    0.11593      0.00000     0.38127    0.00281     0.38407
      H   22    0.10941      0.00000     0.38847    0.00212     0.39059
      H   23    0.10976      0.00000     0.38735    0.00289     0.39024
      H   24    0.11009      0.00000     0.38709    0.00282     0.38991
      H   25    0.10836      0.00000     0.39100    0.00064     0.39164
      H   26    0.09700      0.00000     0.40230    0.00070     0.40300
      H   27    0.20638      0.00000     0.29108    0.00254     0.29362
      H   28    0.09760      0.00000     0.40113    0.00128     0.40240
      H   29    0.20262      0.00000     0.29583    0.00155     0.29738
      H   30    0.18910      0.00000     0.30694    0.00396     0.31090
      H   31    0.18979      0.00000     0.30785    0.00236     0.31021
 =======================================================================
   * Total *    0.00000     16.99372    44.77426    0.23202    62.00000

 Normal termination of Gaussian 16 at Fri Dec 11 15:08:31 2020.
