 Gaussian 16, Revision A.03,

 -----------------------------------------------------------
 # opt freq B3LYP/6-31G(d) empiricaldispersion=gd3bj scf=xqc
 -----------------------------------------------------------

 -------------------------------
 CID_119054602_JID_3001_neutraal
 -------------------------------
 Symbolic Z-matrix:
 Charge =  0 Multiplicity = 1

 SCF Done:  E(RB3LYP) =  -596.564223853     A.U. after   14 cycles
 SCF Done:  E(RB3LYP) =  -596.571330905     A.U. after   12 cycles
 SCF Done:  E(RB3LYP) =  -596.571952614     A.U. after   11 cycles
 SCF Done:  E(RB3LYP) =  -596.571945410     A.U. after   12 cycles
 SCF Done:  E(RB3LYP) =  -596.572227002     A.U. after   10 cycles
 SCF Done:  E(RB3LYP) =  -596.572305952     A.U. after    9 cycles
 SCF Done:  E(RB3LYP) =  -596.572360851     A.U. after   10 cycles
 SCF Done:  E(RB3LYP) =  -596.572378011     A.U. after   10 cycles
 SCF Done:  E(RB3LYP) =  -596.572392803     A.U. after   10 cycles
 SCF Done:  E(RB3LYP) =  -596.572396235     A.U. after    9 cycles
 SCF Done:  E(RB3LYP) =  -596.572397053     A.U. after    8 cycles
 SCF Done:  E(RB3LYP) =  -596.572397997     A.U. after    9 cycles
 SCF Done:  E(RB3LYP) =  -596.572398299     A.U. after    8 cycles
 SCF Done:  E(RB3LYP) =  -596.572398358     A.U. after    7 cycles
 Optimization completed.
    -- Stationary point found.
 Normal termination of Gaussian 16 at Wed Dec  9 22:24:38 2020.

 --------------------------------------------------------------------
 #N Geom=AllCheck Guess=TCheck SCRF=Check GenChk RB3LYP/6-31G(d) Freq
 --------------------------------------------------------------------

 Structure from the checkpoint file:  "JID_3001.chk"
 -------------------------------
 CID_119054602_JID_3001_neutraal
 -------------------------------
 Charge =  0 Multiplicity = 1

 SCF Done:  E(RB3LYP) =  -596.572398358     A.U. after    1 cycles

  Exact polarizability: 132.644   0.025 104.385  -1.867   0.365  95.495
 Approx polarizability: 175.674  -5.946 154.726  -4.396   3.682 138.740

                      1                      2                      3
                      A                      A                      A
 Frequencies --     35.5098                57.4647               113.0704
 Red. masses --      2.7665                 4.6367                 3.5391
 Frc consts  --      0.0021                 0.0090                 0.0267
 IR Inten    --      0.6538                 2.3065                 1.9604

                      4                      5                      6
                      A                      A                      A
 Frequencies --    188.2958               210.3222               228.5774
 Red. masses --      2.8669                 1.6273                 1.4624
 Frc consts  --      0.0599                 0.0424                 0.0450
 IR Inten    --      0.6402                 0.5609                 0.4796

                      7                      8                      9
                      A                      A                      A
 Frequencies --    244.3634               281.5619               294.7944
 Red. masses --      1.7531                 1.2815                 2.8561
 Frc consts  --      0.0617                 0.0599                 0.1462
 IR Inten    --      0.4449                 0.8736                 2.8216

                     10                     11                     12
                      A                      A                      A
 Frequencies --    302.1998               323.7860               331.0769
 Red. masses --      2.6365                 2.2608                 2.7748
 Frc consts  --      0.1419                 0.1396                 0.1792
 IR Inten    --      5.2919                 1.7891                 3.4102

                     13                     14                     15
                      A                      A                      A
 Frequencies --    373.0855               435.0178               468.6709
 Red. masses --      3.0830                 2.7668                 3.9029
 Frc consts  --      0.2528                 0.3085                 0.5051
 IR Inten    --      0.3341                 3.8119                 7.7523

                     16                     17                     18
                      A                      A                      A
 Frequencies --    487.4935               532.0553               555.4807
 Red. masses --      2.8098                 2.0916                 2.1198
 Frc consts  --      0.3934                 0.3489                 0.3854
 IR Inten    --      2.3108                 2.6767                23.9954

                     19                     20                     21
                      A                      A                      A
 Frequencies --    565.2453               589.5869               683.0801
 Red. masses --      1.6138                 4.0669                 2.4499
 Frc consts  --      0.3038                 0.8329                 0.6735
 IR Inten    --     62.4256                 5.2494                 2.0139

                     22                     23                     24
                      A                      A                      A
 Frequencies --    742.6742               750.8114               801.6353
 Red. masses --      4.0570                 6.2983                 3.8248
 Frc consts  --      1.3184                 2.0919                 1.4481
 IR Inten    --      5.5647                20.1453                 1.5416

                     25                     26                     27
                      A                      A                      A
 Frequencies --    846.7522               863.6941               886.3027
 Red. masses --      1.8487                 2.0185                 2.0541
 Frc consts  --      0.7809                 0.8872                 0.9507
 IR Inten    --      3.5236                 2.8433                 2.0944

                     28                     29                     30
                      A                      A                      A
 Frequencies --    911.1736               926.1299               946.9649
 Red. masses --      1.8895                 2.5432                 2.0300
 Frc consts  --      0.9242                 1.2852                 1.0725
 IR Inten    --      0.5040                 0.3423                 6.4292

                     31                     32                     33
                      A                      A                      A
 Frequencies --    957.6060               972.2441              1001.9805
 Red. masses --      1.5732                 2.1208                 1.6349
 Frc consts  --      0.8500                 1.1812                 0.9671
 IR Inten    --      4.6368                 5.2894                 6.5817

                     34                     35                     36
                      A                      A                      A
 Frequencies --   1017.5081              1046.3596              1059.4371
 Red. masses --      1.4678                 1.7471                 1.6125
 Frc consts  --      0.8954                 1.1270                 1.0664
 IR Inten    --      3.0508                 3.3382                 2.3942

                     37                     38                     39
                      A                      A                      A
 Frequencies --   1076.1010              1090.4582              1110.2626
 Red. masses --      1.8441                 2.1431                 3.3887
 Frc consts  --      1.2582                 1.5014                 2.4611
 IR Inten    --     57.5173                60.0962                 9.2009

                     40                     41                     42
                      A                      A                      A
 Frequencies --   1118.3842              1203.4590              1209.5315
 Red. masses --      2.5141                 1.9494                 1.7529
 Frc consts  --      1.8527                 1.6635                 1.5109
 IR Inten    --     31.6954                61.8315                 8.1311

                     43                     44                     45
                      A                      A                      A
 Frequencies --   1230.3354              1248.3082              1269.7012
 Red. masses --      1.8124                 2.9350                 1.6277
 Frc consts  --      1.6164                 2.6946                 1.5461
 IR Inten    --      1.6925                29.5672                10.6589

                     46                     47                     48
                      A                      A                      A
 Frequencies --   1276.1277              1289.9924              1319.7054
 Red. masses --      1.3539                 1.7204                 1.5922
 Frc consts  --      1.2991                 1.6868                 1.6338
 IR Inten    --      1.9258                10.5871                10.2944

                     49                     50                     51
                      A                      A                      A
 Frequencies --   1334.6518              1353.8350              1367.9422
 Red. masses --      1.3750                 1.6006                 1.3025
 Frc consts  --      1.4431                 1.7285                 1.4360
 IR Inten    --      6.6827                32.6679                25.7447

                     52                     53                     54
                      A                      A                      A
 Frequencies --   1375.8346              1382.3828              1416.6087
 Red. masses --      1.6077                 1.6160                 1.6467
 Frc consts  --      1.7931                 1.8195                 1.9470
 IR Inten    --     38.4692                48.4201                31.9167

                     55                     56                     57
                      A                      A                      A
 Frequencies --   1430.0493              1444.0318              1496.2330
 Red. masses --      1.3866                 1.2601                 1.8935
 Frc consts  --      1.6707                 1.5481                 2.4975
 IR Inten    --     11.0381                19.0058                34.9286

                     58                     59                     60
                      A                      A                      A
 Frequencies --   1500.9634              1504.5645              1508.3244
 Red. masses --      1.0878                 1.1025                 1.0564
 Frc consts  --      1.4439                 1.4704                 1.4160
 IR Inten    --      0.4215                 6.4345                 1.9355

                     61                     62                     63
                      A                      A                      A
 Frequencies --   1518.2431              1519.9290              1530.1157
 Red. masses --      1.0585                 1.0878                 1.0692
 Frc consts  --      1.4375                 1.4807                 1.4749
 IR Inten    --      0.7679                 5.8483                 2.4870

                     64                     65                     66
                      A                      A                      A
 Frequencies --   1536.9869              1539.3489              1543.6535
 Red. masses --      1.1069                 1.1012                 1.1181
 Frc consts  --      1.5407                 1.5374                 1.5698
 IR Inten    --      1.2855                 2.0731                22.9960

                     67                     68                     69
                      A                      A                      A
 Frequencies --   1782.6843              3027.9966              3048.7738
 Red. masses --      8.4421                 1.0658                 1.0658
 Frc consts  --     15.8070                 5.7577                 5.8366
 IR Inten    --    276.9600                50.1745                31.6347

                     70                     71                     72
                      A                      A                      A
 Frequencies --   3059.6473              3063.5275              3065.3294
 Red. masses --      1.0360                 1.0598                 1.0383
 Frc consts  --      5.7142                 5.8601                 5.7482
 IR Inten    --     16.2934                28.7226                12.6705

                     73                     74                     75
                      A                      A                      A
 Frequencies --   3075.5303              3086.5403              3089.9270
 Red. masses --      1.0630                 1.0641                 1.0974
 Frc consts  --      5.9242                 5.9726                 6.1732
 IR Inten    --     23.3935                13.3416                28.5803

                     76                     77                     78
                      A                      A                      A
 Frequencies --   3103.1106              3110.9566              3129.0109
 Red. masses --      1.0943                 1.1035                 1.1006
 Frc consts  --      6.2081                 6.2923                 6.3491
 IR Inten    --     29.0653                42.5867                 7.1136

                     79                     80                     81
                      A                      A                      A
 Frequencies --   3132.2667              3135.7806              3141.5189
 Red. masses --      1.1056                 1.1019                 1.1030
 Frc consts  --      6.3912                 6.3837                 6.4139
 IR Inten    --     13.1908                46.0103                20.5971

                     82                     83                     84
                      A                      A                      A
 Frequencies --   3142.2070              3152.8296              3597.3885
 Red. masses --      1.1068                 1.1022                 1.0765
 Frc consts  --      6.4386                 6.4552                 8.2078
 IR Inten    --     18.8313                22.7490                23.2773

 - Thermochemistry -
 -------------------
 Temperature   298.150 Kelvin.  Pressure   1.00000 Atm.
 Atom     1 has atomic number  6 and mass  12.00000

 Molecular mass:   183.12593 amu.
 Principal axes and moments of inertia in atomic units:
                           1         2         3
     Eigenvalues --  1406.759292654.318233170.17619
           X            0.99996   0.00900   0.00297
           Y           -0.00897   0.99988  -0.01235
           Z           -0.00308   0.01232   0.99992
 This molecule is an asymmetric top.
 Rotational symmetry number  1.
 Warning -- assumption of classical behavior for rotation
           may cause significant error
 Rotational temperatures (Kelvin)      0.06157     0.03263     0.02732
 Rotational constants (GHZ):           1.28291     0.67993     0.56929
 Zero-point vibrational energy     698159.2 (Joules/Mol)
                                  166.86405 (Kcal/Mol)
 Warning -- explicit consideration of  20 degrees of freedom as
           vibrations may cause significant error
 Vibrational temperatures:     51.09    82.68   162.68   270.92   302.61
          (Kelvin)            328.87   351.58   405.10   424.14   434.80
                              465.86   476.35   536.79   625.89   674.31
                              701.39   765.51   799.21   813.26   848.28
                              982.80  1068.54  1080.25  1153.37  1218.29
                             1242.66  1275.19  1310.98  1332.49  1362.47
                             1377.78  1398.84  1441.63  1463.97  1505.48
                             1524.29  1548.27  1568.93  1597.42  1609.11
                             1731.51  1740.25  1770.18  1796.04  1826.82
                             1836.06  1856.01  1898.76  1920.27  1947.87
                             1968.16  1979.52  1988.94  2038.18  2057.52
                             2077.64  2152.75  2159.55  2164.73  2170.14
                             2184.41  2186.84  2201.50  2211.38  2214.78
                             2220.97  2564.89  4356.61  4386.51  4402.15
                             4407.73  4410.33  4425.00  4440.84  4445.72
                             4464.68  4475.97  4501.95  4506.63  4511.69
                             4519.94  4520.94  4536.22  5175.84

 Zero-point correction=                           0.265915 (Hartree/Particle)
 Thermal correction to Energy=                    0.278421
 Thermal correction to Enthalpy=                  0.279365
 Thermal correction to Gibbs Free Energy=         0.227502
 Sum of electronic and zero-point Energies=           -596.306484
 Sum of electronic and thermal Energies=              -596.293977
 Sum of electronic and thermal Enthalpies=            -596.293033
 Sum of electronic and thermal Free Energies=         -596.344897

                     E (Thermal)             CV                S
                      KCal/Mol        Cal/Mol-Kelvin    Cal/Mol-Kelvin
 Total                  174.712             49.760            109.156
 Electronic               0.000              0.000              0.000
 Translational            0.889              2.981             41.521
 Rotational               0.889              2.981             30.849
 Vibrational            172.934             43.799             36.786
 Vibration     1          0.594              1.982              5.495
 Vibration     2          0.596              1.975              4.542
 Vibration     3          0.607              1.939              3.216
 Vibration     4          0.633              1.856              2.245
 Vibration     5          0.642              1.825              2.041
 Vibration     6          0.651              1.797              1.890
 Vibration     7          0.660              1.772              1.771
 Vibration     8          0.681              1.708              1.524
 Vibration     9          0.689              1.683              1.446
 Vibration    10          0.694              1.670              1.405
 Vibration    11          0.708              1.628              1.291
 Vibration    12          0.713              1.613              1.255
 Vibration    13          0.744              1.527              1.067
 Vibration    14          0.796              1.394              0.842
 Vibration    15          0.826              1.320              0.741
 Vibration    16          0.843              1.278              0.690
 Vibration    17          0.887              1.179              0.583
 Vibration    18          0.911              1.128              0.533
 Vibration    19          0.921              1.106              0.513
 Vibration    20          0.947              1.054              0.468

 Optimization completed.
    -- Stationary point found.
 Normal termination of Gaussian 16 at Wed Dec  9 22:33:30 2020.

 ----------------------------------------------------------------------
 # B3LYP/6-311++G(d,p) empiricaldispersion=gd3bj scf=xqc pop=npa geom=c
 heck
 ----------------------------------------------------------------------

 ---------------------------------------
 CID_119054602_JID_3001_Energie_neutraal
 ---------------------------------------
 Structure from the checkpoint file:  "JID_3001.chk"
 Charge =  0 Multiplicity = 1

 SCF Done:  E(RB3LYP) =  -596.742719250     A.U. after   14 cycles
 Normal termination of Gaussian 16 at Wed Dec  9 22:36:50 2020.

 ----------------------------------------------------------------------
 # B3LYP/6-311++G(d,p) empiricaldispersion=gd3bj scf=xqc pop=npa geom=c
 heck
 ----------------------------------------------------------------------

 -------------------------------------
 CID_119054602_JID_3001_Energie_kation
 -------------------------------------
 Structure from the checkpoint file:  "JID_3001.chk"
 Charge =  1 Multiplicity = 2

 SCF Done:  E(UB3LYP) =  -596.422878867     A.U. after   28 cycles
 Normal termination of Gaussian 16 at Wed Dec  9 22:45:47 2020.
 Gaussian 16:  ES64L-G16RevA.03 25-Dec-2016

 ----------------------------------------------------------------------
 # B3LYP/6-311++G(d,p) empiricaldispersion=gd3bj scf=xqc pop=npa geom=c
 heck
 ----------------------------------------------------------------------

 ------------------------------------
 CID_119054602_JID_3001_Energie_anion
 ------------------------------------
 Structure from the checkpoint file:  "JID_3001.chk"
 Charge = -1 Multiplicity = 2

                         Standard orientation:
 ---------------------------------------------------------------------
 Center     Atomic      Atomic             Coordinates (Angstroms)
 Number     Number       Type             X           Y           Z
 ---------------------------------------------------------------------
      1          6           0        1.878736   -0.527563    1.556158
      2          6           0        1.800176   -0.507797    0.023241
      3          6           0        2.120350    0.883132   -0.538603
      4          7           0        1.051945    1.804778   -0.187660
      5          6           0       -0.256008    1.460266   -0.036387
      6          8           0       -1.127454    2.289756    0.205670
      7          6           0       -0.609552   -0.025160   -0.146465
      8          8           0        0.503563   -0.876887   -0.462297
      9          6           0       -1.660445   -0.224944   -1.279712
     10          6           0       -2.754603   -1.118995   -0.678362
     11          6           0       -2.819514   -0.636255    0.775881
     12          6           0       -1.339478   -0.489946    1.157247
     13          6           0        2.745748   -1.547136   -0.574026
     14          1           0        1.252103    0.244473    2.008962
     15          1           0        2.910683   -0.358055    1.882996
     16          1           0        1.554342   -1.502054    1.932025
     17          1           0        3.061823    1.258809   -0.123566
     18          1           0        2.235926    0.809379   -1.628948
     19          1           0        1.234151    2.799653   -0.145359
     20          1           0       -2.088395    0.746669   -1.541655
     21          1           0       -1.171471   -0.644477   -2.162149
     22          1           0       -2.446030   -2.171925   -0.711484
     23          1           0       -3.708263   -1.033541   -1.209537
     24          1           0       -3.361379   -1.317498    1.440768
     25          1           0       -3.306884    0.344410    0.820075
     26          1           0       -0.919155   -1.465724    1.420540
     27          1           0       -1.182546    0.191835    1.996843
     28          1           0        3.785438   -1.327620   -0.308525
     29          1           0        2.491765   -2.541079   -0.194154
     30          1           0        2.652935   -1.563260   -1.664026
 ---------------------------------------------------------------------

 SCF Done:  E(UB3LYP) =  -596.729810069     A.U. after   30 cycles

 The electronic state is 2-A.
 Alpha  occ. eigenvalues --  -19.02261 -18.98460 -14.23562 -10.16923 -10.13711
 Alpha  occ. eigenvalues --  -10.13309 -10.10117 -10.07359 -10.07139 -10.07005
 Alpha  occ. eigenvalues --  -10.06944 -10.05677 -10.05559  -0.94997  -0.92758
 Alpha  occ. eigenvalues --   -0.82166  -0.74536  -0.69454  -0.62147  -0.61719
 Alpha  occ. eigenvalues --   -0.59533  -0.58940  -0.52922  -0.48875  -0.48488
 Alpha  occ. eigenvalues --   -0.43077  -0.41828  -0.39315  -0.38733  -0.37148
 Alpha  occ. eigenvalues --   -0.35185  -0.34712  -0.33503  -0.32431  -0.31140
 Alpha  occ. eigenvalues --   -0.30288  -0.29422  -0.28029  -0.27729  -0.26987
 Alpha  occ. eigenvalues --   -0.25801  -0.25449  -0.24860  -0.24411  -0.23984
 Alpha  occ. eigenvalues --   -0.22985  -0.21589  -0.16870  -0.15375  -0.14591
 Alpha  occ. eigenvalues --    0.04625
 Alpha virt. eigenvalues --    0.06705   0.07764   0.08123   0.08998   0.09357
 Alpha virt. eigenvalues --    0.09474   0.10212   0.10825   0.11364   0.11674
 Alpha virt. eigenvalues --    0.12090   0.12417   0.12730   0.13392   0.13933

  Beta  occ. eigenvalues --  -19.02252 -18.98456 -14.23538 -10.16924 -10.13708
  Beta  occ. eigenvalues --  -10.13308 -10.10066 -10.07352 -10.07134 -10.06998
  Beta  occ. eigenvalues --  -10.06934 -10.05642 -10.05519  -0.94985  -0.92749
  Beta  occ. eigenvalues --   -0.82124  -0.74523  -0.69424  -0.62125  -0.61695
  Beta  occ. eigenvalues --   -0.59454  -0.58875  -0.52880  -0.48830  -0.48465
  Beta  occ. eigenvalues --   -0.43046  -0.41779  -0.39233  -0.38700  -0.37127
  Beta  occ. eigenvalues --   -0.35137  -0.34680  -0.33478  -0.32400  -0.31105
  Beta  occ. eigenvalues --   -0.30247  -0.29393  -0.27991  -0.27701  -0.26956
  Beta  occ. eigenvalues --   -0.25780  -0.25425  -0.24841  -0.24396  -0.23963
  Beta  occ. eigenvalues --   -0.22962  -0.21563  -0.16854  -0.15350  -0.14575
  Beta virt. eigenvalues --    0.06637   0.07771   0.08325   0.08588   0.09678
  Beta virt. eigenvalues --    0.09767   0.09929   0.10586   0.11177   0.11595
  Beta virt. eigenvalues --    0.12028   0.12558   0.12690   0.13194   0.13619

 Mulliken charges and spin densities:
               1          2
     1  C    1.063836  -1.591066
     2  C   -2.872922   2.845006
     3  C    3.051267  -3.446844
     4  N   -0.427994   0.227929
     5  C   -0.505644   0.377732
     6  O   -0.330471   0.006105
     7  C    0.395884  -0.186887
     8  O    0.087759   0.003423
     9  C    0.437504  -0.866079
    10  C   -0.382136   0.126191
    11  C   -0.045733  -0.556285
    12  C   -0.024790  -0.066573
    13  C    0.490993  -0.802391
    14  H   -0.137185   0.316027
    15  H   -0.565820   0.745828
    16  H   -0.091866   0.246243
    17  H   -0.923903   1.122777
    18  H   -0.253022   0.437525
    19  H   -0.184368   0.529307
    20  H    0.126416   0.072384
    21  H    0.098402   0.054492
    22  H    0.024277   0.116766
    23  H    0.058433   0.093228
    24  H   -0.022526   0.170864
    25  H    0.166302  -0.010437
    26  H    0.204284  -0.052340
    27  H    0.045550   0.135058
    28  H   -0.188939   0.347295
    29  H   -0.159583   0.316238
    30  H   -0.134006   0.288486
 Sum of Mulliken charges =  -1.00000   1.00000

 Dipole moment (field-independent basis, Debye):
    X=             -7.7805    Y=             -3.1007    Z=             -0.8330  Tot=              8.4169
 Quadrupole moment (field-independent basis, Debye-Ang):
   XX=           -148.9808   YY=           -124.9328   ZZ=           -112.4229
   XY=             -3.8406   XZ=             -1.6473   YZ=             -0.3287

 Summary of Natural Population Analysis:

                                       Natural Population
                Natural  -----------------------------------------------
    Atom  No    Charge         Core      Valence    Rydberg      Total
 -----------------------------------------------------------------------
      C    1   -0.30097      0.99961     2.29414    0.00723     3.30097
      C    2    0.12948      0.99953     1.85328    0.01771     2.87052
      C    3   -0.09363      0.99954     2.08057    0.01352     3.09363
      N    4   -0.31039      0.99966     2.79906    0.01167     3.81039
      C    5    0.33573      0.99957     1.64045    0.02425     2.66427
      O    6   -0.33439      0.99988     3.32882    0.00570     4.33439
      C    7    0.10435      0.99946     1.87868    0.01751     2.89565
      O    8   -0.31840      0.99986     3.30702    0.01151     4.31840
      C    9   -0.19085      0.99959     2.18322    0.00804     3.19085
      C   10   -0.19114      0.99964     2.18459    0.00691     3.19114
      C   11   -0.19187      0.99963     2.18516    0.00707     3.19187
      C   12   -0.19832      0.99959     2.18895    0.00977     3.19832
      C   13   -0.28561      0.99960     2.27879    0.00722     3.28561
      H   14    0.10254      0.00000     0.39558    0.00188     0.39746
      H   15    0.10885      0.00000     0.38936    0.00178     0.39115
      H   16    0.10250      0.00000     0.39637    0.00113     0.39750
      H   17    0.11020      0.00000     0.38208    0.00773     0.38980
      H   18    0.09579      0.00000     0.40199    0.00222     0.40421
      H   19    0.19986      0.00000     0.29652    0.00362     0.30014
      H   20    0.10622      0.00000     0.39251    0.00127     0.39378
      H   21    0.10858      0.00000     0.39034    0.00108     0.39142
      H   22    0.09469      0.00000     0.40391    0.00140     0.40531
      H   23    0.09678      0.00000     0.40220    0.00102     0.40322
      H   24    0.09634      0.00000     0.40261    0.00106     0.40366
      H   25    0.10025      0.00000     0.39840    0.00135     0.39975
      H   26    0.10458      0.00000     0.39404    0.00138     0.39542
      H   27    0.10644      0.00000     0.39255    0.00101     0.39356
      H   28    0.10549      0.00000     0.39293    0.00159     0.39451
      H   29    0.10310      0.00000     0.39574    0.00117     0.39690
      H   30    0.10383      0.00000     0.39491    0.00126     0.39617
 =======================================================================
   * Total *    0.00000     12.99517    36.82479    0.18005    50.00000

 Normal termination of Gaussian 16 at Wed Dec  9 22:55:18 2020.
