 Gaussian 16, Revision A.03,

 -----------------------------------------------------------
 # opt freq B3LYP/6-31G(d) empiricaldispersion=gd3bj scf=xqc
 -----------------------------------------------------------

 -------------------------------
 CID_19138025_JID_10375_neutraal
 -------------------------------
 Symbolic Z-matrix:
 Charge =  0 Multiplicity = 1

 SCF Done:  E(RB3LYP) =  -874.092509882     A.U. after   14 cycles
 SCF Done:  E(RB3LYP) =  -874.099039755     A.U. after   12 cycles
 SCF Done:  E(RB3LYP) =  -874.100542995     A.U. after   12 cycles
 SCF Done:  E(RB3LYP) =  -874.101269571     A.U. after   12 cycles
 SCF Done:  E(RB3LYP) =  -874.101750471     A.U. after   12 cycles
 SCF Done:  E(RB3LYP) =  -874.102060386     A.U. after   12 cycles
 SCF Done:  E(RB3LYP) =  -874.102304463     A.U. after   12 cycles
 SCF Done:  E(RB3LYP) =  -874.102436762     A.U. after   12 cycles
 SCF Done:  E(RB3LYP) =  -874.102734308     A.U. after   13 cycles
 SCF Done:  E(RB3LYP) =  -874.103062097     A.U. after   12 cycles
 SCF Done:  E(RB3LYP) =  -874.104019477     A.U. after   10 cycles
 SCF Done:  E(RB3LYP) =  -874.104019829     A.U. after    9 cycles
 SCF Done:  E(RB3LYP) =  -874.104020134     A.U. after    8 cycles
 SCF Done:  E(RB3LYP) =  -874.104020071     A.U. after    8 cycles
 SCF Done:  E(RB3LYP) =  -874.104020018     A.U. after    7 cycles
 Optimization completed.
    -- Stationary point found.
 Normal termination of Gaussian 16 at Sat Dec 12 15:39:13 2020.

 --------------------------------------------------------------------
 #N Geom=AllCheck Guess=TCheck SCRF=Check GenChk RB3LYP/6-31G(d) Freq
 --------------------------------------------------------------------

 Structure from the checkpoint file:  "JID_10375.chk"
 -------------------------------
 CID_19138025_JID_10375_neutraal
 -------------------------------
 Charge =  0 Multiplicity = 1

 SCF Done:  E(RB3LYP) =  -874.104020018     A.U. after    1 cycles

  Exact polarizability: 218.005 -17.283 199.346  31.057  20.916 126.930
 Approx polarizability: 325.941 -30.120 311.992  68.931  48.428 218.376

                      1                      2                      3
                      A                      A                      A
 Frequencies --     15.9695                28.8002                47.2520
 Red. masses --      4.8464                 4.1166                 3.7442
 Frc consts  --      0.0007                 0.0020                 0.0049
 IR Inten    --      0.0366                 1.8345                 0.2208

                      4                      5                      6
                      A                      A                      A
 Frequencies --     62.0939                75.4584                82.9844
 Red. masses --      3.2489                 4.2284                 4.2748
 Frc consts  --      0.0074                 0.0142                 0.0173
 IR Inten    --      1.2555                 3.0496                 0.3905

                      7                      8                      9
                      A                      A                      A
 Frequencies --     97.3073               138.5555               151.3409
 Red. masses --      4.0595                 4.1926                 3.8617
 Frc consts  --      0.0226                 0.0474                 0.0521
 IR Inten    --      0.5134                 0.8155                 0.1985

                     10                     11                     12
                      A                      A                      A
 Frequencies --    214.8920               226.8309               253.1666
 Red. masses --      2.9545                 6.0136                 1.0435
 Frc consts  --      0.0804                 0.1823                 0.0394
 IR Inten    --      2.0299                 1.7752                 0.0694

                     13                     14                     15
                      A                      A                      A
 Frequencies --    260.1364               279.1557               307.1438
 Red. masses --      1.1869                 3.9666                 2.6548
 Frc consts  --      0.0473                 0.1821                 0.1476
 IR Inten    --      0.9362                 0.4654                 3.8834

                     16                     17                     18
                      A                      A                      A
 Frequencies --    326.6488               344.4318               357.7664
 Red. masses --      3.2569                 2.2476                 2.1054
 Frc consts  --      0.2047                 0.1571                 0.1588
 IR Inten    --      3.9484                 8.0851                 0.6141

                     19                     20                     21
                      A                      A                      A
 Frequencies --    367.7160               389.2200               420.2754
 Red. masses --      3.2704                 1.5029                 2.9891
 Frc consts  --      0.2605                 0.1341                 0.3111
 IR Inten    --      1.9662                19.9766                 0.1600

                     22                     23                     24
                      A                      A                      A
 Frequencies --    442.2114               458.8443               466.1694
 Red. masses --      2.9559                 3.0053                 3.3395
 Frc consts  --      0.3406                 0.3728                 0.4276
 IR Inten    --     10.4767                 1.6275                 7.3705

                     25                     26                     27
                      A                      A                      A
 Frequencies --    507.8178               520.4596               549.8883
 Red. masses --      3.9468                 5.0058                 1.9085
 Frc consts  --      0.5997                 0.7989                 0.3400
 IR Inten    --      3.5254                 1.8383                53.7478

                     28                     29                     30
                      A                      A                      A
 Frequencies --    552.0252               594.8270               612.9537
 Red. masses --      3.4571                 1.9140                 4.5811
 Frc consts  --      0.6207                 0.3990                 1.0141
 IR Inten    --      5.2211                76.9598                20.3065

                     31                     32                     33
                      A                      A                      A
 Frequencies --    626.9636               638.0111               690.0113
 Red. masses --      3.4849                 6.3073                 6.1738
 Frc consts  --      0.8071                 1.5127                 1.7319
 IR Inten    --     10.9742                 0.2114                 0.2792

                     34                     35                     36
                      A                      A                      A
 Frequencies --    715.9174               737.0639               765.4338
 Red. masses --      2.0434                 2.6513                 1.7813
 Frc consts  --      0.6170                 0.8486                 0.6149
 IR Inten    --     22.4760                43.6320                22.2158

                     37                     38                     39
                      A                      A                      A
 Frequencies --    777.3602               790.7663               803.5692
 Red. masses --      2.9674                 4.3313                 3.6810
 Frc consts  --      1.0565                 1.5957                 1.4004
 IR Inten    --     53.6164                97.3031                 7.5379

                     40                     41                     42
                      A                      A                      A
 Frequencies --    859.4288               865.6672               903.9332
 Red. masses --      2.4250                 1.3182                 2.8093
 Frc consts  --      1.0553                 0.5820                 1.3524
 IR Inten    --      4.8023                 3.7275                49.7017

                     43                     44                     45
                      A                      A                      A
 Frequencies --    911.6363               930.3587               954.1511
 Red. masses --      2.6295                 1.6403                 2.5311
 Frc consts  --      1.2875                 0.8365                 1.3577
 IR Inten    --    128.5020                 1.2143                 5.1195

                     46                     47                     48
                      A                      A                      A
 Frequencies --    962.3679               964.7320               971.7036
 Red. masses --      1.4490                 1.5241                 1.3586
 Frc consts  --      0.7907                 0.8357                 0.7558
 IR Inten    --     26.5371               128.1952                 1.3622

                     49                     50                     51
                      A                      A                      A
 Frequencies --    993.6208              1011.4813              1022.3415
 Red. masses --      1.2499                 2.3885                 6.1964
 Frc consts  --      0.7271                 1.4398                 3.8158
 IR Inten    --      0.2619                25.8621                 0.5115

                     52                     53                     54
                      A                      A                      A
 Frequencies --   1044.0798              1051.6764              1061.7417
 Red. masses --      1.6895                 1.8840                 2.1572
 Frc consts  --      1.0851                 1.2277                 1.4328
 IR Inten    --     29.1425                 4.8640                 0.7230

                     55                     56                     57
                      A                      A                      A
 Frequencies --   1086.2586              1120.9115              1131.4762
 Red. masses --      2.6087                 1.5796                 1.2448
 Frc consts  --      1.8136                 1.1693                 0.9389
 IR Inten    --      0.9703                10.4409                 2.5237

                     58                     59                     60
                      A                      A                      A
 Frequencies --   1149.6792              1188.1378              1192.9689
 Red. masses --      2.9134                 2.1295                 1.1023
 Frc consts  --      2.2689                 1.7712                 0.9243
 IR Inten    --     25.3042                 7.9360                 0.1040

                     61                     62                     63
                      A                      A                      A
 Frequencies --   1205.7789              1215.9617              1228.9840
 Red. masses --      1.4904                 1.1615                 1.9385
 Frc consts  --      1.2767                 1.0119                 1.7251
 IR Inten    --     49.3782                 0.1594                 5.9767

                     64                     65                     66
                      A                      A                      A
 Frequencies --   1236.1362              1251.3423              1269.5809
 Red. masses --      2.4088                 1.9879                 2.6658
 Frc consts  --      2.1686                 1.8340                 2.5316
 IR Inten    --      0.7125                18.5597                 4.6708

                     67                     68                     69
                      A                      A                      A
 Frequencies --   1290.0710              1295.5410              1316.5127
 Red. masses --      2.2349                 1.5664                 2.5383
 Frc consts  --      2.1915                 1.5491                 2.5920
 IR Inten    --      4.0763                86.5121                87.1121

                     70                     71                     72
                      A                      A                      A
 Frequencies --   1352.8775              1366.8948              1368.5081
 Red. masses --      2.3443                 2.3162                 1.9833
 Frc consts  --      2.5280                 2.5497                 2.1884
 IR Inten    --     12.6893                 5.7855                 5.4473

                     73                     74                     75
                      A                      A                      A
 Frequencies --   1376.4438              1383.4800              1409.0440
 Red. masses --      2.0409                 1.4847                 1.4988
 Frc consts  --      2.2782                 1.6744                 1.7532
 IR Inten    --     26.9488                 1.6526                53.5834

                     76                     77                     78
                      A                      A                      A
 Frequencies --   1458.8932              1464.3234              1474.0520
 Red. masses --      1.1823                 1.5269                 2.0627
 Frc consts  --      1.4826                 1.9290                 2.6407
 IR Inten    --      1.8936                17.1016                37.0781

                     79                     80                     81
                      A                      A                      A
 Frequencies --   1484.8485              1500.3737              1502.8087
 Red. masses --      1.3003                 1.8782                 1.2163
 Frc consts  --      1.6891                 2.4911                 1.6185
 IR Inten    --     14.3666                 8.4552                 7.9408

                     82                     83                     84
                      A                      A                      A
 Frequencies --   1508.9114              1516.9754              1519.5488
 Red. masses --      1.0589                 1.2474                 1.0510
 Frc consts  --      1.4204                 1.6912                 1.4298
 IR Inten    --     10.1684                46.5444                 1.3388

                     85                     86                     87
                      A                      A                      A
 Frequencies --   1523.5373              1536.5802              1541.9236
 Red. masses --      1.1892                 1.0951                 1.4743
 Frc consts  --      1.6263                 1.5234                 2.0652
 IR Inten    --      9.4509                11.9662                71.2544

                     88                     89                     90
                      A                      A                      A
 Frequencies --   1548.4173              1566.8726              1633.5816
 Red. masses --      2.2178                 2.9467                 3.9119
 Frc consts  --      3.1328                 4.2625                 6.1506
 IR Inten    --     11.4303               115.4267                16.8839

                     91                     92                     93
                      A                      A                      A
 Frequencies --   1643.9925              1645.0983              1666.7055
 Red. masses --      4.6486                 4.9767                 5.5268
 Frc consts  --      7.4024                 7.9355                 9.0456
 IR Inten    --    303.0439               216.0062                 9.2875

                     94                     95                     96
                      A                      A                      A
 Frequencies --   1721.2661              2967.5486              2978.5746
 Red. masses --      1.1501                 1.0588                 1.0565
 Frc consts  --      2.0076                 5.4934                 5.5224
 IR Inten    --     27.8167                58.8500               105.9994

                     97                     98                     99
                      A                      A                      A
 Frequencies --   3056.3209              3080.4733              3096.6117
 Red. masses --      1.0653                 1.0621                 1.0776
 Frc consts  --      5.8629                 5.9380                 6.0881
 IR Inten    --     27.6840                48.7492                15.4154

                    100                    101                    102
                      A                      A                      A
 Frequencies --   3104.5590              3116.3370              3135.6016
 Red. masses --      1.0748                 1.0977                 1.1055
 Frc consts  --      6.1037                 6.2808                 6.4037
 IR Inten    --     32.4569                16.5177                16.9115

                    103                    104                    105
                      A                      A                      A
 Frequencies --   3142.9356              3162.4212              3173.6367
 Red. masses --      1.1040                 1.1032                 1.0869
 Frc consts  --      6.4254                 6.5007                 6.4497
 IR Inten    --     22.8818                14.9415                 9.3755

                    106                    107                    108
                      A                      A                      A
 Frequencies --   3177.5026              3180.7991              3192.6691
 Red. masses --      1.0902                 1.0861                 1.0902
 Frc consts  --      6.4850                 6.4743                 6.5476
 IR Inten    --     43.8362                 0.1159                11.6494

                    109                    110                    111
                      A                      A                      A
 Frequencies --   3199.5719              3210.1139              3406.0724
 Red. masses --      1.0937                 1.0978                 1.0737
 Frc consts  --      6.5968                 6.6651                 7.3394
 IR Inten    --     37.6777                16.4003                 2.1561

                    112                    113                    114
                      A                      A                      A
 Frequencies --   3430.2401              3520.7649              3629.4529
 Red. masses --      1.0516                 1.0906                 1.0759
 Frc consts  --      7.2902                 7.9647                 8.3502
 IR Inten    --     23.0052               106.2014                19.7864

 - Thermochemistry -
 -------------------
 Temperature   298.150 Kelvin.  Pressure   1.00000 Atm.
 Atom     1 has atomic number  6 and mass  12.00000

 Molecular mass:   272.17494 amu.
 Principal axes and moments of inertia in atomic units:
                           1         2         3
     Eigenvalues --  3639.480546662.851769012.16217
           X            0.99902  -0.04408   0.00497
           Y            0.04406   0.99902   0.00413
           Z           -0.00514  -0.00391   0.99998
 This molecule is an asymmetric top.
 Rotational symmetry number  1.
 Warning -- assumption of classical behavior for rotation
           may cause significant error
 Rotational temperatures (Kelvin)      0.02380     0.01300     0.00961
 Rotational constants (GHZ):           0.49588     0.27087     0.20026
 Zero-point vibrational energy     897581.2 (Joules/Mol)
                                  214.52707 (Kcal/Mol)
 Warning -- explicit consideration of  30 degrees of freedom as
           vibrations may cause significant error
 Vibrational temperatures:     22.98    41.44    67.99    89.34   108.57
          (Kelvin)            119.40   140.00   199.35   217.75   309.18
                              326.36   364.25   374.28   401.64   441.91
                              469.97   495.56   514.75   529.06   560.00
                              604.68   636.24   660.17   670.71   730.64
                              748.83   791.17   794.24   855.82   881.90
                              902.06   917.96   992.77  1030.05  1060.47
                             1101.29  1118.45  1137.74  1156.16  1236.53
                             1245.50  1300.56  1311.64  1338.58  1372.81
                             1384.63  1388.03  1398.06  1429.60  1455.30
                             1470.92  1502.20  1513.13  1527.61  1562.88
                             1612.74  1627.94  1654.13  1709.47  1716.42
                             1734.85  1749.50  1768.23  1778.52  1800.40
                             1826.64  1856.12  1863.99  1894.17  1946.49
                             1966.66  1968.98  1980.40  1990.52  2027.30
                             2099.02  2106.83  2120.83  2136.37  2158.70
                             2162.21  2170.99  2182.59  2186.29  2192.03
                             2210.80  2218.48  2227.83  2254.38  2350.36
                             2365.34  2366.93  2398.02  2476.52  4269.64
                             4285.50  4397.36  4432.11  4455.33  4466.77
                             4483.71  4511.43  4521.98  4550.02  4566.16
                             4571.72  4576.46  4593.54  4603.47  4618.64
                             4900.58  4935.35  5065.60  5221.97

 Zero-point correction=                           0.341871 (Hartree/Particle)
 Thermal correction to Energy=                    0.360527
 Thermal correction to Enthalpy=                  0.361471
 Thermal correction to Gibbs Free Energy=         0.293517
 Sum of electronic and zero-point Energies=           -873.762149
 Sum of electronic and thermal Energies=              -873.743493
 Sum of electronic and thermal Enthalpies=            -873.742549
 Sum of electronic and thermal Free Energies=         -873.810503

                     E (Thermal)             CV                S
                      KCal/Mol        Cal/Mol-Kelvin    Cal/Mol-Kelvin
 Total                  226.234             72.375            143.021
 Electronic               0.000              0.000              0.000
 Translational            0.889              2.981             42.703
 Rotational               0.889              2.981             33.746
 Vibrational            224.457             66.413             66.572
 Vibration     1          0.593              1.986              7.081
 Vibration     2          0.593              1.984              5.910
 Vibration     3          0.595              1.979              4.929
 Vibration     4          0.597              1.972              4.390
 Vibration     5          0.599              1.965              4.006
 Vibration     6          0.600              1.961              3.819
 Vibration     7          0.603              1.951              3.508
 Vibration     8          0.614              1.915              2.824
 Vibration     9          0.619              1.901              2.655
 Vibration    10          0.645              1.818              2.002
 Vibration    11          0.650              1.800              1.904
 Vibration    12          0.664              1.757              1.708
 Vibration    13          0.668              1.746              1.661
 Vibration    14          0.679              1.712              1.539
 Vibration    15          0.697              1.660              1.378
 Vibration    16          0.710              1.622              1.277
 Vibration    17          0.723              1.587              1.192
 Vibration    18          0.733              1.559              1.132
 Vibration    19          0.740              1.539              1.089
 Vibration    20          0.757              1.493              1.003
 Vibration    21          0.783              1.426              0.891
 Vibration    22          0.802              1.378              0.820
 Vibration    23          0.817              1.341              0.769
 Vibration    24          0.824              1.325              0.748
 Vibration    25          0.863              1.233              0.639
 Vibration    26          0.875              1.205              0.609
 Vibration    27          0.905              1.140              0.544
 Vibration    28          0.907              1.135              0.540
 Vibration    29          0.953              1.043              0.459
 Vibration    30          0.972              1.004              0.428

 Optimization completed.
    -- Stationary point found.
 Normal termination of Gaussian 16 at Sat Dec 12 16:05:35 2020.

 ----------------------------------------------------------------------
 # B3LYP/6-311++G(d,p) empiricaldispersion=gd3bj scf=xqc pop=npa geom=c
 heck
 ----------------------------------------------------------------------

 ---------------------------------------
 CID_19138025_JID_10375_Energie_neutraal
 ---------------------------------------
 Structure from the checkpoint file:  "JID_10375.chk"
 Charge =  0 Multiplicity = 1

 SCF Done:  E(RB3LYP) =  -874.347004424     A.U. after   14 cycles
 Normal termination of Gaussian 16 at Sat Dec 12 16:16:19 2020.

 ----------------------------------------------------------------------
 # B3LYP/6-311++G(d,p) empiricaldispersion=gd3bj scf=xqc pop=npa geom=c
 heck
 ----------------------------------------------------------------------

 -------------------------------------
 CID_19138025_JID_10375_Energie_kation
 -------------------------------------
 Structure from the checkpoint file:  "JID_10375.chk"
 Charge =  1 Multiplicity = 2

 SCF Done:  E(UB3LYP) =  -874.084362812     A.U. after   21 cycles
 Normal termination of Gaussian 16 at Sat Dec 12 16:38:54 2020.
 Gaussian 16:  ES64L-G16RevA.03 25-Dec-2016

 ----------------------------------------------------------------------
 # B3LYP/6-311++G(d,p) empiricaldispersion=gd3bj scf=xqc pop=npa geom=c
 heck
 ----------------------------------------------------------------------

 ------------------------------------
 CID_19138025_JID_10375_Energie_anion
 ------------------------------------
 Structure from the checkpoint file:  "JID_10375.chk"
 Charge = -1 Multiplicity = 2

                         Standard orientation:
 ---------------------------------------------------------------------
 Center     Atomic      Atomic             Coordinates (Angstroms)
 Number     Number       Type             X           Y           Z
 ---------------------------------------------------------------------
      1          6           0       -2.747997    1.883181   -1.001396
      2          7           0       -3.139561    1.209480    0.237155
      3          6           0       -4.392191    1.716900    0.783317
      4          7           0       -3.255619   -0.192067    0.055987
      5          6           0       -2.082634   -0.951274   -0.035747
      6          7           0       -2.205254   -2.026342   -0.845897
      7          6           0       -1.139209   -2.809913   -0.954105
      8          7           0        0.032819   -2.676401   -0.330792
      9          6           0        0.127525   -1.632368    0.511159
     10          6           0       -0.906787   -0.677299    0.669954
     11          7           0       -0.683822    0.435045    1.521060
     12          7           0        1.280245   -1.491441    1.237317
     13          6           0        2.556145   -1.984693    0.747851
     14          6           0        2.998387   -1.306746   -0.574099
     15          6           0        2.805611    0.189297   -0.514651
     16          6           0        3.665306    1.000082    0.237728
     17          6           0        3.420391    2.365659    0.382965
     18          6           0        2.304919    2.946392   -0.223850
     19          6           0        1.445057    2.151896   -0.984630
     20          6           0        1.696954    0.786085   -1.128678
     21          1           0       -2.624998    2.953530   -0.807998
     22          1           0       -3.494491    1.751043   -1.804879
     23          1           0       -1.791691    1.474530   -1.339091
     24          1           0       -5.241925    1.576581    0.090319
     25          1           0       -4.609734    1.190823    1.714686
     26          1           0       -4.286056    2.786966    0.985334
     27          1           0       -3.887672   -0.457029   -0.705572
     28          1           0       -1.228913   -3.655053   -1.634319
     29          1           0        0.091013    0.998369    1.164478
     30          1           0       -1.513892    1.026086    1.520157
     31          1           0        1.305762   -0.669520    1.823096
     32          1           0        3.292988   -1.796817    1.534908
     33          1           0        2.488688   -3.064903    0.596386
     34          1           0        4.047344   -1.564046   -0.767354
     35          1           0        2.400359   -1.725670   -1.388448
     36          1           0        4.533468    0.554493    0.718558
     37          1           0        4.099640    2.977068    0.970661
     38          1           0        2.111891    4.009313   -0.110029
     39          1           0        0.579484    2.595266   -1.469972
     40          1           0        1.018213    0.167849   -1.709643
 ---------------------------------------------------------------------

 SCF Done:  E(UB3LYP) =  -874.338664899     A.U. after   33 cycles
 SCF Done:  E(UB3LYP) =  -874.338664899     a.u. after    1 cycles

 The electronic state is 2-A.
 Alpha  occ. eigenvalues --  -14.26505 -14.26316 -14.24091 -14.21766 -14.21346
 Alpha  occ. eigenvalues --  -14.21143 -10.15788 -10.15751 -10.14039 -10.12200
 Alpha  occ. eigenvalues --  -10.11980 -10.10635 -10.10489 -10.09646 -10.08905
 Alpha  occ. eigenvalues --  -10.08876 -10.08843 -10.08769 -10.08673 -10.08623
 Alpha  occ. eigenvalues --   -0.92928  -0.89900  -0.85426  -0.81438  -0.79072
 Alpha  occ. eigenvalues --   -0.77331  -0.73797  -0.70013  -0.66222  -0.66099
 Alpha  occ. eigenvalues --   -0.63406  -0.63058  -0.57461  -0.56783  -0.54383
 Alpha  occ. eigenvalues --   -0.52231  -0.51865  -0.49291  -0.48242  -0.44549
 Alpha  occ. eigenvalues --   -0.42661  -0.41884  -0.40690  -0.39915  -0.39103
 Alpha  occ. eigenvalues --   -0.38624  -0.37762  -0.37403  -0.36480  -0.35563
 Alpha  occ. eigenvalues --   -0.34821  -0.34177  -0.33633  -0.33022  -0.32789
 Alpha  occ. eigenvalues --   -0.31519  -0.30867  -0.30757  -0.29157  -0.27688
 Alpha  occ. eigenvalues --   -0.27649  -0.26364  -0.25436  -0.24961  -0.24556
 Alpha  occ. eigenvalues --   -0.21475  -0.20498  -0.17275  -0.17160  -0.16466
 Alpha  occ. eigenvalues --   -0.15954  -0.14949  -0.11508   0.03734
 Alpha virt. eigenvalues --    0.05290   0.06419   0.06540   0.06831   0.07384
 Alpha virt. eigenvalues --    0.07585   0.07808   0.07879   0.08236   0.08875
 Alpha virt. eigenvalues --    0.09210   0.09443   0.10122   0.10212   0.10804

  Beta  occ. eigenvalues --  -14.26495 -14.26309 -14.24088 -14.21759 -14.21344
  Beta  occ. eigenvalues --  -14.21141 -10.15788 -10.15750 -10.14038 -10.12190
  Beta  occ. eigenvalues --  -10.11979 -10.10596 -10.10445 -10.09631 -10.08888
  Beta  occ. eigenvalues --  -10.08862 -10.08837 -10.08754 -10.08663 -10.08598
  Beta  occ. eigenvalues --   -0.92914  -0.89893  -0.85420  -0.81429  -0.79062
  Beta  occ. eigenvalues --   -0.77295  -0.73779  -0.69979  -0.66194  -0.66066
  Beta  occ. eigenvalues --   -0.63364  -0.63006  -0.57429  -0.56761  -0.54347
  Beta  occ. eigenvalues --   -0.52190  -0.51828  -0.49251  -0.48227  -0.44522
  Beta  occ. eigenvalues --   -0.42607  -0.41858  -0.40675  -0.39892  -0.39083
  Beta  occ. eigenvalues --   -0.38569  -0.37726  -0.37372  -0.36443  -0.35533
  Beta  occ. eigenvalues --   -0.34804  -0.34158  -0.33601  -0.33001  -0.32768
  Beta  occ. eigenvalues --   -0.31476  -0.30831  -0.30714  -0.29117  -0.27663
  Beta  occ. eigenvalues --   -0.27607  -0.26342  -0.25403  -0.24939  -0.24545
  Beta  occ. eigenvalues --   -0.21467  -0.20483  -0.17262  -0.17118  -0.16397
  Beta  occ. eigenvalues --   -0.15917  -0.14927  -0.11501
  Beta virt. eigenvalues --    0.05843   0.06257   0.06551   0.06789   0.07441
  Beta virt. eigenvalues --    0.07477   0.07705   0.07877   0.08511   0.08553
  Beta virt. eigenvalues --    0.08985   0.09463   0.09960   0.10328   0.10600

 Mulliken charges and spin densities:
               1          2
     1  C    0.390174  -0.848483
     2  N   -0.396086   0.245441
     3  C    0.667983  -1.009625
     4  N    0.061486   0.006897
     5  C   -0.738491   0.302976
     6  N   -0.088850  -0.011035
     7  C   -0.005866  -0.019297
     8  N   -0.154250   0.020747
     9  C   -0.123341  -0.243143
    10  C    0.058044  -0.056013
    11  N   -0.420852  -0.009835
    12  N    0.057067   0.037565
    13  C   -0.063523  -0.425550
    14  C    0.523242  -0.891775
    15  C    0.114340   0.477630
    16  C   -0.586583   0.496486
    17  C    0.674467  -0.891586
    18  C    0.490818  -0.911907
    19  C   -0.183602  -0.037957
    20  C   -0.350333   0.003727
    21  H   -0.356432   0.538447
    22  H   -0.186867   0.335921
    23  H    0.263062  -0.074826
    24  H   -0.195117   0.321051
    25  H   -0.033978   0.199040
    26  H   -0.360988   0.530490
    27  H    0.204475   0.033380
    28  H    0.146071   0.032080
    29  H    0.388954  -0.165889
    30  H    0.195323   0.166990
    31  H    0.210508   0.057186
    32  H   -0.011575   0.173181
    33  H    0.161774   0.016823
    34  H   -0.061320   0.243495
    35  H    0.136652   0.032969
    36  H   -0.368617   0.531961
    37  H   -0.425508   0.612645
    38  H   -0.503088   0.676647
    39  H   -0.201252   0.385835
    40  H    0.072079   0.117313
 Sum of Mulliken charges =  -1.00000   1.00000

 Dipole moment (field-independent basis, Debye):
    X=              0.9130    Y=             -6.4333    Z=             -0.6742  Tot=              6.5326
 Quadrupole moment (field-independent basis, Debye-Ang):
   XX=           -205.3340   YY=           -191.1590   ZZ=           -152.7788
   XY=              1.6502   XZ=             -3.6007   YZ=              0.3801

 Summary of Natural Population Analysis:

                                       Natural Population
                Natural  -----------------------------------------------
    Atom  No    Charge         Core      Valence    Rydberg      Total
 -----------------------------------------------------------------------
      C    1   -0.18199      0.99963     2.17352    0.00885     3.18199
      N    2   -0.19306      0.99974     2.67828    0.01504     3.69306
      C    3   -0.17548      0.99964     2.16703    0.00881     3.17548
      N    4   -0.22487      0.99967     2.71257    0.01263     3.72487
      C    5    0.18629      0.99948     1.79820    0.01603     2.81371
      N    6   -0.27852      0.99968     2.76961    0.00923     3.77852
      C    7    0.14061      0.99967     1.84073    0.01899     2.85939
      N    8   -0.28418      0.99968     2.77554    0.00896     3.78418
      C    9    0.20621      0.99951     1.77879    0.01549     2.79379
      C   10    0.01396      0.99939     1.97674    0.00991     2.98604
      N   11   -0.41802      0.99973     2.90886    0.00943     3.91802
      N   12   -0.30868      0.99967     2.79915    0.00986     3.80868
      C   13   -0.08396      0.99962     2.07239    0.01195     3.08396
      C   14   -0.20731      0.99959     2.19927    0.00845     3.20731
      C   15   -0.01751      0.99950     2.00653    0.01148     3.01751
      C   16   -0.10465      0.99950     2.09476    0.01039     3.10465
      C   17   -0.09661      0.99956     2.08676    0.01029     3.09661
      C   18   -0.10222      0.99956     2.09212    0.01054     3.10222
      C   19   -0.10413      0.99956     2.09350    0.01107     3.10413
      C   20   -0.10666      0.99951     2.09740    0.00975     3.10666
      H   21    0.10438      0.00000     0.39315    0.00247     0.39562
      H   22    0.08472      0.00000     0.41373    0.00155     0.41528
      H   23    0.09796      0.00000     0.39991    0.00213     0.40204
      H   24    0.08278      0.00000     0.41574    0.00148     0.41722
      H   25    0.10087      0.00000     0.39787    0.00126     0.39913
      H   26    0.10166      0.00000     0.39666    0.00168     0.39834
      H   27    0.17658      0.00000     0.31975    0.00367     0.32342
      H   28    0.08070      0.00000     0.41833    0.00097     0.41930
      H   29    0.18468      0.00000     0.31202    0.00330     0.31532
      H   30    0.20000      0.00000     0.29748    0.00251     0.30000
      H   31    0.19785      0.00000     0.29940    0.00274     0.30215
      H   32    0.09606      0.00000     0.40302    0.00092     0.40394
      H   33    0.10352      0.00000     0.39519    0.00129     0.39648
      H   34    0.10407      0.00000     0.39492    0.00101     0.39593
      H   35    0.10722      0.00000     0.39133    0.00145     0.39278
      H   36    0.10120      0.00000     0.39729    0.00151     0.39880
      H   37    0.10298      0.00000     0.39562    0.00140     0.39702
      H   38    0.10540      0.00000     0.39296    0.00164     0.39460
      H   39    0.10478      0.00000     0.39385    0.00137     0.39522
      H   40    0.10336      0.00000     0.39491    0.00173     0.39664
 =======================================================================
   * Total *   -0.00000     19.99188    52.74488    0.26324    73.00000

 Normal termination of Gaussian 16 at Sat Dec 12 17:13:56 2020.
