 Gaussian 16, Revision A.03,

 -----------------------------------------------------------
 # opt freq B3LYP/6-31G(d) empiricaldispersion=gd3bj scf=xqc
 -----------------------------------------------------------

 -------------------------------
 CID_11651866_JID_10983_neutraal
 -------------------------------
 Symbolic Z-matrix:
 Charge =  0 Multiplicity = 1

 SCF Done:  E(RB3LYP) =  -862.134423766     A.U. after   15 cycles
 SCF Done:  E(RB3LYP) =  -862.139660239     A.U. after   14 cycles
 SCF Done:  E(RB3LYP) =  -862.139917576     A.U. after   12 cycles
 SCF Done:  E(RB3LYP) =  -862.140986599     A.U. after   13 cycles
 SCF Done:  E(RB3LYP) =  -862.141513779     A.U. after   12 cycles
 SCF Done:  E(RB3LYP) =  -862.141814154     A.U. after   12 cycles
 SCF Done:  E(RB3LYP) =  -862.141968437     A.U. after   11 cycles
 SCF Done:  E(RB3LYP) =  -862.142131030     A.U. after   12 cycles
 SCF Done:  E(RB3LYP) =  -862.142194087     A.U. after   13 cycles
 SCF Done:  E(RB3LYP) =  -862.142230071     A.U. after   11 cycles
 SCF Done:  E(RB3LYP) =  -862.142549606     A.U. after   11 cycles
 SCF Done:  E(RB3LYP) =  -862.142611005     A.U. after   12 cycles
 SCF Done:  E(RB3LYP) =  -862.142624016     A.U. after   10 cycles
 SCF Done:  E(RB3LYP) =  -862.142634044     A.U. after   10 cycles
 SCF Done:  E(RB3LYP) =  -862.142635537     A.U. after    8 cycles
 SCF Done:  E(RB3LYP) =  -862.142635730     A.U. after    8 cycles
 Optimization completed.
    -- Stationary point found.
 Normal termination of Gaussian 16 at Sat Dec 12 16:36:39 2020.

 --------------------------------------------------------------------
 #N Geom=AllCheck Guess=TCheck SCRF=Check GenChk RB3LYP/6-31G(d) Freq
 --------------------------------------------------------------------

 Structure from the checkpoint file:  "JID_10983.chk"
 -------------------------------
 CID_11651866_JID_10983_neutraal
 -------------------------------
 Charge =  0 Multiplicity = 1

 SCF Done:  E(RB3LYP) =  -862.142635730     A.U. after    1 cycles

  Exact polarizability: 290.082 -10.875 184.660  -4.093  -7.607 103.409
 Approx polarizability: 429.008 -14.962 309.273  -3.787 -18.210 171.271

                      1                      2                      3
                      A                      A                      A
 Frequencies --     36.8627                56.5279                61.0280
 Red. masses --      9.5222                 4.5541                 4.6421
 Frc consts  --      0.0076                 0.0086                 0.0102
 IR Inten    --      2.0132                 0.7201                 0.7658

                      4                      5                      6
                      A                      A                      A
 Frequencies --     66.2219                66.8598                94.5896
 Red. masses --      5.9020                 4.8251                 4.5012
 Frc consts  --      0.0152                 0.0127                 0.0237
 IR Inten    --      0.1811                 0.7355                 0.0447

                      7                      8                      9
                      A                      A                      A
 Frequencies --    152.4076               195.0372               211.9899
 Red. masses --      4.0586                 4.9350                 4.4567
 Frc consts  --      0.0555                 0.1106                 0.1180
 IR Inten    --      0.2655                 0.5954                 0.0563

                     10                     11                     12
                      A                      A                      A
 Frequencies --    232.4217               242.8205               279.5311
 Red. masses --      1.0688                 3.5726                 4.7037
 Frc consts  --      0.0340                 0.1241                 0.2165
 IR Inten    --      0.1546                 0.3538                 1.0542

                     13                     14                     15
                      A                      A                      A
 Frequencies --    289.2085               312.1416               349.7271
 Red. masses --      6.0149                 4.5138                 4.0129
 Frc consts  --      0.2964                 0.2591                 0.2892
 IR Inten    --      0.3420                 1.9107                 1.3968

                     16                     17                     18
                      A                      A                      A
 Frequencies --    406.5906               423.3053               446.6040
 Red. masses --      5.0078                 3.1157                 3.5276
 Frc consts  --      0.4878                 0.3289                 0.4145
 IR Inten    --      0.7472                 0.0768                 2.0529

                     19                     20                     21
                      A                      A                      A
 Frequencies --    485.2303               506.4975               532.1751
 Red. masses --      4.1229                 3.5410                 4.7064
 Frc consts  --      0.5719                 0.5352                 0.7853
 IR Inten    --      5.9755                 3.2657                 8.7072

                     22                     23                     24
                      A                      A                      A
 Frequencies --    569.3251               585.0677               599.7809
 Red. masses --      4.2940                 4.0806                 4.3149
 Frc consts  --      0.8200                 0.8230                 0.9146
 IR Inten    --     19.4506                 7.3191                31.7146

                     25                     26                     27
                      A                      A                      A
 Frequencies --    606.2668               632.3104               664.6275
 Red. masses --      4.0218                 6.1063                 2.6320
 Frc consts  --      0.8710                 1.4384                 0.6850
 IR Inten    --     16.6655                 1.8695                12.9546

                     28                     29                     30
                      A                      A                      A
 Frequencies --    680.4708               686.0613               719.2802
 Red. masses --      2.5439                 4.1109                 2.3134
 Frc consts  --      0.6940                 1.1400                 0.7052
 IR Inten    --     35.2883                14.7762                41.6109

                     31                     32                     33
                      A                      A                      A
 Frequencies --    722.8128               753.7365               765.7144
 Red. masses --      2.5770                 1.2545                 2.4913
 Frc consts  --      0.7933                 0.4199                 0.8606
 IR Inten    --     23.3368                15.4171                38.0115

                     34                     35                     36
                      A                      A                      A
 Frequencies --    780.2070               790.9175               808.8807
 Red. masses --      1.9821                 3.7631                 1.6740
 Frc consts  --      0.7109                 1.3869                 0.6453
 IR Inten    --     36.4100                21.5156                20.4035

                     37                     38                     39
                      A                      A                      A
 Frequencies --    837.4002               858.2407               868.0558
 Red. masses --      3.2822                 3.3778                 1.4878
 Frc consts  --      1.3561                 1.4659                 0.6605
 IR Inten    --      5.3853                 1.0834                 0.4741

                     40                     41                     42
                      A                      A                      A
 Frequencies --    874.6549               919.6842               931.4027
 Red. masses --      1.2520                 4.2833                 1.3392
 Frc consts  --      0.5643                 2.1346                 0.6845
 IR Inten    --      0.6600                 0.2173                 2.6260

                     43                     44                     45
                      A                      A                      A
 Frequencies --    944.7256               969.4957               985.0362
 Red. masses --      1.3873                 1.2234                 1.3128
 Frc consts  --      0.7295                 0.6775                 0.7505
 IR Inten    --      4.9000                 0.1609                 1.7596

                     46                     47                     48
                      A                      A                      A
 Frequencies --   1003.0529              1012.8445              1019.8131
 Red. masses --      2.0669                 1.3789                 6.1686
 Frc consts  --      1.2252                 0.8334                 3.7799
 IR Inten    --      8.7261                 0.7877                 0.1168

                     49                     50                     51
                      A                      A                      A
 Frequencies --   1050.6706              1061.6692              1072.5414
 Red. masses --      2.2423                 2.2496                 1.8563
 Frc consts  --      1.4584                 1.4939                 1.2581
 IR Inten    --      2.8163                10.6138                51.8514

                     52                     53                     54
                      A                      A                      A
 Frequencies --   1099.8417              1113.6772              1136.1095
 Red. masses --      2.5183                 1.6077                 2.1984
 Frc consts  --      1.7948                 1.1748                 1.6719
 IR Inten    --     19.8808                 3.4823                27.6532

                     55                     56                     57
                      A                      A                      A
 Frequencies --   1159.4817              1180.5657              1194.8166
 Red. masses --      1.9922                 1.4165                 1.0968
 Frc consts  --      1.5780                 1.1632                 0.9225
 IR Inten    --      7.3306                33.1403                 0.0260

                     58                     59                     60
                      A                      A                      A
 Frequencies --   1198.2675              1214.3144              1219.2435
 Red. masses --      1.3905                 1.9371                 1.5605
 Frc consts  --      1.1764                 1.6829                 1.3668
 IR Inten    --     86.7517                85.6263                17.6810

                     61                     62                     63
                      A                      A                      A
 Frequencies --   1220.3061              1283.5736              1328.6940
 Red. masses --      1.3744                 2.6268                 2.9561
 Frc consts  --      1.2059                 2.5498                 3.0748
 IR Inten    --      8.5105                 5.5440                12.5354

                     64                     65                     66
                      A                      A                      A
 Frequencies --   1336.9176              1355.0959              1359.0965
 Red. masses --      2.2369                 2.4959                 1.5405
 Frc consts  --      2.3556                 2.7004                 1.6765
 IR Inten    --     14.0604                34.4262                20.9020

                     67                     68                     69
                      A                      A                      A
 Frequencies --   1373.4225              1380.7733              1396.9820
 Red. masses --      1.7281                 2.4649                 4.9271
 Frc consts  --      1.9206                 2.7688                 5.6653
 IR Inten    --      2.8732                32.6941                58.1975

                     70                     71                     72
                      A                      A                      A
 Frequencies --   1401.1053              1440.0771              1446.1326
 Red. masses --      2.5101                 2.0454                 1.2953
 Frc consts  --      2.9032                 2.4991                 1.5960
 IR Inten    --     13.2948                 7.2673                10.9598

                     73                     74                     75
                      A                      A                      A
 Frequencies --   1490.5509              1503.8010              1520.1136
 Red. masses --      2.4059                 2.6357                 1.0867
 Frc consts  --      3.1494                 3.5118                 1.4795
 IR Inten    --      9.7071                37.9494                 7.5512

                     76                     77                     78
                      A                      A                      A
 Frequencies --   1527.9289              1530.7663              1543.5400
 Red. masses --      1.3300                 1.6886                 2.3946
 Frc consts  --      1.8294                 2.3313                 3.3614
 IR Inten    --      0.0502                 9.5116                15.4612

                     79                     80                     81
                      A                      A                      A
 Frequencies --   1602.7725              1632.1481              1637.2715
 Red. masses --      5.8802                 5.8397                 5.7208
 Frc consts  --      8.8998                 9.1656                 9.0354
 IR Inten    --      3.6910                 0.4427                 0.8380

                     82                     83                     84
                      A                      A                      A
 Frequencies --   1666.4278              1669.8965              1845.1532
 Red. masses --      5.5155                 6.4671                10.2123
 Frc consts  --      9.0241                10.6253                20.4852
 IR Inten    --     15.2255                 2.0942               217.7672

                     85                     86                     87
                      A                      A                      A
 Frequencies --   3078.0543              3106.9341              3146.0155
 Red. masses --      1.0369                 1.0831                 1.1036
 Frc consts  --      5.7881                 6.1599                 6.4358
 IR Inten    --     13.9709                 8.3138                17.6248

                     88                     89                     90
                      A                      A                      A
 Frequencies --   3173.5102              3183.2568              3183.9635
 Red. masses --      1.1007                 1.0853                 1.0850
 Frc consts  --      6.5310                 6.4795                 6.4807
 IR Inten    --      8.1511                 0.5840                 1.2350

                     91                     92                     93
                      A                      A                      A
 Frequencies --   3192.2239              3193.6206              3201.6894
 Red. masses --      1.0881                 1.0896                 1.0916
 Frc consts  --      6.5331                 6.5473                 6.5928
 IR Inten    --     10.4986                15.1176                16.0777

                     94                     95                     96
                      A                      A                      A
 Frequencies --   3206.1197              3207.5965              3213.6725
 Red. masses --      1.0943                 1.0944                 1.0981
 Frc consts  --      6.6275                 6.6341                 6.6818
 IR Inten    --     39.5225                14.2673                26.9156

                     97                     98                     99
                      A                      A                      A
 Frequencies --   3217.8983              3261.9741              3676.3756
 Red. masses --      1.0947                 1.0955                 1.0640
 Frc consts  --      6.6785                 6.8679                 8.4727
 IR Inten    --     15.2568                 3.6193                63.7260

 - Thermochemistry -
 -------------------
 Temperature   298.150 Kelvin.  Pressure   1.00000 Atm.
 Atom     1 has atomic number  6 and mass  12.00000

 Molecular mass:   265.11028 amu.
 Principal axes and moments of inertia in atomic units:
                           1         2         3
     Eigenvalues --  3373.400416741.440439028.44535
           X            1.00000   0.00031   0.00075
           Y           -0.00032   0.99994   0.01052
           Z           -0.00075  -0.01052   0.99994
 This molecule is an asymmetric top.
 Rotational symmetry number  1.
 Warning -- assumption of classical behavior for rotation
           may cause significant error
 Rotational temperatures (Kelvin)      0.02568     0.01285     0.00959
 Rotational constants (GHZ):           0.53499     0.26771     0.19990
 Zero-point vibrational energy     744521.6 (Joules/Mol)
                                  177.94494 (Kcal/Mol)
 Warning -- explicit consideration of  25 degrees of freedom as
           vibrations may cause significant error
 Vibrational temperatures:     53.04    81.33    87.81    95.28    96.20
          (Kelvin)            136.09   219.28   280.62   305.01   334.40
                              349.36   402.18   416.11   449.10   503.18
                              584.99   609.04   642.56   698.14   728.74
                              765.68   819.13   841.78   862.95   872.28
                              909.75   956.25   979.05   987.09  1034.88
                             1039.97  1084.46  1101.69  1122.54  1137.95
                             1163.80  1204.83  1234.82  1248.94  1258.43
                             1323.22  1340.08  1359.25  1394.89  1417.25
                             1443.17  1457.26  1467.28  1511.68  1527.51
                             1543.15  1582.43  1602.33  1634.61  1668.24
                             1698.57  1719.07  1724.04  1747.13  1754.22
                             1755.75  1846.78  1911.69  1923.53  1949.68
                             1955.44  1976.05  1986.62  2009.95  2015.88
                             2071.95  2080.66  2144.57  2163.63  2187.10
                             2198.35  2202.43  2220.81  2306.03  2348.30
                             2355.67  2397.62  2402.61  2654.76  4428.63
                             4470.19  4526.41  4565.97  4580.00  4581.01
                             4592.90  4594.91  4606.52  4612.89  4615.02
                             4623.76  4629.84  4693.25  5289.48

 Zero-point correction=                           0.283573 (Hartree/Particle)
 Thermal correction to Energy=                    0.299963
 Thermal correction to Enthalpy=                  0.300907
 Thermal correction to Gibbs Free Energy=         0.238742
 Sum of electronic and zero-point Energies=           -861.859062
 Sum of electronic and thermal Energies=              -861.842673
 Sum of electronic and thermal Enthalpies=            -861.841728
 Sum of electronic and thermal Free Energies=         -861.903894

                     E (Thermal)             CV                S
                      KCal/Mol        Cal/Mol-Kelvin    Cal/Mol-Kelvin
 Total                  188.230             64.948            130.838
 Electronic               0.000              0.000              0.000
 Translational            0.889              2.981             42.624
 Rotational               0.889              2.981             33.684
 Vibrational            186.452             58.986             54.530
 Vibration     1          0.594              1.982              5.421
 Vibration     2          0.596              1.975              4.575
 Vibration     3          0.597              1.973              4.424
 Vibration     4          0.598              1.970              4.263
 Vibration     5          0.598              1.970              4.244
 Vibration     6          0.603              1.953              3.563
 Vibration     7          0.619              1.900              2.642
 Vibration     8          0.636              1.847              2.179
 Vibration     9          0.643              1.823              2.026
 Vibration    10          0.653              1.791              1.860
 Vibration    11          0.659              1.775              1.782
 Vibration    12          0.680              1.711              1.537
 Vibration    13          0.686              1.694              1.479
 Vibration    14          0.700              1.651              1.351
 Vibration    15          0.727              1.576              1.167
 Vibration    16          0.771              1.456              0.939
 Vibration    17          0.785              1.420              0.881
 Vibration    18          0.806              1.368              0.806
 Vibration    19          0.841              1.283              0.696
 Vibration    20          0.862              1.236              0.642
 Vibration    21          0.887              1.179              0.582
 Vibration    22          0.925              1.098              0.506
 Vibration    23          0.942              1.064              0.476
 Vibration    24          0.958              1.032              0.450
 Vibration    25          0.965              1.019              0.439

 Optimization completed.
    -- Stationary point found.
 Normal termination of Gaussian 16 at Sat Dec 12 16:55:55 2020.

 ----------------------------------------------------------------------
 # B3LYP/6-311++G(d,p) empiricaldispersion=gd3bj scf=xqc pop=npa geom=c
 heck
 ----------------------------------------------------------------------

 ---------------------------------------
 CID_11651866_JID_10983_Energie_neutraal
 ---------------------------------------
 Structure from the checkpoint file:  "JID_10983.chk"
 Charge =  0 Multiplicity = 1

 SCF Done:  E(RB3LYP) =  -862.374187754     A.U. after   16 cycles
 Normal termination of Gaussian 16 at Sat Dec 12 17:03:10 2020.

 ----------------------------------------------------------------------
 # B3LYP/6-311++G(d,p) empiricaldispersion=gd3bj scf=xqc pop=npa geom=c
 heck
 ----------------------------------------------------------------------

 -------------------------------------
 CID_11651866_JID_10983_Energie_kation
 -------------------------------------
 Structure from the checkpoint file:  "JID_10983.chk"
 Charge =  1 Multiplicity = 2

 SCF Done:  E(UB3LYP) =  -862.109343466     A.U. after   24 cycles
 Normal termination of Gaussian 16 at Sat Dec 12 17:18:02 2020.
 Gaussian 16:  ES64L-G16RevA.03 25-Dec-2016

 ----------------------------------------------------------------------
 # B3LYP/6-311++G(d,p) empiricaldispersion=gd3bj scf=xqc pop=npa geom=c
 heck
 ----------------------------------------------------------------------

 ------------------------------------
 CID_11651866_JID_10983_Energie_anion
 ------------------------------------
 Structure from the checkpoint file:  "JID_10983.chk"
 Charge = -1 Multiplicity = 2

                         Standard orientation:
 ---------------------------------------------------------------------
 Center     Atomic      Atomic             Coordinates (Angstroms)
 Number     Number       Type             X           Y           Z
 ---------------------------------------------------------------------
      1          6           0        0.653729    1.634033    2.079810
      2          6           0        0.116407    1.427786    0.661596
      3          6           0        0.539567    2.476247   -0.373431
      4          8           0        0.130297    2.503069   -1.511461
      5          8           0        1.411687    3.389271    0.112691
      6          7           0        0.409182    0.103322    0.130646
      7          6           0        1.688159   -0.428591    0.018805
      8          6           0        2.936913    0.199818    0.073220
      9          6           0        4.065580   -0.595518   -0.096444
     10          6           0        3.957851   -1.982422   -0.317743
     11          6           0        2.716765   -2.602389   -0.376361
     12          6           0        1.558128   -1.827753   -0.202906
     13          6           0        0.155151   -2.116020   -0.213676
     14          6           0       -0.521869   -0.934550   -0.018023
     15          6           0       -1.971698   -0.708670   -0.034709
     16          6           0       -2.541419    0.334303   -0.787993
     17          6           0       -3.924250    0.505002   -0.818286
     18          6           0       -4.758977   -0.364530   -0.113861
     19          6           0       -4.202230   -1.410609    0.624504
     20          6           0       -2.820112   -1.578750    0.668490
     21          1           0        1.740200    1.548547    2.125482
     22          1           0        0.218873    0.872305    2.733455
     23          1           0        0.369492    2.621871    2.452802
     24          1           0       -0.973128    1.505111    0.693926
     25          1           0        1.601238    4.000738   -0.624678
     26          1           0        3.030502    1.269908    0.224469
     27          1           0        5.048505   -0.134447   -0.063784
     28          1           0        4.860817   -2.571763   -0.448941
     29          1           0        2.638552   -3.671440   -0.554348
     30          1           0       -0.311020   -3.069577   -0.419218
     31          1           0       -1.895768    0.990291   -1.364873
     32          1           0       -4.351045    1.312364   -1.406826
     33          1           0       -5.836526   -0.230010   -0.142498
     34          1           0       -4.845291   -2.091287    1.175435
     35          1           0       -2.381713   -2.378917    1.257277
 ---------------------------------------------------------------------

 SCF Done:  E(UB3LYP) =  -862.371599985     A.U. after   32 cycles

 The electronic state is 2-A.
 Alpha  occ. eigenvalues --  -19.07403 -19.01622 -14.24260 -10.20791 -10.12941
 Alpha  occ. eigenvalues --  -10.08787 -10.08486 -10.07131 -10.06231 -10.06068
 Alpha  occ. eigenvalues --  -10.06036 -10.05685 -10.05504 -10.05477 -10.05454
 Alpha  occ. eigenvalues --  -10.05375 -10.05240 -10.05233 -10.05226 -10.03649
 Alpha  occ. eigenvalues --   -1.01417  -0.92434  -0.87402  -0.74358  -0.73711
 Alpha  occ. eigenvalues --   -0.70596  -0.65837  -0.64433  -0.63313  -0.61851
 Alpha  occ. eigenvalues --   -0.59218  -0.57233  -0.52585  -0.51299  -0.49598
 Alpha  occ. eigenvalues --   -0.47461  -0.47049  -0.45326  -0.41717  -0.40646
 Alpha  occ. eigenvalues --   -0.39160  -0.39031  -0.37127  -0.36229  -0.35510
 Alpha  occ. eigenvalues --   -0.33816  -0.33233  -0.32754  -0.32089  -0.31480
 Alpha  occ. eigenvalues --   -0.31263  -0.30868  -0.29866  -0.28933  -0.28569
 Alpha  occ. eigenvalues --   -0.28231  -0.27375  -0.25682  -0.24629  -0.23510
 Alpha  occ. eigenvalues --   -0.23325  -0.22800  -0.22392  -0.21777  -0.18577
 Alpha  occ. eigenvalues --   -0.16712  -0.15124  -0.14561  -0.11018  -0.09075
 Alpha  occ. eigenvalues --    0.04326
 Alpha virt. eigenvalues --    0.06162   0.07466   0.07979   0.08513   0.08674
 Alpha virt. eigenvalues --    0.09036   0.09448   0.09785   0.10276   0.10471
 Alpha virt. eigenvalues --    0.10814   0.11539   0.11955   0.12460   0.12566

  Beta  occ. eigenvalues --  -19.07345 -19.01589 -14.24213 -10.20771 -10.12937
  Beta  occ. eigenvalues --  -10.08802 -10.08373 -10.07125 -10.06257 -10.06055
  Beta  occ. eigenvalues --  -10.05914 -10.05604 -10.05508 -10.05459 -10.05440
  Beta  occ. eigenvalues --  -10.05303 -10.05138 -10.05106 -10.05013 -10.03575
  Beta  occ. eigenvalues --   -1.01325  -0.92351  -0.87295  -0.74116  -0.73605
  Beta  occ. eigenvalues --   -0.70466  -0.65583  -0.64208  -0.63138  -0.61730
  Beta  occ. eigenvalues --   -0.59009  -0.57148  -0.52447  -0.50955  -0.49531
  Beta  occ. eigenvalues --   -0.47273  -0.46958  -0.45198  -0.41630  -0.40548
  Beta  occ. eigenvalues --   -0.39100  -0.38949  -0.37030  -0.36096  -0.35385
  Beta  occ. eigenvalues --   -0.33677  -0.33136  -0.32658  -0.32025  -0.31393
  Beta  occ. eigenvalues --   -0.31195  -0.30817  -0.29806  -0.28816  -0.28472
  Beta  occ. eigenvalues --   -0.28078  -0.27307  -0.25182  -0.24508  -0.23373
  Beta  occ. eigenvalues --   -0.23188  -0.22686  -0.22323  -0.21422  -0.18457
  Beta  occ. eigenvalues --   -0.16227  -0.14162  -0.14081  -0.10680  -0.08363
  Beta virt. eigenvalues --    0.07095   0.07566   0.07997   0.08082   0.08715
  Beta virt. eigenvalues --    0.08797   0.09154   0.09433   0.09978   0.10431
  Beta virt. eigenvalues --    0.10764   0.11166   0.11618   0.11916   0.12494

 Mulliken charges and spin densities:
               1          2
     1  C   -0.155209  -0.303598
     2  C   -0.326463  -0.492627
     3  C    0.109023   0.074044
     4  O   -0.256315   0.020776
     5  O   -0.129114   0.036762
     6  N    0.720228   0.031299
     7  C    0.373244  -0.316550
     8  C   -0.157828   0.045374
     9  C   -0.417613   0.287126
    10  C   -0.382357  -0.006262
    11  C   -0.612265   0.141376
    12  C    0.374743   0.008930
    13  C   -0.614699   0.022454
    14  C    0.082091   0.018204
    15  C    0.572216   0.057153
    16  C   -0.142476   0.057243
    17  C   -0.230996   0.037714
    18  C   -0.355799   0.159481
    19  C   -0.385389  -0.004013
    20  C   -0.374591   0.086922
    21  H    0.199007  -0.012687
    22  H    0.141669   0.012004
    23  H    0.023471   0.141565
    24  H    0.189982  -0.040963
    25  H   -0.504711   0.820963
    26  H    0.124714   0.035653
    27  H    0.048391   0.084946
    28  H    0.111129  -0.000247
    29  H    0.114417  -0.004279
    30  H    0.138193  -0.002975
    31  H    0.210231  -0.003518
    32  H    0.136834   0.013821
    33  H    0.112062  -0.013820
    34  H    0.126767   0.004901
    35  H    0.137412   0.002828
 Sum of Mulliken charges =  -1.00000   1.00000

 Dipole moment (field-independent basis, Debye):
    X=             -1.7346    Y=             -2.9500    Z=              2.5281  Tot=              4.2547
 Quadrupole moment (field-independent basis, Debye-Ang):
   XX=           -166.6249   YY=           -159.2690   ZZ=           -136.7009
   XY=             -8.3547   XZ=              0.1321   YZ=              4.2930

 Summary of Natural Population Analysis:

                                       Natural Population
                Natural  -----------------------------------------------
    Atom  No    Charge         Core      Valence    Rydberg      Total
 -----------------------------------------------------------------------
      C    1   -0.28948      0.99965     2.28401    0.00582     3.28948
      C    2   -0.05296      0.99954     2.04088    0.01254     3.05296
      C    3    0.40983      0.99969     1.56492    0.02556     2.59017
      O    4   -0.29969      0.99987     3.29380    0.00602     4.29969
      O    5   -0.34452      0.99988     3.33730    0.00735     4.34452
      N    6   -0.20934      0.99959     2.69915    0.01060     3.70934
      C    7    0.08327      0.99947     1.90617    0.01109     2.91673
      C    8   -0.11936      0.99953     2.10984    0.01000     3.11936
      C    9   -0.09524      0.99959     2.08621    0.00944     3.09524
      C   10   -0.12707      0.99958     2.11840    0.00909     3.12707
      C   11   -0.07676      0.99953     2.06905    0.00818     3.07676
      C   12   -0.04547      0.99951     2.03801    0.00795     3.04547
      C   13   -0.12214      0.99943     2.11561    0.00710     3.12214
      C   14    0.11743      0.99946     1.86978    0.01333     2.88257
      C   15   -0.02338      0.99949     2.01412    0.00978     3.02338
      C   16   -0.09092      0.99953     2.08126    0.01013     3.09092
      C   17   -0.10943      0.99957     2.10147    0.00840     3.10943
      C   18   -0.06971      0.99957     2.06099    0.00914     3.06971
      C   19   -0.11383      0.99957     2.10544    0.00882     3.11383
      C   20   -0.07727      0.99954     2.07004    0.00769     3.07727
      H   21    0.10720      0.00000     0.39184    0.00096     0.39280
      H   22    0.10290      0.00000     0.39633    0.00077     0.39710
      H   23    0.10344      0.00000     0.39578    0.00078     0.39656
      H   24    0.12573      0.00000     0.37267    0.00160     0.37427
      H   25    0.24515      0.00000     0.23447    0.02038     0.25485
      H   26    0.10391      0.00000     0.39435    0.00174     0.39609
      H   27    0.09407      0.00000     0.40512    0.00081     0.40593
      H   28    0.09269      0.00000     0.40641    0.00090     0.40731
      H   29    0.09238      0.00000     0.40625    0.00138     0.40762
      H   30    0.10145      0.00000     0.39776    0.00079     0.39855
      H   31    0.11097      0.00000     0.38755    0.00148     0.38903
      H   32    0.09539      0.00000     0.40375    0.00087     0.40461
      H   33    0.09013      0.00000     0.40889    0.00098     0.40987
      H   34    0.09312      0.00000     0.40591    0.00096     0.40688
      H   35    0.09752      0.00000     0.40117    0.00131     0.40248
 =======================================================================
   * Total *    0.00000     19.99157    49.77470    0.23373    70.00000

 Normal termination of Gaussian 16 at Sat Dec 12 17:36:50 2020.
