 Gaussian 16, Revision A.03,

 -----------------------------------------------------------
 # opt freq B3LYP/6-31G(d) empiricaldispersion=gd3bj scf=xqc
 -----------------------------------------------------------

 -------------------------------
 CID_126510043_JID_7359_neutraal
 -------------------------------
 Symbolic Z-matrix:
 Charge =  0 Multiplicity = 1

 SCF Done:  E(RB3LYP) =  -804.727452333     A.U. after   15 cycles
 SCF Done:  E(RB3LYP) =  -804.731999058     A.U. after   12 cycles
 SCF Done:  E(RB3LYP) =  -804.732592889     A.U. after   12 cycles
 SCF Done:  E(RB3LYP) =  -804.732688587     A.U. after   11 cycles
 SCF Done:  E(RB3LYP) =  -804.732719844     A.U. after   11 cycles
 SCF Done:  E(RB3LYP) =  -804.732736319     A.U. after   10 cycles
 SCF Done:  E(RB3LYP) =  -804.732744563     A.U. after   10 cycles
 SCF Done:  E(RB3LYP) =  -804.732752432     A.U. after    9 cycles
 SCF Done:  E(RB3LYP) =  -804.732754116     A.U. after    8 cycles
 SCF Done:  E(RB3LYP) =  -804.732754569     A.U. after    8 cycles
 SCF Done:  E(RB3LYP) =  -804.732754634     A.U. after    6 cycles
 Optimization completed.
    -- Stationary point found.
 Normal termination of Gaussian 16 at Fri Dec 11 11:59:26 2020.

 --------------------------------------------------------------------
 #N Geom=AllCheck Guess=TCheck SCRF=Check GenChk RB3LYP/6-31G(d) Freq
 --------------------------------------------------------------------

 Structure from the checkpoint file:  "JID_7359.chk"
 -------------------------------
 CID_126510043_JID_7359_neutraal
 -------------------------------
 Charge =  0 Multiplicity = 1

 SCF Done:  E(RB3LYP) =  -804.732754634     A.U. after    1 cycles

  Exact polarizability: 322.839  24.208 142.630  -8.803   3.059  77.565
 Approx polarizability: 443.313  63.951 250.406 -12.757   4.154 120.950

                      1                      2                      3
                      A                      A                      A
 Frequencies --     26.3135                40.1277                52.8120
 Red. masses --      4.8355                 6.1708                 5.7694
 Frc consts  --      0.0020                 0.0059                 0.0095
 IR Inten    --      0.4902                 0.4381                 0.9107

                      4                      5                      6
                      A                      A                      A
 Frequencies --     72.7900               104.0767               134.1527
 Red. masses --      6.5784                 6.0932                 3.2838
 Frc consts  --      0.0205                 0.0389                 0.0348
 IR Inten    --      1.1513                 1.6647                 0.7676

                      7                      8                      9
                      A                      A                      A
 Frequencies --    151.1930               175.8316               193.3362
 Red. masses --      6.1435                 3.4742                 4.5525
 Frc consts  --      0.0827                 0.0633                 0.1003
 IR Inten    --      1.6126                 2.1181                 0.3994

                     10                     11                     12
                      A                      A                      A
 Frequencies --    219.9397               274.7431               286.1588
 Red. masses --      3.4012                 5.4348                 2.2461
 Frc consts  --      0.0969                 0.2417                 0.1084
 IR Inten    --      2.4543                 0.0243                 2.3378

                     13                     14                     15
                      A                      A                      A
 Frequencies --    331.4890               360.4148               377.5485
 Red. masses --      2.3902                 1.3618                 2.0234
 Frc consts  --      0.1547                 0.1042                 0.1699
 IR Inten    --     10.4064                41.9932                 4.4360

                     16                     17                     18
                      A                      A                      A
 Frequencies --    391.2427               431.5073               469.7013
 Red. masses --      2.9979                 4.7366                 6.1029
 Frc consts  --      0.2704                 0.5196                 0.7933
 IR Inten    --     12.4191                27.9767                 0.7528

                     19                     20                     21
                      A                      A                      A
 Frequencies --    487.5113               538.2298               546.3371
 Red. masses --      2.4397                 5.3418                 1.4233
 Frc consts  --      0.3416                 0.9117                 0.2503
 IR Inten    --      4.4944                 3.0825                57.8705

                     22                     23                     24
                      A                      A                      A
 Frequencies --    558.5457               596.0121               633.1034
 Red. masses --      4.4633                 5.1381                 2.7818
 Frc consts  --      0.8204                 1.0754                 0.6569
 IR Inten    --      4.0362                 3.0919                43.7693

                     25                     26                     27
                      A                      A                      A
 Frequencies --    683.4472               698.7112               745.0548
 Red. masses --      4.0707                 4.1965                 3.6192
 Frc consts  --      1.1203                 1.2071                 1.1837
 IR Inten    --      0.4244                53.0047                 8.8574

                     28                     29                     30
                      A                      A                      A
 Frequencies --    755.8899               786.6319               801.0495
 Red. masses --      5.9370                 2.0018                 1.3578
 Frc consts  --      1.9986                 0.7298                 0.5133
 IR Inten    --     45.6040                 1.5360                24.3799

                     31                     32                     33
                      A                      A                      A
 Frequencies --    805.5222               819.8356               841.8398
 Red. masses --      4.2008                 1.4773                 2.5991
 Frc consts  --      1.6060                 0.5850                 1.0853
 IR Inten    --      5.8686                 7.6984                13.9351

                     34                     35                     36
                      A                      A                      A
 Frequencies --    881.5422               889.7756               924.1539
 Red. masses --      1.9570                 1.3930                 1.8734
 Frc consts  --      0.8960                 0.6498                 0.9427
 IR Inten    --      2.3982                 0.9622                 6.2992

                     37                     38                     39
                      A                      A                      A
 Frequencies --    947.2515               977.7219               985.9084
 Red. masses --      2.3774                 6.0963                 2.2355
 Frc consts  --      1.2569                 3.4336                 1.2803
 IR Inten    --      7.4037                 8.1699                 3.6414

                     40                     41                     42
                      A                      A                      A
 Frequencies --    996.9006              1007.8098              1011.2847
 Red. masses --      1.6047                 1.5095                 4.1176
 Frc consts  --      0.9396                 0.9033                 2.4811
 IR Inten    --     57.2294                 1.0776                 3.9888

                     43                     44                     45
                      A                      A                      A
 Frequencies --   1057.2114              1061.0789              1099.0531
 Red. masses --      1.2779                 2.0930                 1.8725
 Frc consts  --      0.8415                 1.3884                 1.3326
 IR Inten    --     35.7047                19.5791                16.0850

                     46                     47                     48
                      A                      A                      A
 Frequencies --   1110.7966              1140.6077              1195.1496
 Red. masses --      1.8790                 3.8964                 1.1490
 Frc consts  --      1.3660                 2.9867                 0.9670
 IR Inten    --     33.4483               484.8193                 5.2774

                     49                     50                     51
                      A                      A                      A
 Frequencies --   1201.6718              1217.0554              1234.7879
 Red. masses --      1.4123                 2.1523                 1.4881
 Frc consts  --      1.2016                 1.8784                 1.3368
 IR Inten    --     36.4612                36.3735               108.0750

                     52                     53                     54
                      A                      A                      A
 Frequencies --   1240.4774              1248.0326              1288.6593
 Red. masses --      1.6257                 1.4408                 2.3397
 Frc consts  --      1.4739                 1.3222                 2.2892
 IR Inten    --     26.5372                26.4600                49.6679

                     55                     56                     57
                      A                      A                      A
 Frequencies --   1318.7970              1340.2823              1343.9349
 Red. masses --      1.4890                 1.5049                 1.4108
 Frc consts  --      1.5258                 1.5927                 1.5013
 IR Inten    --      4.4449                 1.0107                 1.5530

                     58                     59                     60
                      A                      A                      A
 Frequencies --   1349.7584              1378.6564              1397.1070
 Red. masses --      2.1180                 1.4562                 1.5608
 Frc consts  --      2.2734                 1.6307                 1.7949
 IR Inten    --     10.2972                 6.1616                50.5115

                     61                     62                     63
                      A                      A                      A
 Frequencies --   1400.0596              1403.8790              1427.0281
 Red. masses --      2.7285                 1.8226                 2.1843
 Frc consts  --      3.1511                 2.1164                 2.6207
 IR Inten    --    158.7103                15.4191                13.8031

                     64                     65                     66
                      A                      A                      A
 Frequencies --   1432.3777              1448.6348              1492.5621
 Red. masses --      2.6692                 1.3150                 1.1052
 Frc consts  --      3.2266                 1.6259                 1.4507
 IR Inten    --     57.7883                59.4442                 4.6360

                     67                     68                     69
                      A                      A                      A
 Frequencies --   1511.0263              1522.0524              1546.3008
 Red. masses --      1.0785                 1.1070                 8.0255
 Frc consts  --      1.4508                 1.5109                11.3060
 IR Inten    --      5.7091                 1.4927               243.7087

                     70                     71                     72
                      A                      A                      A
 Frequencies --   1618.5267              1688.4071              1696.2356
 Red. masses --      6.0875                 5.9047                 5.3246
 Frc consts  --      9.3957                 9.9174                 9.0264
 IR Inten    --      8.8873                 1.8120                37.9867

                     73                     74                     75
                      A                      A                      A
 Frequencies --   1827.8162              3012.7501              3029.4733
 Red. masses --      9.7693                 1.0693                 1.0688
 Frc consts  --     19.2300                 5.7184                 5.7794
 IR Inten    --    480.8107                30.0650                13.9222

                     76                     77                     78
                      A                      A                      A
 Frequencies --   3048.4970              3066.5338              3077.4754
 Red. masses --      1.0654                 1.0922                 1.0917
 Frc consts  --      5.8334                 6.0516                 6.0920
 IR Inten    --     23.7630                21.9748                23.9816

                     79                     80                     81
                      A                      A                      A
 Frequencies --   3090.3621              3106.1878              3153.0383
 Red. masses --      1.0881                 1.0999                 1.0893
 Frc consts  --      6.1225                 6.2525                 6.3808
 IR Inten    --     67.0476                38.3274                 0.2389

                     82                     83                     84
                      A                      A                      A
 Frequencies --   3158.9106              3208.6144              3272.6358
 Red. masses --      1.0884                 1.0881                 1.0935
 Frc consts  --      6.3992                 6.6000                 6.9005
 IR Inten    --     34.9560                 9.3811                 3.7977

                     85                     86                     87
                      A                      A                      A
 Frequencies --   3290.5168              3706.0007              3726.3232
 Red. masses --      1.1004                 1.0642                 1.0656
 Frc consts  --      7.0201                 8.6115                 8.7177
 IR Inten    --      0.1348               113.5952                12.6385

 - Thermochemistry -
 -------------------
 Temperature   298.150 Kelvin.  Pressure   1.00000 Atm.
 Atom     1 has atomic number  6 and mass  12.00000

 Molecular mass:   234.08921 amu.
 Principal axes and moments of inertia in atomic units:
                           1         2         3
     Eigenvalues --  1153.81794********************
           X            0.99999  -0.00429  -0.00333
           Y            0.00435   0.99986   0.01586
           Z            0.00326  -0.01588   0.99987
 This molecule is an asymmetric top.
 Rotational symmetry number  1.
 Warning -- assumption of classical behavior for rotation
           may cause significant error
 Rotational temperatures (Kelvin)      0.07507     0.00700     0.00660
 Rotational constants (GHZ):           1.56415     0.14576     0.13746
 Zero-point vibrational energy     659135.2 (Joules/Mol)
                                  157.53708 (Kcal/Mol)
 Warning -- explicit consideration of  23 degrees of freedom as
           vibrations may cause significant error
 Vibrational temperatures:     37.86    57.73    75.98   104.73   149.74
          (Kelvin)            193.02   217.53   252.98   278.17   316.44
                              395.29   411.72   476.94   518.56   543.21
                              562.91   620.84   675.80   701.42   774.39
                              786.06   803.62   857.53   910.89   983.33
                             1005.29  1071.97  1087.56  1131.79  1152.53
                             1158.97  1179.56  1211.22  1268.34  1280.19
                             1329.65  1362.88  1406.72  1418.50  1434.32
                             1450.01  1455.01  1521.09  1526.66  1581.29
                             1598.19  1641.08  1719.55  1728.94  1751.07
                             1776.58  1784.77  1795.64  1854.09  1897.45
                             1928.37  1933.62  1942.00  1983.58  2010.13
                             2014.37  2019.87  2053.18  2060.87  2084.26
                             2147.46  2174.03  2189.89  2224.78  2328.70
                             2429.24  2440.50  2629.82  4334.68  4358.74
                             4386.11  4412.06  4427.80  4446.34  4469.11
                             4536.52  4544.97  4616.48  4708.59  4734.32
                             5332.11  5361.35

 Zero-point correction=                           0.251051 (Hartree/Particle)
 Thermal correction to Energy=                    0.266435
 Thermal correction to Enthalpy=                  0.267379
 Thermal correction to Gibbs Free Energy=         0.206712
 Sum of electronic and zero-point Energies=           -804.481703
 Sum of electronic and thermal Energies=              -804.466319
 Sum of electronic and thermal Enthalpies=            -804.465375
 Sum of electronic and thermal Free Energies=         -804.526043

                     E (Thermal)             CV                S
                      KCal/Mol        Cal/Mol-Kelvin    Cal/Mol-Kelvin
 Total                  167.191             58.777            127.686
 Electronic               0.000              0.000              0.000
 Translational            0.889              2.981             42.253
 Rotational               0.889              2.981             33.594
 Vibrational            165.413             52.816             51.839
 Vibration     1          0.593              1.985              6.090
 Vibration     2          0.594              1.981              5.253
 Vibration     3          0.596              1.976              4.709
 Vibration     4          0.599              1.967              4.076
 Vibration     5          0.605              1.946              3.376
 Vibration     6          0.613              1.919              2.886
 Vibration     7          0.619              1.901              2.657
 Vibration     8          0.628              1.872              2.372
 Vibration     9          0.635              1.849              2.196
 Vibration    10          0.647              1.811              1.960
 Vibration    11          0.677              1.720              1.566
 Vibration    12          0.684              1.699              1.497
 Vibration    13          0.714              1.613              1.253
 Vibration    14          0.735              1.554              1.120
 Vibration    15          0.748              1.518              1.049
 Vibration    16          0.759              1.489              0.995
 Vibration    17          0.793              1.402              0.854
 Vibration    18          0.827              1.317              0.738
 Vibration    19          0.843              1.278              0.690
 Vibration    20          0.893              1.166              0.569
 Vibration    21          0.902              1.148              0.552
 Vibration    22          0.914              1.121              0.527
 Vibration    23          0.954              1.040              0.457

                           ! Non-Optimized Parameters !
 Normal termination of Gaussian 16 at Fri Dec 11 12:09:13 2020.

 ----------------------------------------------------------------------
 # B3LYP/6-311++G(d,p) empiricaldispersion=gd3bj scf=xqc pop=npa geom=c
 heck
 ----------------------------------------------------------------------

 ---------------------------------------
 CID_126510043_JID_7359_Energie_neutraal
 ---------------------------------------
 Structure from the checkpoint file:  "JID_7359.chk"
 Charge =  0 Multiplicity = 1

 SCF Done:  E(RB3LYP) =  -804.973665373     A.U. after   16 cycles
 Normal termination of Gaussian 16 at Fri Dec 11 12:14:33 2020.

 ----------------------------------------------------------------------
 # B3LYP/6-311++G(d,p) empiricaldispersion=gd3bj scf=xqc pop=npa geom=c
 heck
 ----------------------------------------------------------------------

 -------------------------------------
 CID_126510043_JID_7359_Energie_kation
 -------------------------------------
 Structure from the checkpoint file:  "JID_7359.chk"
 Charge =  1 Multiplicity = 2

 SCF Done:  E(UB3LYP) =  -804.695468524     A.U. after   23 cycles
 Normal termination of Gaussian 16 at Fri Dec 11 12:25:19 2020.
 Gaussian 16:  ES64L-G16RevA.03 25-Dec-2016

 ----------------------------------------------------------------------
 # B3LYP/6-311++G(d,p) empiricaldispersion=gd3bj scf=xqc pop=npa geom=c
 heck
 ----------------------------------------------------------------------

 ------------------------------------
 CID_126510043_JID_7359_Energie_anion
 ------------------------------------
 Structure from the checkpoint file:  "JID_7359.chk"
 Charge = -1 Multiplicity = 2

                         Standard orientation:
 ---------------------------------------------------------------------
 Center     Atomic      Atomic             Coordinates (Angstroms)
 Number     Number       Type             X           Y           Z
 ---------------------------------------------------------------------
      1          6           0        4.077673   -1.368734   -0.728258
      2          6           0        2.613976   -1.083200   -0.364388
      3          6           0        2.310116    0.398112   -0.249374
      4          6           0        3.301620    1.316731   -0.199721
      5          6           0        4.769366    0.988876   -0.237441
      6          6           0        5.030359   -0.487718    0.086544
      7          8           0        4.903741   -0.740225    1.486673
      8          6           0        0.926102    0.834399   -0.160898
      9          6           0       -0.156457    0.024465   -0.149837
     10          6           0       -1.515805    0.484647   -0.049480
     11          6           0       -2.117254    1.726054    0.057125
     12          6           0       -3.512685    1.496676    0.117738
     13          6           0       -3.689027    0.134981    0.045667
     14          8           0       -2.475978   -0.484360   -0.056228
     15          6           0       -4.869477   -0.719013    0.057387
     16          8           0       -4.873235   -1.930529   -0.015685
     17          8           0       -6.006191    0.024809    0.163335
     18          1           0        4.239066   -1.169439   -1.795801
     19          1           0        4.306345   -2.424566   -0.551882
     20          1           0        1.954250   -1.536396   -1.113424
     21          1           0        2.363387   -1.576549    0.585725
     22          1           0        3.032236    2.369380   -0.120409
     23          1           0        5.316759    1.615772    0.478070
     24          1           0        5.179310    1.232414   -1.230089
     25          1           0        6.068787   -0.739772   -0.149773
     26          1           0        4.060191   -0.352162    1.770395
     27          1           0        0.775651    1.911148   -0.087326
     28          1           0       -0.044997   -1.053613   -0.215350
     29          1           0       -1.609984    2.679540    0.087351
     30          1           0       -4.301868    2.229094    0.203840
     31          1           0       -6.736884   -0.620074    0.163524
 ---------------------------------------------------------------------

 SCF Done:  E(UB3LYP) =  -805.002170683     A.U. after   22 cycles

 The electronic state is 2-A.
 Alpha  occ. eigenvalues --  -19.04097 -19.03553 -19.02381 -18.96797 -10.15853
 Alpha  occ. eigenvalues --  -10.12308 -10.08714 -10.08085 -10.06964 -10.06707
 Alpha  occ. eigenvalues --  -10.06444 -10.05194 -10.04781 -10.03539 -10.03460
 Alpha  occ. eigenvalues --  -10.02829 -10.02528  -0.98035  -0.96725  -0.92692
 Alpha  occ. eigenvalues --   -0.88241  -0.72610  -0.67575  -0.66936  -0.64142
 Alpha  occ. eigenvalues --   -0.64080  -0.59537  -0.53842  -0.51889  -0.49796
 Alpha  occ. eigenvalues --   -0.47876  -0.44906  -0.42225  -0.42056  -0.39081
 Alpha  occ. eigenvalues --   -0.38314  -0.35747  -0.35377  -0.35180  -0.33975
 Alpha  occ. eigenvalues --   -0.33747  -0.33222  -0.30736  -0.30226  -0.30133
 Alpha  occ. eigenvalues --   -0.29346  -0.28395  -0.27033  -0.26888  -0.26564
 Alpha  occ. eigenvalues --   -0.25280  -0.24070  -0.23328  -0.22367  -0.20331
 Alpha  occ. eigenvalues --   -0.20026  -0.18981  -0.17530  -0.15665  -0.15052
 Alpha  occ. eigenvalues --   -0.13711  -0.07552   0.02570
 Alpha virt. eigenvalues --    0.06911   0.08318   0.08813   0.09167   0.09637
 Alpha virt. eigenvalues --    0.09774   0.10016   0.11117   0.11604   0.11942
 Alpha virt. eigenvalues --    0.12474   0.13456   0.13984   0.14917   0.15198

  Beta  occ. eigenvalues --  -19.04045 -19.03236 -19.02377 -18.96591 -10.15704
  Beta  occ. eigenvalues --  -10.12301 -10.08541 -10.07948 -10.06964 -10.06738
  Beta  occ. eigenvalues --  -10.06441 -10.05260 -10.04782 -10.03536 -10.03072
  Beta  occ. eigenvalues --  -10.02744 -10.02192  -0.97728  -0.96329  -0.92684
  Beta  occ. eigenvalues --   -0.87931  -0.72415  -0.67245  -0.66668  -0.63940
  Beta  occ. eigenvalues --   -0.63739  -0.59166  -0.53497  -0.51637  -0.49698
  Beta  occ. eigenvalues --   -0.47771  -0.44458  -0.42046  -0.41906  -0.38902
  Beta  occ. eigenvalues --   -0.38153  -0.35685  -0.35148  -0.35050  -0.33818
  Beta  occ. eigenvalues --   -0.33021  -0.32691  -0.30562  -0.30103  -0.29212
  Beta  occ. eigenvalues --   -0.29122  -0.28294  -0.26885  -0.26812  -0.26429
  Beta  occ. eigenvalues --   -0.25161  -0.23883  -0.23149  -0.22260  -0.20165
  Beta  occ. eigenvalues --   -0.19161  -0.17862  -0.17285  -0.14863  -0.14848
  Beta  occ. eigenvalues --   -0.12373  -0.05929
  Beta virt. eigenvalues --    0.06817   0.08071   0.08315   0.08786   0.09149
  Beta virt. eigenvalues --    0.09632   0.09976   0.10919   0.11296   0.11641
  Beta virt. eigenvalues --    0.12011   0.12511   0.13612   0.14037   0.14986

 Mulliken charges and spin densities:
               1          2
     1  C   -0.617545  -0.028896
     2  C   -0.983828  -0.001245
     3  C    0.986868  -0.031510
     4  C    0.015892   0.283538
     5  C   -0.930495  -0.032228
     6  C    0.124258   0.023324
     7  O   -0.236894  -0.003650
     8  C   -0.531427   0.246382
     9  C   -0.349064   0.041435
    10  C    0.564021   0.102450
    11  C   -0.692354   0.020584
    12  C    0.018483   0.022293
    13  C   -0.331108   0.097790
    14  O   -0.041206   0.065692
    15  C    0.502320   0.088273
    16  O   -0.388667   0.072715
    17  O   -0.214376   0.009939
    18  H    0.122853   0.005476
    19  H    0.158609   0.000244
    20  H    0.112572  -0.001941
    21  H    0.187542  -0.001065
    22  H    0.136558  -0.019719
    23  H    0.186310   0.000517
    24  H    0.080864   0.045683
    25  H    0.166007   0.015628
    26  H    0.224412   0.005022
    27  H   -0.016792  -0.021385
    28  H    0.199726  -0.006188
    29  H    0.119750   0.001210
    30  H    0.165894   0.000377
    31  H    0.260817  -0.000744
 Sum of Mulliken charges =  -1.00000   1.00000

 Dipole moment (field-independent basis, Debye):
    X=              3.9946    Y=              1.9836    Z=             -0.8102  Tot=              4.5330
 Quadrupole moment (field-independent basis, Debye-Ang):
   XX=           -173.6636   YY=           -115.4839   ZZ=           -111.1788
   XY=             -8.7415   XZ=             -7.8602   YZ=              2.5543

 Summary of Natural Population Analysis:

                                       Natural Population
                Natural  -----------------------------------------------
    Atom  No    Charge         Core      Valence    Rydberg      Total
 -----------------------------------------------------------------------
      C    1   -0.19726      0.99962     2.19019    0.00744     3.19726
      C    2   -0.20690      0.99960     2.19906    0.00825     3.20690
      C    3   -0.05352      0.99949     2.04478    0.00926     3.05352
      C    4   -0.02076      0.99950     2.01225    0.00901     3.02076
      C    5   -0.21940      0.99961     2.21249    0.00730     3.21940
      C    6    0.06821      0.99957     1.91872    0.01350     2.93179
      O    7   -0.37891      0.99990     3.37192    0.00708     4.37891
      C    8   -0.01725      0.99942     2.00918    0.00865     3.01725
      C    9   -0.11624      0.99943     2.10769    0.00913     3.11624
      C   10    0.18587      0.99949     1.80099    0.01365     2.81413
      C   11   -0.16463      0.99952     2.15706    0.00805     3.16463
      C   12   -0.12594      0.99954     2.11826    0.00814     3.12594
      C   13    0.09989      0.99942     1.88649    0.01419     2.90011
      O   14   -0.19705      0.99985     3.18831    0.00888     4.19705
      C   15    0.38692      0.99965     1.58953    0.02389     2.61308
      O   16   -0.30241      0.99987     3.29449    0.00805     4.30241
      O   17   -0.35357      0.99988     3.34790    0.00580     4.35357
      H   18    0.09533      0.00000     0.40350    0.00117     0.40467
      H   19    0.09690      0.00000     0.40188    0.00122     0.40310
      H   20    0.10450      0.00000     0.39396    0.00154     0.39550
      H   21    0.09887      0.00000     0.39930    0.00183     0.40113
      H   22    0.08574      0.00000     0.41257    0.00169     0.41426
      H   23    0.10099      0.00000     0.39765    0.00136     0.39901
      H   24    0.10194      0.00000     0.39662    0.00143     0.39806
      H   25    0.08079      0.00000     0.41750    0.00171     0.41921
      H   26    0.23131      0.00000     0.26612    0.00257     0.26869
      H   27    0.08379      0.00000     0.41389    0.00232     0.41621
      H   28    0.09627      0.00000     0.40177    0.00196     0.40373
      H   29    0.10125      0.00000     0.39785    0.00090     0.39875
      H   30    0.10422      0.00000     0.39487    0.00091     0.39578
      H   31    0.23106      0.00000     0.26565    0.00329     0.26894
 =======================================================================
   * Total *    0.00000     16.99337    44.81246    0.19417    62.00000

 Normal termination of Gaussian 16 at Fri Dec 11 12:36:10 2020.
