 Gaussian 16, Revision A.03,

 -----------------------------------------------------------
 # opt freq B3LYP/6-31G(d) empiricaldispersion=gd3bj scf=xqc
 -----------------------------------------------------------

 -------------------------------
 CID_103649500_JID_7008_neutraal
 -------------------------------
 Symbolic Z-matrix:
 Charge =  0 Multiplicity = 1

 SCF Done:  E(RB3LYP) =  -709.231716694     A.U. after   14 cycles
 SCF Done:  E(RB3LYP) =  -709.233932217     A.U. after   13 cycles
 SCF Done:  E(RB3LYP) =  -709.230691220     A.U. after   14 cycles
 SCF Done:  E(RB3LYP) =  -709.233873430     A.U. after   13 cycles
 SCF Done:  E(RB3LYP) =  -709.235215505     A.U. after   10 cycles
 SCF Done:  E(RB3LYP) =  -709.235595249     A.U. after   12 cycles
 SCF Done:  E(RB3LYP) =  -709.235780834     A.U. after   12 cycles
 SCF Done:  E(RB3LYP) =  -709.235833735     A.U. after   10 cycles
 SCF Done:  E(RB3LYP) =  -709.235848227     A.U. after    9 cycles
 SCF Done:  E(RB3LYP) =  -709.235853501     A.U. after    9 cycles
 SCF Done:  E(RB3LYP) =  -709.235905751     A.U. after    7 cycles
 SCF Done:  E(RB3LYP) =  -709.235905838     A.U. after    7 cycles
 SCF Done:  E(RB3LYP) =  -709.235905878     A.U. after    7 cycles
 SCF Done:  E(RB3LYP) =  -709.235905920     A.U. after    7 cycles
 SCF Done:  E(RB3LYP) =  -709.235905951     A.U. after    7 cycles
 Optimization completed.
    -- Stationary point found.
 Normal termination of Gaussian 16 at Sun Dec 13 16:18:32 2020.

 --------------------------------------------------------------------
 #N Geom=AllCheck Guess=TCheck SCRF=Check GenChk RB3LYP/6-31G(d) Freq
 --------------------------------------------------------------------

 Structure from the checkpoint file:  "JID_7008.chk"
 -------------------------------
 CID_103649500_JID_7008_neutraal
 -------------------------------
 Charge =  0 Multiplicity = 1

 SCF Done:  E(RB3LYP) =  -709.235905951     A.U. after    1 cycles

  Exact polarizability: 192.257  10.116 169.577  11.035  -4.115 120.622
 Approx polarizability: 250.867  23.409 272.754  20.044  -9.822 193.565

                      1                      2                      3
                      A                      A                      A
 Frequencies --     16.6946                28.9936                43.7210
 Red. masses --      4.3595                 3.6948                 3.8932
 Frc consts  --      0.0007                 0.0018                 0.0044
 IR Inten    --      0.3463                 1.0776                 1.4527

                      4                      5                      6
                      A                      A                      A
 Frequencies --     54.3898                56.5538                89.3727
 Red. masses --      2.2010                 1.3392                 4.4636
 Frc consts  --      0.0038                 0.0025                 0.0210
 IR Inten    --      0.0426                 0.2854                 0.2871

                      7                      8                      9
                      A                      A                      A
 Frequencies --    120.3774               145.1503               198.4354
 Red. masses --      3.5464                 3.8031                 2.8416
 Frc consts  --      0.0303                 0.0472                 0.0659
 IR Inten    --      0.1308                 0.4675                 2.0699

                     10                     11                     12
                      A                      A                      A
 Frequencies --    216.7353               223.1088               272.2396
 Red. masses --      1.1044                 3.2005                 2.7948
 Frc consts  --      0.0306                 0.0939                 0.1220
 IR Inten    --      0.3741                 3.6024                 2.6212

                     13                     14                     15
                      A                      A                      A
 Frequencies --    289.4623               310.5781               325.6462
 Red. masses --      3.0754                 3.3000                 2.3581
 Frc consts  --      0.1518                 0.1875                 0.1473
 IR Inten    --      0.9910                 2.0110                 1.0688

                     16                     17                     18
                      A                      A                      A
 Frequencies --    383.0220               407.5778               424.5518
 Red. masses --      2.8650                 2.4930                 2.6321
 Frc consts  --      0.2476                 0.2440                 0.2795
 IR Inten    --      0.1224                 1.9006                 0.2285

                     19                     20                     21
                      A                      A                      A
 Frequencies --    468.1797               490.0162               524.5360
 Red. masses --      2.9690                 2.5304                 3.8303
 Frc consts  --      0.3834                 0.3580                 0.6209
 IR Inten    --      5.4295                 1.8126                 1.1504

                     22                     23                     24
                      A                      A                      A
 Frequencies --    559.2369               604.9009               629.0674
 Red. masses --      4.3510                 3.5295                 4.8468
 Frc consts  --      0.8017                 0.7609                 1.1300
 IR Inten    --      0.5763                 0.9940                 1.2891

                     25                     26                     27
                      A                      A                      A
 Frequencies --    639.0337               673.9517               724.0872
 Red. masses --      2.8635                 5.6073                 3.0620
 Frc consts  --      0.6890                 1.5006                 0.9459
 IR Inten    --     11.8177                 2.0547                 9.0138

                     28                     29                     30
                      A                      A                      A
 Frequencies --    733.7505               759.5817               785.5541
 Red. masses --      3.3415                 1.4001                 1.3601
 Frc consts  --      1.0600                 0.4759                 0.4945
 IR Inten    --      5.4412                36.1802                 9.0190

                     31                     32                     33
                      A                      A                      A
 Frequencies --    787.6294               811.8427               855.8139
 Red. masses --      2.8702                 1.5103                 3.7289
 Frc consts  --      1.0491                 0.5865                 1.6091
 IR Inten    --     10.1805               105.2743                 0.0408

                     34                     35                     36
                      A                      A                      A
 Frequencies --    860.8860               873.7265               887.5556
 Red. masses --      1.2896                 1.5586                 1.8007
 Frc consts  --      0.5631                 0.7010                 0.8358
 IR Inten    --     11.3522                 2.4331                 0.7663

                     37                     38                     39
                      A                      A                      A
 Frequencies --    929.0159               944.1640               979.7590
 Red. masses --      2.5274                 1.3847                 1.2579
 Frc consts  --      1.2852                 0.7273                 0.7115
 IR Inten    --     15.3497                 0.8904                 0.0318

                     40                     41                     42
                      A                      A                      A
 Frequencies --    991.2884              1013.2453              1014.7521
 Red. masses --      1.9620                 1.8303                 2.1845
 Frc consts  --      1.1359                 1.1071                 1.3253
 IR Inten    --      1.7379                24.7017                27.2815

                     43                     44                     45
                      A                      A                      A
 Frequencies --   1029.3907              1044.9870              1050.5986
 Red. masses --      1.5900                 2.3138                 3.8528
 Frc consts  --      0.9927                 1.4887                 2.5056
 IR Inten    --      2.2686                18.8260                 4.1432

                     46                     47                     48
                      A                      A                      A
 Frequencies --   1079.1707              1082.9892              1086.4323
 Red. masses --      1.4465                 1.5823                 1.8923
 Frc consts  --      0.9926                 1.0934                 1.3160
 IR Inten    --      2.9986                 3.2545                 0.9334

                     49                     50                     51
                      A                      A                      A
 Frequencies --   1128.1752              1137.8729              1154.3718
 Red. masses --      2.0865                 2.5327                 1.9440
 Frc consts  --      1.5647                 1.9321                 1.5263
 IR Inten    --      1.6876                28.2522                 0.3654

                     52                     53                     54
                      A                      A                      A
 Frequencies --   1191.8890              1196.0119              1212.4584
 Red. masses --      1.8574                 1.0973                 1.7665
 Frc consts  --      1.5546                 0.9248                 1.5300
 IR Inten    --     12.9662                 0.3782                23.3811

                     55                     56                     57
                      A                      A                      A
 Frequencies --   1215.2188              1235.1707              1251.5591
 Red. masses --      2.0534                 1.2598                 1.6458
 Frc consts  --      1.7867                 1.1324                 1.5189
 IR Inten    --      1.6482                 3.7451                 3.5592

                     58                     59                     60
                      A                      A                      A
 Frequencies --   1261.5868              1315.0231              1335.2890
 Red. masses --      2.3460                 1.3989                 1.6129
 Frc consts  --      2.1999                 1.4253                 1.6943
 IR Inten    --      1.9811                 6.4088                 0.2866

                     61                     62                     63
                      A                      A                      A
 Frequencies --   1363.1273              1372.8950              1388.8070
 Red. masses --      2.8765                 2.3384                 1.5467
 Frc consts  --      3.1491                 2.5968                 1.7576
 IR Inten    --      2.0873                29.4703                 9.7800

                     64                     65                     66
                      A                      A                      A
 Frequencies --   1401.0299              1407.6016              1422.2668
 Red. masses --      1.8663                 1.7374                 1.3793
 Frc consts  --      2.1583                 2.0282                 1.6438
 IR Inten    --     10.9440                29.5881                12.5428

                     67                     68                     69
                      A                      A                      A
 Frequencies --   1430.0694              1452.3191              1453.1903
 Red. masses --      3.8219                 1.4031                 1.2295
 Frc consts  --      4.6051                 1.7436                 1.5298
 IR Inten    --     11.6553                 1.2143                 2.7415

                     70                     71                     72
                      A                      A                      A
 Frequencies --   1483.9275              1495.7263              1499.1950
 Red. masses --      3.2472                 1.9887                 1.1064
 Frc consts  --      4.2129                 2.6213                 1.4652
 IR Inten    --     26.3675                 2.9929                 0.8409

                     73                     74                     75
                      A                      A                      A
 Frequencies --   1507.7397              1516.3251              1523.3077
 Red. masses --      1.1298                 1.0430                 1.1051
 Frc consts  --      1.5132                 1.4130                 1.5108
 IR Inten    --     10.7796                 5.3566                 4.1534

                     76                     77                     78
                      A                      A                      A
 Frequencies --   1534.7672              1535.4379              1538.3687
 Red. masses --      1.1369                 1.1824                 1.2285
 Frc consts  --      1.5778                 1.6424                 1.7130
 IR Inten    --      1.6656                 8.8818                44.7060

                     79                     80                     81
                      A                      A                      A
 Frequencies --   1546.5251              1559.5254              1628.0520
 Red. masses --      1.9998                 1.0977                 4.9870
 Frc consts  --      2.8181                 1.5729                 7.7880
 IR Inten    --     17.8828                 1.2905                 3.2476

                     82                     83                     84
                      A                      A                      A
 Frequencies --   1641.8031              1669.2568              3011.9159
 Red. masses --      5.7892                 5.7113                 1.0596
 Frc consts  --      9.1941                 9.3762                 5.6636
 IR Inten    --      0.2106                 1.3362                35.4142

                     85                     86                     87
                      A                      A                      A
 Frequencies --   3037.6286              3038.6573              3043.8684
 Red. masses --      1.0511                 1.0541                 1.0940
 Frc consts  --      5.7143                 5.7347                 5.9720
 IR Inten    --     39.2822                34.8427                56.3761

                     88                     89                     90
                      A                      A                      A
 Frequencies --   3044.8472              3077.5984              3087.3280
 Red. masses --      1.0376                 1.0867                 1.0793
 Frc consts  --      5.6680                 6.0641                 6.0614
 IR Inten    --     39.2598                13.2678                54.5043

                     91                     92                     93
                      A                      A                      A
 Frequencies --   3095.6474              3098.2340              3121.3891
 Red. masses --      1.1014                 1.0957                 1.1009
 Frc consts  --      6.2188                 6.1969                 6.3197
 IR Inten    --     21.9277                17.8147                18.9793

                     94                     95                     96
                      A                      A                      A
 Frequencies --   3126.0187              3136.7160              3173.3629
 Red. masses --      1.1031                 1.1047                 1.0856
 Frc consts  --      6.3508                 6.4036                 6.4412
 IR Inten    --     11.4378                23.0583                 7.2485

                     97                     98                     99
                      A                      A                      A
 Frequencies --   3183.0910              3193.3294              3206.2013
 Red. masses --      1.0877                 1.0925                 1.0976
 Frc consts  --      6.4933                 6.5641                 6.6476
 IR Inten    --      6.1378                37.6226                30.9503

                    100                    101                    102
                      A                      A                      A
 Frequencies --   3250.3642              3266.9178              3494.1834
 Red. masses --      1.0958                 1.0975                 1.0735
 Frc consts  --      6.8212                 6.9012                 7.7226
 IR Inten    --      6.0419                 1.1152                 4.5752

 - Thermochemistry -
 -------------------
 Temperature   298.150 Kelvin.  Pressure   1.00000 Atm.
 Atom     1 has atomic number  6 and mass  12.00000

 Molecular mass:   229.15790 amu.
 Principal axes and moments of inertia in atomic units:
                           1         2         3
     Eigenvalues --  2036.547767714.452918611.17399
           X            0.99998  -0.00128  -0.00560
           Y            0.00130   0.99999   0.00409
           Z            0.00559  -0.00409   0.99998
 This molecule is an asymmetric top.
 Rotational symmetry number  1.
 Warning -- assumption of classical behavior for rotation
           may cause significant error
 Rotational temperatures (Kelvin)      0.04253     0.01123     0.01006
 Rotational constants (GHZ):           0.88618     0.23394     0.20958
 Zero-point vibrational energy     820727.6 (Joules/Mol)
                                  196.15861 (Kcal/Mol)
 Warning -- explicit consideration of  23 degrees of freedom as
           vibrations may cause significant error
 Vibrational temperatures:     24.02    41.72    62.90    78.25    81.37
          (Kelvin)            128.59   173.20   208.84   285.50   311.83
                              321.00   391.69   416.47   446.85   468.53
                              551.08   586.41   610.84   673.61   705.02
                              754.69   804.62   870.32   905.09   919.43
                              969.67  1041.80  1055.70  1092.87  1130.24
                             1133.22  1168.06  1231.33  1238.62  1257.10
                             1276.99  1336.65  1358.44  1409.65  1426.24
                             1457.83  1460.00  1481.06  1503.50  1511.58
                             1552.69  1558.18  1563.13  1623.19  1637.15
                             1660.88  1714.86  1720.79  1744.46  1748.43
                             1777.14  1800.71  1815.14  1892.03  1921.18
                             1961.24  1975.29  1998.18  2015.77  2025.22
                             2046.32  2057.55  2089.56  2090.82  2135.04
                             2152.02  2157.01  2169.30  2181.65  2191.70
                             2208.19  2209.15  2213.37  2225.10  2243.81
                             2342.40  2362.19  2401.69  4333.48  4370.47
                             4371.95  4379.45  4380.86  4427.98  4441.98
                             4453.95  4457.67  4490.98  4497.64  4513.03
                             4565.76  4579.76  4594.49  4613.01  4676.55
                             4700.37  5027.35

 Zero-point correction=                           0.312599 (Hartree/Particle)
 Thermal correction to Energy=                    0.328981
 Thermal correction to Enthalpy=                  0.329926
 Thermal correction to Gibbs Free Energy=         0.265895
 Sum of electronic and zero-point Energies=           -708.923307
 Sum of electronic and thermal Energies=              -708.906925
 Sum of electronic and thermal Enthalpies=            -708.905980
 Sum of electronic and thermal Free Energies=         -708.970011

                     E (Thermal)             CV                S
                      KCal/Mol        Cal/Mol-Kelvin    Cal/Mol-Kelvin
 Total                  206.439             61.822            134.764
 Electronic               0.000              0.000              0.000
 Translational            0.889              2.981             42.190
 Rotational               0.889              2.981             33.270
 Vibrational            204.661             55.861             59.304
 Vibration     1          0.593              1.986              6.993
 Vibration     2          0.593              1.984              5.897
 Vibration     3          0.595              1.980              5.083
 Vibration     4          0.596              1.976              4.651
 Vibration     5          0.596              1.975              4.574
 Vibration     6          0.602              1.957              3.674
 Vibration     7          0.609              1.932              3.094
 Vibration     8          0.617              1.908              2.735
 Vibration     9          0.637              1.842              2.148
 Vibration    10          0.646              1.816              1.986
 Vibration    11          0.649              1.806              1.934
 Vibration    12          0.675              1.724              1.582
 Vibration    13          0.686              1.693              1.477
 Vibration    14          0.699              1.654              1.359
 Vibration    15          0.710              1.624              1.282
 Vibration    16          0.752              1.506              1.027
 Vibration    17          0.772              1.454              0.935
 Vibration    18          0.787              1.417              0.877
 Vibration    19          0.825              1.321              0.743
 Vibration    20          0.846              1.272              0.684
 Vibration    21          0.879              1.196              0.600
 Vibration    22          0.915              1.120              0.525
 Vibration    23          0.963              1.021              0.441

                           ! Non-Optimized Parameters !
 Normal termination of Gaussian 16 at Sun Dec 13 16:31:37 2020.

 ----------------------------------------------------------------------
 # B3LYP/6-311++G(d,p) empiricaldispersion=gd3bj scf=xqc pop=npa geom=c
 heck
 ----------------------------------------------------------------------

 ---------------------------------------
 CID_103649500_JID_7008_Energie_neutraal
 ---------------------------------------
 Structure from the checkpoint file:  "JID_7008.chk"
 Charge =  0 Multiplicity = 1

 SCF Done:  E(RB3LYP) =  -709.423427075     A.U. after   15 cycles
 Normal termination of Gaussian 16 at Sun Dec 13 16:38:24 2020.

 ----------------------------------------------------------------------
 # B3LYP/6-311++G(d,p) empiricaldispersion=gd3bj scf=xqc pop=npa geom=c
 heck
 ----------------------------------------------------------------------

 -------------------------------------
 CID_103649500_JID_7008_Energie_kation
 -------------------------------------
 Structure from the checkpoint file:  "JID_7008.chk"
 Charge =  1 Multiplicity = 2

 SCF Done:  E(UB3LYP) =  -709.139603221     A.U. after   28 cycles
 Normal termination of Gaussian 16 at Sun Dec 13 16:56:20 2020.
 Gaussian 16:  ES64L-G16RevA.03 25-Dec-2016

 ----------------------------------------------------------------------
 # B3LYP/6-311++G(d,p) empiricaldispersion=gd3bj scf=xqc pop=npa geom=c
 heck
 ----------------------------------------------------------------------

 ------------------------------------
 CID_103649500_JID_7008_Energie_anion
 ------------------------------------
 Structure from the checkpoint file:  "JID_7008.chk"
 Charge = -1 Multiplicity = 2

                         Standard orientation:
 ---------------------------------------------------------------------
 Center     Atomic      Atomic             Coordinates (Angstroms)
 Number     Number       Type             X           Y           Z
 ---------------------------------------------------------------------
      1          6           0       -1.549260   -1.264417    1.798615
      2          6           0       -2.487472   -0.795724    0.709317
      3          6           0       -3.513735   -1.641553    0.267071
      4          6           0       -4.395464   -1.255704   -0.740335
      5          6           0       -4.260928   -0.000214   -1.333233
      6          6           0       -3.246557    0.851160   -0.903308
      7          6           0       -2.363618    0.474543    0.114907
      8          6           0       -1.265356    1.438438    0.505015
      9          7           0       -0.267586    1.522965   -0.569242
     10          6           0        0.885864    2.347582   -0.250524
     11          6           0        1.830882    1.806583    0.844880
     12          7           0        2.453608    0.553587    0.454246
     13          6           0        3.681100    0.365852   -0.102527
     14          6           0        3.784123   -0.971894   -0.446622
     15          6           0        2.535080   -1.512532   -0.059834
     16          7           0        1.731562   -0.591965    0.477478
     17          6           0        4.953246   -1.676928   -1.066355
     18          1           0       -1.686103   -0.691028    2.724885
     19          1           0       -1.735993   -2.316209    2.037378
     20          1           0       -0.499106   -1.160968    1.504134
     21          1           0       -3.616569   -2.623189    0.723584
     22          1           0       -5.181553   -1.933698   -1.061979
     23          1           0       -4.938647    0.311817   -2.123089
     24          1           0       -3.119366    1.826540   -1.365616
     25          1           0       -1.685696    2.444865    0.637631
     26          1           0       -0.837336    1.146425    1.475202
     27          1           0        0.046348    0.578343   -0.788605
     28          1           0        1.473921    2.489911   -1.166190
     29          1           0        0.529517    3.337588    0.063836
     30          1           0        2.632172    2.525322    1.043847
     31          1           0        1.293607    1.630769    1.780179
     32          1           0        4.384077    1.181165   -0.202775
     33          1           0        2.192007   -2.535941   -0.144421
     34          1           0        5.368632   -2.440398   -0.397253
     35          1           0        4.671783   -2.181469   -1.998292
     36          1           0        5.757777   -0.973110   -1.302239
 ---------------------------------------------------------------------

 SCF Done:  E(UB3LYP) =  -709.410439881     A.U. after   33 cycles
 SCF Done:  E(UB3LYP) =  -709.410439881     a.u. after    1 cycles

 The electronic state is 2-A.
 Alpha  occ. eigenvalues --  -14.29178 -14.23322 -14.20275 -10.11541 -10.10404
 Alpha  occ. eigenvalues --  -10.10250 -10.10245 -10.09695 -10.09193 -10.09031
 Alpha  occ. eigenvalues --  -10.08995 -10.08806 -10.08629 -10.08509 -10.07789
 Alpha  occ. eigenvalues --  -10.07742 -10.07310  -0.95441  -0.81848  -0.77270
 Alpha  occ. eigenvalues --   -0.74793  -0.70297  -0.68861  -0.67517  -0.64269
 Alpha  occ. eigenvalues --   -0.60887  -0.59698  -0.57589  -0.52993  -0.51197
 Alpha  occ. eigenvalues --   -0.49173  -0.48884  -0.47002  -0.42654  -0.42225
 Alpha  occ. eigenvalues --   -0.40163  -0.39115  -0.36837  -0.35940  -0.35842
 Alpha  occ. eigenvalues --   -0.34930  -0.33441  -0.33001  -0.32559  -0.32487
 Alpha  occ. eigenvalues --   -0.31716  -0.31086  -0.30680  -0.29674  -0.28796
 Alpha  occ. eigenvalues --   -0.28576  -0.27644  -0.27325  -0.26252  -0.25358
 Alpha  occ. eigenvalues --   -0.24480  -0.20219  -0.16820  -0.16445  -0.15819
 Alpha  occ. eigenvalues --   -0.14540  -0.13003   0.04185
 Alpha virt. eigenvalues --    0.05574   0.06184   0.06730   0.06866   0.07354
 Alpha virt. eigenvalues --    0.07644   0.08361   0.08611   0.08925   0.09422
 Alpha virt. eigenvalues --    0.09644   0.10318   0.10641   0.10852   0.11358

  Beta  occ. eigenvalues --  -14.29178 -14.23311 -14.20275 -10.11509 -10.10367
  Beta  occ. eigenvalues --  -10.10233 -10.10229 -10.09696 -10.09183 -10.09025
  Beta  occ. eigenvalues --  -10.08987 -10.08804 -10.08621 -10.08502 -10.07789
  Beta  occ. eigenvalues --  -10.07712 -10.07301  -0.95427  -0.81837  -0.77258
  Beta  occ. eigenvalues --   -0.74770  -0.70267  -0.68848  -0.67499  -0.64230
  Beta  occ. eigenvalues --   -0.60854  -0.59668  -0.57556  -0.52949  -0.51176
  Beta  occ. eigenvalues --   -0.49148  -0.48861  -0.46937  -0.42623  -0.42170
  Beta  occ. eigenvalues --   -0.40144  -0.39099  -0.36798  -0.35913  -0.35810
  Beta  occ. eigenvalues --   -0.34907  -0.33402  -0.32980  -0.32538  -0.32460
  Beta  occ. eigenvalues --   -0.31685  -0.31052  -0.30653  -0.29659  -0.28759
  Beta  occ. eigenvalues --   -0.28538  -0.27613  -0.27303  -0.26228  -0.25344
  Beta  occ. eigenvalues --   -0.24463  -0.20197  -0.16791  -0.16409  -0.15802
  Beta  occ. eigenvalues --   -0.14503  -0.12988
  Beta virt. eigenvalues --    0.05685   0.06553   0.06649   0.06970   0.07202
  Beta virt. eigenvalues --    0.07533   0.08205   0.08618   0.09145   0.09302
  Beta virt. eigenvalues --    0.09583   0.09729   0.10821   0.10941   0.11124

 Mulliken charges and spin densities:
               1          2
     1  C    0.069189  -1.001395
     2  C    0.010420   0.736269
     3  C   -0.461616  -0.101530
     4  C    0.001841  -0.194956
     5  C   -0.008964  -0.398824
     6  C   -0.380586   0.044188
     7  C    0.572111   0.321487
     8  C   -0.535721  -0.241989
     9  N    0.045018   0.032590
    10  C    0.366593  -0.765402
    11  C    0.433611  -0.711158
    12  N    0.446337  -0.050983
    13  C   -0.904598   0.350461
    14  C   -0.272984   0.922308
    15  C   -0.542760   0.233504
    16  N   -0.473384   0.193129
    17  C    2.747489  -3.444320
    18  H   -0.044271   0.219628
    19  H    0.058832   0.079231
    20  H    0.515495  -0.318611
    21  H   -0.043448   0.164884
    22  H   -0.055468   0.206100
    23  H    0.020910   0.128233
    24  H    0.035137   0.127997
    25  H   -0.216474   0.371615
    26  H    0.207236  -0.169723
    27  H    0.227402  -0.019701
    28  H   -0.030030   0.226328
    29  H   -0.259690   0.413393
    30  H   -0.856758   1.052854
    31  H   -0.145281   0.334765
    32  H   -1.026475   1.192679
    33  H   -0.034609   0.151029
    34  H   -0.079938   0.229887
    35  H   -0.056673   0.200768
    36  H   -0.327894   0.485265
 Sum of Mulliken charges =  -1.00000   1.00000

 Dipole moment (field-independent basis, Debye):
    X=             -7.8974    Y=             -4.4065    Z=             -0.1194  Tot=              9.0444
 Quadrupole moment (field-independent basis, Debye-Ang):
   XX=           -208.9295   YY=           -154.6238   ZZ=           -135.3625
   XY=            -11.7130   XZ=              2.4740   YZ=             -5.2565

 Summary of Natural Population Analysis:

                                       Natural Population
                Natural  -----------------------------------------------
    Atom  No    Charge         Core      Valence    Rydberg      Total
 -----------------------------------------------------------------------
      C    1   -0.30434      0.99963     2.29953    0.00518     3.30434
      C    2   -0.02822      0.99951     2.01464    0.01406     3.02822
      C    3   -0.10310      0.99952     2.09449    0.00909     3.10310
      C    4   -0.10314      0.99956     2.09363    0.00995     3.10314
      C    5   -0.10981      0.99956     2.10019    0.01006     3.10981
      C    6   -0.10492      0.99956     2.09141    0.01395     3.10492
      C    7    0.03121      0.99946     1.96391    0.00541     2.96879
      C    8   -0.10850      0.99961     2.09354    0.01535     3.10850
      N    9   -0.33878      0.99975     2.82805    0.01099     3.83878
      C   10   -0.08974      0.99962     2.07820    0.01192     3.08974
      C   11   -0.09185      0.99960     2.08033    0.01192     3.09185
      N   12   -0.10788      0.99966     2.59348    0.01474     3.60788
      C   13   -0.00101      0.99949     1.98954    0.01198     3.00101
      C   14   -0.07467      0.99953     2.06532    0.00982     3.07467
      C   15   -0.01162      0.99956     1.99871    0.01335     3.01162
      N   16   -0.16724      0.99973     2.65488    0.01264     3.66724
      C   17   -0.29227      0.99964     2.28715    0.00548     3.29227
      H   18    0.10259      0.00000     0.39632    0.00109     0.39741
      H   19    0.09852      0.00000     0.40056    0.00091     0.40148
      H   20    0.12304      0.00000     0.37527    0.00169     0.37696
      H   21    0.09743      0.00000     0.40162    0.00095     0.40257
      H   22    0.09828      0.00000     0.40089    0.00083     0.40172
      H   23    0.09857      0.00000     0.40066    0.00077     0.40143
      H   24    0.10370      0.00000     0.39521    0.00109     0.39630
      H   25    0.09510      0.00000     0.40346    0.00144     0.40490
      H   26    0.08772      0.00000     0.41041    0.00187     0.41228
      H   27    0.18063      0.00000     0.31534    0.00404     0.31937
      H   28    0.09660      0.00000     0.40208    0.00132     0.40340
      H   29    0.09632      0.00000     0.40197    0.00170     0.40368
      H   30    0.10893      0.00000     0.38707    0.00400     0.39107
      H   31    0.10185      0.00000     0.39636    0.00179     0.39815
      H   32    0.10960      0.00000     0.38730    0.00310     0.39040
      H   33    0.09586      0.00000     0.40336    0.00078     0.40414
      H   34    0.10238      0.00000     0.39658    0.00105     0.39762
      H   35    0.10216      0.00000     0.39686    0.00098     0.39784
      H   36    0.10675      0.00000     0.39203    0.00121     0.39325
 =======================================================================
   * Total *    0.00013     16.99300    44.79035    0.21652    61.99987

 Normal termination of Gaussian 16 at Sun Dec 13 17:17:54 2020.
