 Gaussian 16, Revision A.03,

 -----------------------------------------------------------
 # opt freq B3LYP/6-31G(d) empiricaldispersion=gd3bj scf=xqc
 -----------------------------------------------------------

 -----------------------------
 CID_59861726_JID_731_neutraal
 -----------------------------
 Symbolic Z-matrix:
 Charge =  0 Multiplicity = 1

 SCF Done:  E(RB3LYP) =  -497.212823167     A.U. after   14 cycles
 SCF Done:  E(RB3LYP) =  -497.215989844     A.U. after   12 cycles
 SCF Done:  E(RB3LYP) =  -497.216064479     A.U. after   12 cycles
 SCF Done:  E(RB3LYP) =  -497.216378663     A.U. after   11 cycles
 SCF Done:  E(RB3LYP) =  -497.216395495     A.U. after   11 cycles
 SCF Done:  E(RB3LYP) =  -497.216397933     A.U. after   10 cycles
 SCF Done:  E(RB3LYP) =  -497.216399866     A.U. after   10 cycles
 SCF Done:  E(RB3LYP) =  -497.216403928     A.U. after    9 cycles
 Optimization completed.
    -- Stationary point found.
 Normal termination of Gaussian 16 at Sun Dec 13 12:14:55 2020.

 --------------------------------------------------------------------
 #N Geom=AllCheck Guess=TCheck SCRF=Check GenChk RB3LYP/6-31G(d) Freq
 --------------------------------------------------------------------

 Structure from the checkpoint file:  "JID_731.chk"
 -----------------------------
 CID_59861726_JID_731_neutraal
 -----------------------------
 Charge =  0 Multiplicity = 1

 SCF Done:  E(RB3LYP) =  -497.216403928     A.U. after    1 cycles

  Exact polarizability: 117.088  11.277  86.541   0.000   0.000  42.971
 Approx polarizability: 175.741  44.988 151.226   0.001   0.003  65.059

 ******    2 imaginary frequencies (negative Signs) ******

                      1                      2                      3
                      A                      A                      A
 Frequencies --    -76.2137               -26.1729                15.9985
 Red. masses --      2.3199                 4.4734                 4.9058
 Frc consts  --      0.0079                 0.0018                 0.0007
 IR Inten    --      2.9758                10.9904                 3.9968

                      4                      5                      6
                      A                      A                      A
 Frequencies --    140.0070               175.6600               209.7760
 Red. masses --      4.3513                 6.2138                 1.0310
 Frc consts  --      0.0503                 0.1130                 0.0267
 IR Inten    --      2.2612                 0.4193                 0.5445

                      7                      8                      9
                      A                      A                      A
 Frequencies --    249.9732               276.9705               280.2444
 Red. masses --      8.7803                 1.1149                 3.8184
 Frc consts  --      0.3233                 0.0504                 0.1767
 IR Inten    --      6.6479                 0.0358                 4.4084

                     10                     11                     12
                      A                      A                      A
 Frequencies --    356.3571               359.0754               399.0024
 Red. masses --      3.2893                 3.2447                 9.8069
 Frc consts  --      0.2461                 0.2465                 0.9199
 IR Inten    --      0.2699                 7.1297                 2.2071

                     13                     14                     15
                      A                      A                      A
 Frequencies --    542.5161               560.3277               592.3692
 Red. masses --      4.2137                 2.1782                 4.0687
 Frc consts  --      0.7307                 0.4029                 0.8412
 IR Inten    --     39.2635                 0.0965                 5.6632

                     16                     17                     18
                      A                      A                      A
 Frequencies --    612.7406               675.0303               749.5275
 Red. masses --      2.5676                 4.4641                 4.9684
 Frc consts  --      0.5680                 1.1985                 1.6445
 IR Inten    --      3.9874                29.0473                 2.1035

                     19                     20                     21
                      A                      A                      A
 Frequencies --    821.0080               965.2294               999.6488
 Red. masses --      4.2714                 1.4006                 2.0410
 Frc consts  --      1.6964                 0.7688                 1.2017
 IR Inten    --      0.3184                 4.1346                 1.8785

                     22                     23                     24
                      A                      A                      A
 Frequencies --   1021.6089              1023.1666              1061.7890
 Red. masses --      1.6406                 1.7709                 1.8558
 Frc consts  --      1.0088                 1.0923                 1.2327
 IR Inten    --      1.3516                25.4895                 8.9391

                     25                     26                     27
                      A                      A                      A
 Frequencies --   1072.8732              1124.0666              1243.9159
 Red. masses --      1.8186                 2.4473                 3.3791
 Frc consts  --      1.2334                 1.8219                 3.0806
 IR Inten    --      2.6402                24.6974               245.7838

                     28                     29                     30
                      A                      A                      A
 Frequencies --   1275.6271              1378.0517              1417.1341
 Red. masses --      3.4987                 1.5997                 1.3286
 Frc consts  --      3.3543                 1.7899                 1.5721
 IR Inten    --     72.7845                14.4961                37.7405

                     31                     32                     33
                      A                      A                      A
 Frequencies --   1420.9333              1455.3775              1475.9811
 Red. masses --      1.2691                 1.1991                 1.0651
 Frc consts  --      1.5097                 1.4964                 1.3670
 IR Inten    --     37.1892                 6.1073                18.9369

                     34                     35                     36
                      A                      A                      A
 Frequencies --   1497.8816              1505.3193              1511.9441
 Red. masses --      1.0485                 1.0767                 1.0477
 Frc consts  --      1.3861                 1.4375                 1.4111
 IR Inten    --      8.7906                 7.7094                12.4042

                     37                     38                     39
                      A                      A                      A
 Frequencies --   1648.9515              1760.1407              1781.8845
 Red. masses --      7.3171                10.1658                10.0619
 Frc consts  --     11.7221                18.5561                18.8230
 IR Inten    --      4.0190               116.7583               133.7583

                     40                     41                     42
                      A                      A                      A
 Frequencies --   1794.5526              3047.9626              3062.7627
 Red. masses --     10.4347                 1.0715                 1.0483
 Frc consts  --     19.7989                 5.8647                 5.7935
 IR Inten    --    178.8652                43.8828                19.2398

                     43                     44                     45
                      A                      A                      A
 Frequencies --   3075.5184              3123.8179              3140.8213
 Red. masses --      1.0348                 1.1007                 1.0986
 Frc consts  --      5.7669                 6.3285                 6.3853
 IR Inten    --      0.9234                 5.6649                 2.7971

                     46                     47                     48
                      A                      A                      A
 Frequencies --   3168.2931              3174.2838              3191.7566
 Red. masses --      1.1016                 1.1065                 1.0871
 Frc consts  --      6.5153                 6.5691                 6.5248
 IR Inten    --      7.7004                14.3412                 4.9870

 - Thermochemistry -
 -------------------
 Temperature   298.150 Kelvin.  Pressure   1.00000 Atm.
 Atom     1 has atomic number  6 and mass  12.00000

 Molecular mass:   140.04734 amu.
 Principal axes and moments of inertia in atomic units:
                           1         2         3
     Eigenvalues --   863.380132099.745242940.86873
           X            0.99936  -0.03568  -0.00000
           Y            0.03568   0.99936  -0.00000
           Z            0.00000   0.00000   1.00000
 This molecule is an asymmetric top.
 Rotational symmetry number  1.
 Warning -- assumption of classical behavior for rotation
           may cause significant error
 Rotational temperatures (Kelvin)      0.10032     0.04125     0.02945
 Rotational constants (GHZ):           2.09032     0.85950     0.61368
    2 imaginary frequencies ignored.
 Zero-point vibrational energy     361498.8 (Joules/Mol)
                                   86.40028 (Kcal/Mol)
 Warning -- explicit consideration of  14 degrees of freedom as
           vibrations may cause significant error
 Vibrational temperatures:     23.02   201.44   252.74   301.82   359.66
          (Kelvin)            398.50   403.21   512.72   516.63   574.08
                              780.56   806.19   852.29   881.60   971.22
                             1078.40  1181.25  1388.75  1438.27  1469.87
                             1472.11  1527.68  1543.63  1617.28  1789.72
                             1835.34  1982.71  2038.94  2044.41  2093.96
                             2123.61  2155.12  2165.82  2175.35  2372.47
                             2532.45  2563.73  2581.96  4385.34  4406.63
                             4424.99  4494.48  4518.94  4558.47  4567.09
                             4592.23

 Zero-point correction=                           0.137688 (Hartree/Particle)
 Thermal correction to Energy=                    0.146925
 Thermal correction to Enthalpy=                  0.147869
 Thermal correction to Gibbs Free Energy=         0.101948
 Sum of electronic and zero-point Energies=           -497.078716
 Sum of electronic and thermal Energies=              -497.069479
 Sum of electronic and thermal Enthalpies=            -497.068535
 Sum of electronic and thermal Free Energies=         -497.114456

                     E (Thermal)             CV                S
                      KCal/Mol        Cal/Mol-Kelvin    Cal/Mol-Kelvin
 Total                   92.197             33.445             96.647
 Electronic               0.000              0.000              0.000
 Translational            0.889              2.981             40.722
 Rotational               0.889              2.981             30.056
 Vibrational             90.419             27.483             25.869
 Vibration     1          0.593              1.986              7.078
 Vibration     2          0.615              1.913              2.804
 Vibration     3          0.628              1.872              2.374
 Vibration     4          0.642              1.826              2.046
 Vibration     5          0.663              1.763              1.731
 Vibration     6          0.678              1.716              1.552
 Vibration     7          0.680              1.710              1.532
 Vibration     8          0.732              1.562              1.138
 Vibration     9          0.734              1.557              1.126
 Vibration    10          0.765              1.472              0.966
 Vibration    11          0.898              1.156              0.560
 Vibration    12          0.916              1.117              0.523
 Vibration    13          0.950              1.048              0.463
 Vibration    14          0.972              1.005              0.428

 Optimization completed.
    -- Stationary point found.
 Normal termination of Gaussian 16 at Sun Dec 13 12:17:22 2020.

 ----------------------------------------------------------------------
 # B3LYP/6-311++G(d,p) empiricaldispersion=gd3bj scf=xqc pop=npa geom=c
 heck
 ----------------------------------------------------------------------

 -------------------------------------
 CID_59861726_JID_731_Energie_neutraal
 -------------------------------------
 Structure from the checkpoint file:  "JID_731.chk"
 Charge =  0 Multiplicity = 1

 SCF Done:  E(RB3LYP) =  -497.364209168     A.U. after   14 cycles
 Normal termination of Gaussian 16 at Sun Dec 13 12:18:02 2020.

 ----------------------------------------------------------------------
 # B3LYP/6-311++G(d,p) empiricaldispersion=gd3bj scf=xqc pop=npa geom=c
 heck
 ----------------------------------------------------------------------

 -----------------------------------
 CID_59861726_JID_731_Energie_kation
 -----------------------------------
 Structure from the checkpoint file:  "JID_731.chk"
 Charge =  1 Multiplicity = 2

 SCF Done:  E(UB3LYP) =  -497.011977365     A.U. after   28 cycles
 Normal termination of Gaussian 16 at Sun Dec 13 12:20:02 2020.
 Gaussian 16:  ES64L-G16RevA.03 25-Dec-2016

 ----------------------------------------------------------------------
 # B3LYP/6-311++G(d,p) empiricaldispersion=gd3bj scf=xqc pop=npa geom=c
 heck
 ----------------------------------------------------------------------

 ----------------------------------
 CID_59861726_JID_731_Energie_anion
 ----------------------------------
 Structure from the checkpoint file:  "JID_731.chk"
 Charge = -1 Multiplicity = 2

                         Standard orientation:
 ---------------------------------------------------------------------
 Center     Atomic      Atomic             Coordinates (Angstroms)
 Number     Number       Type             X           Y           Z
 ---------------------------------------------------------------------
      1          6           0       -2.743292    1.107177   -0.000060
      2          6           0       -2.213898   -0.311585    0.000009
      3          8           0       -2.991556   -1.254118   -0.000005
      4          6           0       -0.757354   -0.670436    0.000057
      5          6           0        0.399903    0.034955    0.000067
      6          6           0        0.461965    1.517630    0.000006
      7          8           0        1.488176    2.173077    0.000037
      8          6           0        1.675929   -0.817227    0.000145
      9          8           0        1.572001   -2.031134   -0.000063
     10          6           0        3.033794   -0.159596   -0.000081
     11          1           0       -3.833700    1.060710   -0.000096
     12          1           0       -2.406695    1.657492   -0.885596
     13          1           0       -2.406756    1.657555    0.885461
     14          1           0       -0.635997   -1.751729    0.000101
     15          1           0       -0.508506    2.037269   -0.000075
     16          1           0        3.155035    0.488632   -0.872940
     17          1           0        3.155320    0.488604    0.872758
     18          1           0        3.790045   -0.946642   -0.000218
 ---------------------------------------------------------------------

 SCF Done:  E(UB3LYP) =  -497.434455047     A.U. after   20 cycles

 The electronic state is 2-A.
 Alpha  occ. eigenvalues --  -18.95510 -18.95258 -18.94297 -10.10874 -10.09569
 Alpha  occ. eigenvalues --  -10.09483 -10.04337 -10.03289 -10.02211 -10.01230
 Alpha  occ. eigenvalues --   -0.89466  -0.88852  -0.88411  -0.64901  -0.60946
 Alpha  occ. eigenvalues --   -0.59567  -0.50657  -0.45658  -0.39456  -0.36360
 Alpha  occ. eigenvalues --   -0.33318  -0.32067  -0.31129  -0.30716  -0.30281
 Alpha  occ. eigenvalues --   -0.28331  -0.27721  -0.26225  -0.24769  -0.23994
 Alpha  occ. eigenvalues --   -0.22938  -0.22081  -0.21968  -0.13388  -0.11614
 Alpha  occ. eigenvalues --   -0.10171  -0.09780  -0.00095
 Alpha virt. eigenvalues --    0.09423   0.10113   0.10869   0.12185   0.12811
 Alpha virt. eigenvalues --    0.13459   0.13543   0.14166   0.15062   0.15850
 Alpha virt. eigenvalues --    0.16394   0.16953   0.19259   0.19808   0.20024

  Beta  occ. eigenvalues --  -18.95366 -18.94935 -18.93713 -10.10791 -10.09488
  Beta  occ. eigenvalues --  -10.09382 -10.04351 -10.03298 -10.02110 -10.00746
  Beta  occ. eigenvalues --   -0.89167  -0.88315  -0.87417  -0.64167  -0.60764
  Beta  occ. eigenvalues --   -0.59413  -0.49508  -0.45264  -0.39010  -0.36103
  Beta  occ. eigenvalues --   -0.33089  -0.31802  -0.30630  -0.30539  -0.29924
  Beta  occ. eigenvalues --   -0.28092  -0.27437  -0.25980  -0.23727  -0.23440
  Beta  occ. eigenvalues --   -0.21666  -0.21630  -0.20265  -0.11350  -0.10833
  Beta  occ. eigenvalues --   -0.09713  -0.09429
  Beta virt. eigenvalues --    0.06969   0.09424   0.10105   0.11949   0.12181
  Beta virt. eigenvalues --    0.13424   0.13455   0.13555   0.14246   0.15845
  Beta virt. eigenvalues --    0.16393   0.16951   0.17001   0.19388   0.19913

 Mulliken charges and spin densities:
               1          2
     1  C   -0.448585   0.004136
     2  C   -0.122788   0.100095
     3  O   -0.350202   0.196123
     4  C   -0.017266   0.366524
     5  C    0.748003   0.075437
     6  C   -0.807656   0.065607
     7  O   -0.348336   0.109557
     8  C    0.045155   0.053104
     9  O   -0.329187   0.055816
    10  C   -0.521014  -0.008090
    11  H    0.150416  -0.001361
    12  H    0.126345   0.004104
    13  H    0.126344   0.004104
    14  H    0.236220  -0.026531
    15  H    0.071587  -0.004687
    16  H    0.160893   0.003458
    17  H    0.160869   0.003454
    18  H    0.119202  -0.000850
 Sum of Mulliken charges =  -1.00000   1.00000

 Dipole moment (field-independent basis, Debye):
    X=              0.7031    Y=              2.9504    Z=              0.0000  Tot=              3.0330
 Quadrupole moment (field-independent basis, Debye-Ang):
   XX=            -89.8113   YY=            -86.3628   ZZ=            -62.1694
   XY=            -10.5350   XZ=              0.0001   YZ=             -0.0007

 Summary of Natural Population Analysis:

                                       Natural Population
                Natural  -----------------------------------------------
    Atom  No    Charge         Core      Valence    Rydberg      Total
 -----------------------------------------------------------------------
      C    1   -0.33157      0.99963     2.32741    0.00452     3.33157
      C    2    0.25352      0.99968     1.72717    0.01963     2.74648
      O    3   -0.22403      0.99988     3.21634    0.00782     4.22403
      C    4    0.03297      0.99947     1.95695    0.01061     2.96703
      C    5   -0.11086      0.99942     2.10179    0.00964     3.11086
      C    6    0.20706      0.99968     1.77312    0.02013     2.79294
      O    7   -0.27279      0.99988     3.26482    0.00809     4.27279
      C    8    0.29277      0.99967     1.68697    0.02059     2.70723
      O    9   -0.29324      0.99988     3.28567    0.00770     4.29324
      C   10   -0.33062      0.99963     2.32628    0.00471     3.33062
      H   11    0.10112      0.00000     0.39705    0.00183     0.39888
      H   12    0.10256      0.00000     0.39625    0.00119     0.39744
      H   13    0.10256      0.00000     0.39625    0.00119     0.39744
      H   14    0.10580      0.00000     0.39254    0.00167     0.39420
      H   15    0.04472      0.00000     0.45266    0.00261     0.45528
      H   16    0.11272      0.00000     0.38625    0.00104     0.38728
      H   17    0.11271      0.00000     0.38625    0.00104     0.38729
      H   18    0.09462      0.00000     0.40359    0.00179     0.40538
 =======================================================================
   * Total *    0.00000      9.99683    26.87737    0.12580    37.00000

 Normal termination of Gaussian 16 at Sun Dec 13 12:21:29 2020.
