 Gaussian 16, Revision A.03,

 -----------------------------------------------------------
 # opt freq B3LYP/6-31G(d) empiricaldispersion=gd3bj scf=xqc
 -----------------------------------------------------------

 ------------------------------
 CID_18375488_JID_2664_neutraal
 ------------------------------
 Symbolic Z-matrix:
 Charge =  0 Multiplicity = 1

 SCF Done:  E(RB3LYP) =  -568.344102386     A.U. after   15 cycles
 SCF Done:  E(RB3LYP) =  -568.346860814     A.U. after   12 cycles
 SCF Done:  E(RB3LYP) =  -568.347102028     A.U. after   11 cycles
 SCF Done:  E(RB3LYP) =  -568.347283265     A.U. after   11 cycles
 SCF Done:  E(RB3LYP) =  -568.347349446     A.U. after   12 cycles
 SCF Done:  E(RB3LYP) =  -568.347441559     A.U. after   11 cycles
 SCF Done:  E(RB3LYP) =  -568.347489690     A.U. after   11 cycles
 SCF Done:  E(RB3LYP) =  -568.347507442     A.U. after   11 cycles
 SCF Done:  E(RB3LYP) =  -568.347508396     A.U. after    8 cycles
 SCF Done:  E(RB3LYP) =  -568.347508380     A.U. after    8 cycles
 SCF Done:  E(RB3LYP) =  -568.347508507     A.U. after    8 cycles
 Optimization completed.
    -- Stationary point found.
 Normal termination of Gaussian 16 at Wed Dec  9 17:59:49 2020.

 --------------------------------------------------------------------
 #N Geom=AllCheck Guess=TCheck SCRF=Check GenChk RB3LYP/6-31G(d) Freq
 --------------------------------------------------------------------

 Structure from the checkpoint file:  "JID_2664.chk"
 ------------------------------
 CID_18375488_JID_2664_neutraal
 ------------------------------
 Charge =  0 Multiplicity = 1

 SCF Done:  E(RB3LYP) =  -568.347508507     A.U. after    1 cycles

  Exact polarizability: 149.236   5.724 100.682   1.139  -0.231  41.437
 Approx polarizability: 236.808   5.206 190.612   0.369  -1.937  64.740

                      1                      2                      3
                      A                      A                      A
 Frequencies --    117.9819               164.8416               198.1107
 Red. masses --      7.2624                 3.6409                 5.6616
 Frc consts  --      0.0596                 0.0583                 0.1309
 IR Inten    --      0.1897                 0.6981                 4.3114

                      4                      5                      6
                      A                      A                      A
 Frequencies --    303.6667               313.6875               356.2585
 Red. masses --      4.2447                 6.0598                 6.9834
 Frc consts  --      0.2306                 0.3513                 0.5222
 IR Inten    --      0.4043                 0.6551                 4.7178

                      7                      8                      9
                      A                      A                      A
 Frequencies --    413.3243               422.2828               431.2788
 Red. masses --      2.8823                 1.3303                 5.1413
 Frc consts  --      0.2901                 0.1398                 0.5634
 IR Inten    --      1.5858               118.6804                10.5540

                     10                     11                     12
                      A                      A                      A
 Frequencies --    433.7079               639.3492               662.5000
 Red. masses --      8.6849                 2.8060                 4.4189
 Frc consts  --      0.9625                 0.6758                 1.1427
 IR Inten    --      0.9634                 0.8275                 0.0830

                     13                     14                     15
                      A                      A                      A
 Frequencies --    695.1141               722.7022               756.0326
 Red. masses --      6.0318                 7.8142                 6.2810
 Frc consts  --      1.7171                 2.4047                 2.1152
 IR Inten    --      1.0813                 5.0181                 0.1235

                     16                     17                     18
                      A                      A                      A
 Frequencies --    782.8077               807.1694               825.3336
 Red. masses --      6.7283                 5.7342                 6.9112
 Frc consts  --      2.4292                 2.2011                 2.7737
 IR Inten    --      9.9536                 4.0388                12.7444

                     19                     20                     21
                      A                      A                      A
 Frequencies --    845.3364               849.8729               867.2444
 Red. masses --      1.3702                 1.3968                 1.4278
 Frc consts  --      0.5769                 0.5944                 0.6327
 IR Inten    --      6.4552                20.7673                19.8124

                     22                     23                     24
                      A                      A                      A
 Frequencies --    883.2326               948.0103               996.2989
 Red. masses --      3.0722                 6.4212                 5.9534
 Frc consts  --      1.4121                 3.4001                 3.4817
 IR Inten    --      5.9002                 2.0329                14.8350

                     25                     26                     27
                      A                      A                      A
 Frequencies --   1051.0947              1107.5487              1118.4964
 Red. masses --      1.7162                 2.2114                 2.4969
 Frc consts  --      1.1171                 1.5983                 1.8404
 IR Inten    --      2.7657                21.1231                42.1419

                     28                     29                     30
                      A                      A                      A
 Frequencies --   1170.1171              1206.0715              1223.6379
 Red. masses --      1.7542                 1.2751                 3.0740
 Frc consts  --      1.4151                 1.0928                 2.7118
 IR Inten    --     24.3726                 6.4579                21.3345

                     31                     32                     33
                      A                      A                      A
 Frequencies --   1254.0900              1315.7961              1339.1977
 Red. masses --      1.3912                 2.5361                 1.5590
 Frc consts  --      1.2891                 2.5870                 1.6473
 IR Inten    --      7.8689                29.5943                 0.3023

                     34                     35                     36
                      A                      A                      A
 Frequencies --   1355.6522              1391.2560              1432.7501
 Red. masses --      5.8490                 3.4172                 2.8678
 Frc consts  --      6.3332                 3.8970                 3.4685
 IR Inten    --      7.3222                73.1476                 1.2675

                     37                     38                     39
                      A                      A                      A
 Frequencies --   1496.5042              1529.2404              1533.2441
 Red. masses --      3.3841                 1.7230                 2.1968
 Frc consts  --      4.4653                 2.3741                 3.0428
 IR Inten    --     90.0431                17.7333                 6.5326

                     40                     41                     42
                      A                      A                      A
 Frequencies --   1560.1596              1640.8219              1689.4226
 Red. masses --      4.3331                 8.4251                 7.3189
 Frc consts  --      6.2142                13.3644                12.3076
 IR Inten    --     15.3656                23.9970                10.5166

                     43                     44                     45
                      A                      A                      A
 Frequencies --   2995.0260              3090.0137              3202.2093
 Red. masses --      1.0690                 1.0950                 1.0918
 Frc consts  --      5.6496                 6.1603                 6.5963
 IR Inten    --     75.7540                21.6962                 8.0156

                     46                     47                     48
                      A                      A                      A
 Frequencies --   3244.9449              3261.0554              3660.2068
 Red. masses --      1.0926                 1.0969                 1.0807
 Frc consts  --      6.7782                 6.8727                 8.5304
 IR Inten    --      0.5203                 2.7260                57.6399

 - Thermochemistry -
 -------------------
 Temperature   298.150 Kelvin.  Pressure   1.00000 Atm.
 Atom     1 has atomic number  6 and mass  12.00000

 Molecular mass:   162.04293 amu.
 Principal axes and moments of inertia in atomic units:
                           1         2         3
     Eigenvalues --   621.854392745.074903345.10713
           X            0.99998   0.00639   0.00234
           Y           -0.00640   0.99998   0.00199
           Z           -0.00233  -0.00200   1.00000
 This molecule is an asymmetric top.
 Rotational symmetry number  1.
 Warning -- assumption of classical behavior for rotation
           may cause significant error
 Rotational temperatures (Kelvin)      0.13928     0.03155     0.02589
 Rotational constants (GHZ):           2.90219     0.65745     0.53952
 Zero-point vibrational energy     348739.6 (Joules/Mol)
                                   83.35076 (Kcal/Mol)
 Warning -- explicit consideration of  10 degrees of freedom as
           vibrations may cause significant error
 Vibrational temperatures:    169.75   237.17   285.04   436.91   451.33
          (Kelvin)            512.58   594.68   607.57   620.51   624.01
                              919.88   953.19  1000.11  1039.81  1087.76
                             1126.29  1161.34  1187.47  1216.25  1222.78
                             1247.77  1270.77  1363.98  1433.45  1512.29
                             1593.52  1609.27  1683.54  1735.27  1760.54
                             1804.36  1893.14  1926.81  1950.48  2001.71
                             2061.41  2153.14  2200.24  2206.00  2244.72
                             2360.78  2430.70  4309.17  4445.84  4607.26
                             4668.75  4691.93  5266.22

 Zero-point correction=                           0.132828 (Hartree/Particle)
 Thermal correction to Energy=                    0.141209
 Thermal correction to Enthalpy=                  0.142153
 Thermal correction to Gibbs Free Energy=         0.099392
 Sum of electronic and zero-point Energies=           -568.214681
 Sum of electronic and thermal Energies=              -568.206300
 Sum of electronic and thermal Enthalpies=            -568.205356
 Sum of electronic and thermal Free Energies=         -568.248117

                     E (Thermal)             CV                S
                      KCal/Mol        Cal/Mol-Kelvin    Cal/Mol-Kelvin
 Total                   88.610             33.937             89.999
 Electronic               0.000              0.000              0.000
 Translational            0.889              2.981             41.157
 Rotational               0.889              2.981             30.125
 Vibrational             86.832             27.975             18.718
 Vibration     1          0.608              1.934              3.133
 Vibration     2          0.623              1.886              2.493
 Vibration     3          0.637              1.843              2.151
 Vibration     4          0.695              1.667              1.397
 Vibration     5          0.702              1.648              1.343
 Vibration     6          0.732              1.562              1.138
 Vibration     7          0.777              1.441              0.915
 Vibration     8          0.785              1.422              0.884
 Vibration     9          0.792              1.402              0.854
 Vibration    10          0.794              1.397              0.847

 Optimization completed.
    -- Stationary point found.
 Normal termination of Gaussian 16 at Wed Dec  9 18:04:09 2020.

 ----------------------------------------------------------------------
 # B3LYP/6-311++G(d,p) empiricaldispersion=gd3bj scf=xqc pop=npa geom=c
 heck
 ----------------------------------------------------------------------

 --------------------------------------
 CID_18375488_JID_2664_Energie_neutraal
 --------------------------------------
 Structure from the checkpoint file:  "JID_2664.chk"
 Charge =  0 Multiplicity = 1

 SCF Done:  E(RB3LYP) =  -568.499202985     A.U. after   15 cycles
 Normal termination of Gaussian 16 at Wed Dec  9 18:06:26 2020.

 ----------------------------------------------------------------------
 # B3LYP/6-311++G(d,p) empiricaldispersion=gd3bj scf=xqc pop=npa geom=c
 heck
 ----------------------------------------------------------------------

 ------------------------------------
 CID_18375488_JID_2664_Energie_kation
 ------------------------------------
 Structure from the checkpoint file:  "JID_2664.chk"
 Charge =  1 Multiplicity = 2

 SCF Done:  E(UB3LYP) =  -568.207408849     A.U. after   25 cycles
 Normal termination of Gaussian 16 at Wed Dec  9 18:13:14 2020.
 Gaussian 16:  ES64L-G16RevA.03 25-Dec-2016

 ----------------------------------------------------------------------
 # B3LYP/6-311++G(d,p) empiricaldispersion=gd3bj scf=xqc pop=npa geom=c
 heck
 ----------------------------------------------------------------------

 -----------------------------------
 CID_18375488_JID_2664_Energie_anion
 -----------------------------------
 Structure from the checkpoint file:  "JID_2664.chk"
 Charge = -1 Multiplicity = 2

                         Standard orientation:
 ---------------------------------------------------------------------
 Center     Atomic      Atomic             Coordinates (Angstroms)
 Number     Number       Type             X           Y           Z
 ---------------------------------------------------------------------
      1          6           0        2.555676    1.107935    0.111542
      2          6           0        1.108042    0.714335    0.028323
      3          6           0       -0.062440    1.453088    0.009185
      4          6           0       -1.244286    0.704387    0.000294
      5          6           0       -1.260348   -0.716150    0.014536
      6          6           0       -0.062163   -1.450106    0.026958
      7          6           0        1.093528   -0.690239    0.036113
      8          8           0        2.358617   -1.218381    0.087244
      9          8           0        3.254863   -0.092045   -0.258427
     10          7           0       -2.567712   -1.183047   -0.006254
     11          6           0       -3.310864   -0.104565   -0.031131
     12          7           0       -2.583444    1.062963   -0.029972
     13          1           0        2.843132    1.428433    1.126002
     14          1           0        2.865016    1.870718   -0.611443
     15          1           0       -0.058682    2.538911    0.001437
     16          1           0       -0.053303   -2.533098    0.027033
     17          1           0       -4.393118   -0.093478   -0.049781
     18          1           0       -2.955669    2.000410   -0.045123
 ---------------------------------------------------------------------

 SCF Done:  E(UB3LYP) =  -568.494508459     A.U. after   33 cycles
 SCF Done:  E(UB3LYP) =  -568.494508459     a.u. after    1 cycles

 The electronic state is 2-A.
 Alpha  occ. eigenvalues --  -19.09578 -19.08732 -14.25275 -14.19021 -10.13788
 Alpha  occ. eigenvalues --  -10.12683 -10.12543 -10.10300 -10.09150 -10.07926
 Alpha  occ. eigenvalues --  -10.07727 -10.07082  -1.04071  -0.90707  -0.84731
 Alpha  occ. eigenvalues --   -0.77065  -0.75063  -0.66149  -0.64194  -0.57447
 Alpha  occ. eigenvalues --   -0.52235  -0.51115  -0.49643  -0.44353  -0.42829
 Alpha  occ. eigenvalues --   -0.40938  -0.39123  -0.35090  -0.34310  -0.33396
 Alpha  occ. eigenvalues --   -0.32966  -0.32306  -0.30240  -0.28963  -0.28422
 Alpha  occ. eigenvalues --   -0.26193  -0.23272  -0.20338  -0.17527  -0.17347
 Alpha  occ. eigenvalues --   -0.12806  -0.10701   0.04390
 Alpha virt. eigenvalues --    0.06732   0.07233   0.07962   0.08848   0.10156
 Alpha virt. eigenvalues --    0.10518   0.11114   0.12384   0.13596   0.13879
 Alpha virt. eigenvalues --    0.14516   0.15258   0.15374   0.16843   0.17632

  Beta  occ. eigenvalues --  -19.09531 -19.08686 -14.25196 -14.19030 -10.13780
  Beta  occ. eigenvalues --  -10.12696 -10.12472 -10.10316 -10.09123 -10.07876
  Beta  occ. eigenvalues --  -10.07635 -10.07029  -1.03956  -0.90623  -0.84653
  Beta  occ. eigenvalues --   -0.76979  -0.74963  -0.66054  -0.64067  -0.57344
  Beta  occ. eigenvalues --   -0.52108  -0.50975  -0.49558  -0.44239  -0.42728
  Beta  occ. eigenvalues --   -0.40853  -0.39055  -0.34987  -0.34225  -0.33268
  Beta  occ. eigenvalues --   -0.32876  -0.32245  -0.30190  -0.28921  -0.28313
  Beta  occ. eigenvalues --   -0.26100  -0.23098  -0.20185  -0.17422  -0.17329
  Beta  occ. eigenvalues --   -0.12490  -0.10515
  Beta virt. eigenvalues --    0.07347   0.07548   0.08137   0.08416   0.09852
  Beta virt. eigenvalues --    0.10392   0.10737   0.11948   0.12718   0.13690
  Beta virt. eigenvalues --    0.13967   0.14612   0.15350   0.15506   0.16864

 Mulliken charges and spin densities:
               1          2
     1  C    1.358366  -1.583905
     2  C    0.536805  -0.267695
     3  C   -0.585305  -0.509099
     4  C    1.395414  -1.131602
     5  C    0.150196  -0.082359
     6  C   -0.825984   0.454384
     7  C    0.095437  -0.089171
     8  O   -0.140225   0.014074
     9  O   -0.073265   0.024063
    10  N   -0.169363  -0.009982
    11  C   -0.041552   0.414551
    12  N   -0.182703  -0.006721
    13  H   -0.023499   0.210974
    14  H    0.145892   0.034563
    15  H   -1.224772   1.404488
    16  H    0.131182   0.033954
    17  H   -0.842657   1.042096
    18  H   -0.703967   1.047385
 Sum of Mulliken charges =  -1.00000   1.00000

 Dipole moment (field-independent basis, Debye):
    X=              6.1829    Y=             -4.6865    Z=             -1.0915  Tot=              7.8348
 Quadrupole moment (field-independent basis, Debye-Ang):
   XX=           -131.8201   YY=           -113.7423   ZZ=            -86.8321
   XY=             16.8083   XZ=              1.5446   YZ=             -2.8420

 Summary of Natural Population Analysis:

                                       Natural Population
                Natural  -----------------------------------------------
    Atom  No    Charge         Core      Valence    Rydberg      Total
 -----------------------------------------------------------------------
      C    1   -0.01899      0.99958     2.00642    0.01299     3.01899
      C    2   -0.05289      0.99949     2.04372    0.00968     3.05289
      C    3   -0.08971      0.99948     2.08049    0.00974     3.08971
      C    4    0.05446      0.99947     1.93341    0.01266     2.94554
      C    5    0.06499      0.99947     1.92107    0.01447     2.93501
      C    6   -0.11881      0.99946     2.11145    0.00790     3.11881
      C    7    0.13841      0.99936     1.84763    0.01460     2.86159
      O    8   -0.13437      0.99987     3.12671    0.00779     4.13437
      O    9   -0.15154      0.99991     3.14513    0.00650     4.15154
      N   10   -0.26609      0.99970     2.75664    0.00975     3.76609
      C   11    0.13569      0.99965     1.84647    0.01819     2.86431
      N   12   -0.27320      0.99966     2.76203    0.01151     3.77320
      H   13    0.08667      0.00000     0.41138    0.00195     0.41333
      H   14    0.09731      0.00000     0.40128    0.00142     0.40269
      H   15    0.11050      0.00000     0.38644    0.00305     0.38950
      H   16    0.10788      0.00000     0.39093    0.00119     0.39212
      H   17    0.09333      0.00000     0.40497    0.00169     0.40667
      H   18    0.21637      0.00000     0.23604    0.04759     0.28363
 =======================================================================
   * Total *    0.00000     11.99511    29.81223    0.19266    42.00000

 Normal termination of Gaussian 16 at Wed Dec  9 18:19:39 2020.
