 Gaussian 16, Revision A.03,

 -----------------------------------------------------------
 # opt freq B3LYP/6-31G(d) empiricaldispersion=gd3bj scf=xqc
 -----------------------------------------------------------

 -------------------------------
 CID_113814769_JID_8776_neutraal
 -------------------------------
 Symbolic Z-matrix:
 Charge =  0 Multiplicity = 1

 SCF Done:  E(RB3LYP) =  -1199.12964929     A.U. after   15 cycles
 SCF Done:  E(RB3LYP) =  -1199.14088104     A.U. after   12 cycles
 SCF Done:  E(RB3LYP) =  -1199.13972400     A.U. after   12 cycles
 SCF Done:  E(RB3LYP) =  -1199.14223792     A.U. after   12 cycles
 SCF Done:  E(RB3LYP) =  -1199.13942193     A.U. after   14 cycles
 SCF Done:  E(RB3LYP) =  -1199.14249202     A.U. after   12 cycles
 SCF Done:  E(RB3LYP) =  -1199.14294113     A.U. after   11 cycles
 SCF Done:  E(RB3LYP) =  -1199.14298288     A.U. after   10 cycles
 SCF Done:  E(RB3LYP) =  -1199.14298342     A.U. after   10 cycles
 SCF Done:  E(RB3LYP) =  -1199.14299831     A.U. after    9 cycles
 SCF Done:  E(RB3LYP) =  -1199.14299859     A.U. after    7 cycles
 SCF Done:  E(RB3LYP) =  -1199.14299866     A.U. after    6 cycles
 Optimization completed.
    -- Stationary point found.
 Normal termination of Gaussian 16 at Mon Dec 14 16:40:29 2020.

 --------------------------------------------------------------------
 #N Geom=AllCheck Guess=TCheck SCRF=Check GenChk RB3LYP/6-31G(d) Freq
 --------------------------------------------------------------------

 Structure from the checkpoint file:  "JID_8776.chk"
 -------------------------------
 CID_113814769_JID_8776_neutraal
 -------------------------------
 Charge =  0 Multiplicity = 1

 SCF Done:  E(RB3LYP) =  -1199.14299866     A.U. after    1 cycles

  Exact polarizability: 276.405  17.744 165.746  -0.118   0.097  87.692
 Approx polarizability: 387.520  33.828 296.734  -0.267   0.250 130.869

                      1                      2                      3
                      A                      A                      A
 Frequencies --      8.6279                39.9575                76.9911
 Red. masses --      6.0167                 5.4349                 3.8356
 Frc consts  --      0.0003                 0.0051                 0.0134
 IR Inten    --      0.5153                 0.2257                 2.5186

                      4                      5                      6
                      A                      A                      A
 Frequencies --     77.3841                81.2845               128.9459
 Red. masses --      5.7734                 3.8342                 6.0508
 Frc consts  --      0.0204                 0.0149                 0.0593
 IR Inten    --      0.4841                 3.8891                 1.7155

                      7                      8                      9
                      A                      A                      A
 Frequencies --    176.4322               191.3274               214.4846
 Red. masses --      4.9228                 4.3134                 1.3956
 Frc consts  --      0.0903                 0.0930                 0.0378
 IR Inten    --      2.5549                 1.4945                 0.0003

                     10                     11                     12
                      A                      A                      A
 Frequencies --    229.8753               230.4518               246.7238
 Red. masses --      2.5418                 2.7157                 1.6215
 Frc consts  --      0.0791                 0.0850                 0.0582
 IR Inten    --      1.8118                 1.1228                 0.2047

                     13                     14                     15
                      A                      A                      A
 Frequencies --    248.5463               271.9011               277.8242
 Red. masses --      2.3182                 1.6855                 1.6119
 Frc consts  --      0.0844                 0.0734                 0.0733
 IR Inten    --      0.1662                 0.1987                 1.3257

                     16                     17                     18
                      A                      A                      A
 Frequencies --    337.1699               364.3208               367.2621
 Red. masses --      3.4092                 5.1232                 1.4916
 Frc consts  --      0.2284                 0.4006                 0.1185
 IR Inten    --      6.4382                 0.9769                65.4425

                     19                     20                     21
                      A                      A                      A
 Frequencies --    389.6048               402.9805               425.8840
 Red. masses --      4.9619                 7.8035                 5.1152
 Frc consts  --      0.4438                 0.7466                 0.5466
 IR Inten    --      5.4453                 1.4046                35.1632

                     22                     23                     24
                      A                      A                      A
 Frequencies --    440.8805               453.5255               485.8448
 Red. masses --      3.2178                 1.9205                 5.1523
 Frc consts  --      0.3685                 0.2327                 0.7166
 IR Inten    --      1.5502                 7.0799                 1.7910

                     25                     26                     27
                      A                      A                      A
 Frequencies --    515.5777               571.1741               580.5923
 Red. masses --      7.5252                 5.9541                 6.7791
 Frc consts  --      1.1786                 1.1445                 1.3464
 IR Inten    --      5.8734                 4.7275                13.6573

                     28                     29                     30
                      A                      A                      A
 Frequencies --    601.9252               614.6698               632.4450
 Red. masses --      6.2706                 3.7902                 4.2932
 Frc consts  --      1.3386                 0.8437                 1.0118
 IR Inten    --     23.8828                 0.0205                20.9148

                     31                     32                     33
                      A                      A                      A
 Frequencies --    635.1521               704.1883               720.5050
 Red. masses --      1.3538                 7.2304                 5.8737
 Frc consts  --      0.3218                 2.1125                 1.7965
 IR Inten    --     31.8522                 5.2213                 4.4592

                     34                     35                     36
                      A                      A                      A
 Frequencies --    723.9700               764.5528               799.2103
 Red. masses --      5.1441                 3.6746                 6.5027
 Frc consts  --      1.5885                 1.2656                 2.4472
 IR Inten    --      0.1423                42.3489                 0.8499

                     37                     38                     39
                      A                      A                      A
 Frequencies --    820.5290               862.2894               865.2189
 Red. masses --      1.4440                 1.4551                 4.9389
 Frc consts  --      0.5728                 0.6375                 2.1784
 IR Inten    --     25.4445                28.9445                23.9777

                     40                     41                     42
                      A                      A                      A
 Frequencies --    890.7627               939.5470               953.1768
 Red. masses --      3.2133                 1.2972                 1.5409
 Frc consts  --      1.5022                 0.6747                 0.8248
 IR Inten    --     23.4811                 0.1498                 0.2622

                     43                     44                     45
                      A                      A                      A
 Frequencies --    959.2660              1004.3989              1041.1309
 Red. masses --      7.4076                 2.2518                 1.3106
 Frc consts  --      4.0161                 1.3384                 0.8370
 IR Inten    --     20.7863                63.7892                 0.2629

                     46                     47                     48
                      A                      A                      A
 Frequencies --   1061.9951              1095.1509              1143.5779
 Red. masses --      2.2640                 8.5250                 3.8071
 Frc consts  --      1.5044                 6.0241                 2.9335
 IR Inten    --      0.5618               117.8712                36.0380

                     49                     50                     51
                      A                      A                      A
 Frequencies --   1167.5798              1186.0009              1199.3191
 Red. masses --      1.3508                 1.2691                 1.8385
 Frc consts  --      1.0849                 1.0518                 1.5581
 IR Inten    --      2.1555                 0.7908                 6.4844

                     52                     53                     54
                      A                      A                      A
 Frequencies --   1211.3000              1219.4376              1235.5051
 Red. masses --      3.3887                 1.3905                 2.6767
 Frc consts  --      2.9295                 1.2182                 2.4074
 IR Inten    --     11.0656                10.9862               436.6218

                     55                     56                     57
                      A                      A                      A
 Frequencies --   1256.6067              1303.7262              1307.0500
 Red. masses --      1.8451                 3.5360                 5.2492
 Frc consts  --      1.7166                 3.5411                 5.2836
 IR Inten    --    123.9282               636.8540               326.2895

                     58                     59                     60
                      A                      A                      A
 Frequencies --   1324.7249              1378.2442              1416.4201
 Red. masses --      2.1088                 7.0660                 1.2391
 Frc consts  --      2.1804                 7.9082                 1.4647
 IR Inten    --     24.8839                37.8213                10.2792

                     61                     62                     63
                      A                      A                      A
 Frequencies --   1439.3392              1450.3158              1469.7385
 Red. masses --      1.2472                 1.5180                 3.2466
 Frc consts  --      1.5223                 1.8812                 4.1319
 IR Inten    --     43.3802                26.8002                 8.3462

                     64                     65                     66
                      A                      A                      A
 Frequencies --   1492.6163              1508.3278              1519.2865
 Red. masses --      1.5811                 1.0440                 1.9713
 Frc consts  --      2.0755                 1.3993                 2.6810
 IR Inten    --     84.8818                 0.0036                48.4971

                     67                     68                     69
                      A                      A                      A
 Frequencies --   1521.9717              1527.0348              1530.2058
 Red. masses --      1.0476                 1.0491                 1.0645
 Frc consts  --      1.4297                 1.4414                 1.4685
 IR Inten    --      6.0130                 0.2725                 2.7368

                     70                     71                     72
                      A                      A                      A
 Frequencies --   1536.4502              1539.8199              1547.1292
 Red. masses --      1.1473                 1.5688                 1.0941
 Frc consts  --      1.5957                 2.1916                 1.5429
 IR Inten    --     91.4830               126.3780                10.3891

                     73                     74                     75
                      A                      A                      A
 Frequencies --   1614.0707              1642.0820              1679.2640
 Red. masses --      6.3249                 7.6609                 7.6735
 Frc consts  --      9.7085                12.1708                12.7491
 IR Inten    --    132.4094                36.0767               280.8386

                     76                     77                     78
                      A                      A                      A
 Frequencies --   1755.5531              3028.8590              3066.3523
 Red. masses --      6.6405                 1.0347                 1.0367
 Frc consts  --     12.0581                 5.5927                 5.7431
 IR Inten    --    393.5524                66.5301                30.5336

                     79                     80                     81
                      A                      A                      A
 Frequencies --   3068.3009              3089.0311              3132.1459
 Red. masses --      1.0374                 1.1069                 1.1032
 Frc consts  --      5.7543                 6.2229                 6.3765
 IR Inten    --     16.5130                41.0070                11.9446

                     82                     83                     84
                      A                      A                      A
 Frequencies --   3134.5200              3163.5218              3178.7827
 Red. masses --      1.1021                 1.0999                 1.1004
 Frc consts  --      6.3800                 6.4856                 6.5514
 IR Inten    --     22.7703                26.5794                 0.1901

                     85                     86                     87
                      A                      A                      A
 Frequencies --   3179.9020              3216.3279              3227.8639
 Red. masses --      1.1005                 1.0895                 1.0918
 Frc consts  --      6.5564                 6.6402                 6.7020
 IR Inten    --      4.0776                 4.7469                 2.0395

                     88                     89                     90
                      A                      A                      A
 Frequencies --   3239.1157              3571.6174              3628.2233
 Red. masses --      1.0921                 1.0758                 1.0644
 Frc consts  --      6.7512                 8.0853                 8.2552
 IR Inten    --      9.3218                47.6783                77.3948

 - Thermochemistry -
 -------------------
 Temperature   298.150 Kelvin.  Pressure   1.00000 Atm.
 Atom     1 has atomic number  6 and mass  12.00000

 Molecular mass:   266.07251 amu.
 Principal axes and moments of inertia in atomic units:
                           1         2         3
     Eigenvalues --  1756.58132********************
           X            1.00000   0.00091   0.00001
           Y           -0.00091   1.00000   0.00008
           Z           -0.00001  -0.00008   1.00000
 This molecule is an asymmetric top.
 Rotational symmetry number  1.
 Warning -- assumption of classical behavior for rotation
           may cause significant error
 Rotational temperatures (Kelvin)      0.04931     0.00824     0.00730
 Rotational constants (GHZ):           1.02742     0.17172     0.15220
 Zero-point vibrational energy     661372.9 (Joules/Mol)
                                  158.07193 (Kcal/Mol)
 Warning -- explicit consideration of  29 degrees of freedom as
           vibrations may cause significant error
 Vibrational temperatures:     12.41    57.49   110.77   111.34   116.95
          (Kelvin)            185.52   253.85   275.28   308.60   330.74
                              331.57   354.98   357.60   391.20   399.73
                              485.11   524.18   528.41   560.55   579.80
                              612.75   634.33   652.52   699.02   741.80
                              821.79   835.34   866.04   884.37   909.95
                              913.84  1013.17  1036.65  1041.63  1100.02
                             1149.89  1180.56  1240.64  1244.86  1281.61
                             1351.80  1371.41  1380.17  1445.11  1497.96
                             1527.97  1575.68  1645.35  1679.89  1706.39
                             1725.55  1742.79  1754.50  1777.62  1807.98
                             1875.77  1880.55  1905.98  1982.99  2037.91
                             2070.89  2086.68  2114.63  2147.54  2170.15
                             2185.91  2189.78  2197.06  2201.62  2210.61
                             2215.46  2225.97  2322.29  2362.59  2416.09
                             2525.85  4357.85  4411.80  4414.60  4444.43
                             4506.46  4509.88  4551.60  4573.56  4575.17
                             4627.58  4644.18  4660.37  5138.76  5220.20

 Zero-point correction=                           0.251904 (Hartree/Particle)
 Thermal correction to Energy=                    0.269295
 Thermal correction to Enthalpy=                  0.270239
 Thermal correction to Gibbs Free Energy=         0.205288
 Sum of electronic and zero-point Energies=          -1198.891095
 Sum of electronic and thermal Energies=             -1198.873703
 Sum of electronic and thermal Enthalpies=           -1198.872759
 Sum of electronic and thermal Free Energies=        -1198.937710

                     E (Thermal)             CV                S
                      KCal/Mol        Cal/Mol-Kelvin    Cal/Mol-Kelvin
 Total                  168.985             66.181            136.701
 Electronic               0.000              0.000              0.000
 Translational            0.889              2.981             42.635
 Rotational               0.889              2.981             33.748
 Vibrational            167.208             60.219             60.318
 Vibration     1          0.593              1.987              8.304
 Vibration     2          0.594              1.981              5.261
 Vibration     3          0.599              1.965              3.966
 Vibration     4          0.599              1.964              3.956
 Vibration     5          0.600              1.962              3.860
 Vibration     6          0.611              1.924              2.962
 Vibration     7          0.628              1.871              2.366
 Vibration     8          0.634              1.852              2.215
 Vibration     9          0.644              1.819              2.005
 Vibration    10          0.652              1.795              1.880
 Vibration    11          0.652              1.794              1.875
 Vibration    12          0.661              1.768              1.754
 Vibration    13          0.662              1.765              1.741
 Vibration    14          0.675              1.725              1.584
 Vibration    15          0.679              1.715              1.547
 Vibration    16          0.718              1.601              1.226
 Vibration    17          0.738              1.546              1.104
 Vibration    18          0.740              1.540              1.091
 Vibration    19          0.758              1.492              1.002
 Vibration    20          0.768              1.464              0.952
 Vibration    21          0.788              1.414              0.872
 Vibration    22          0.801              1.381              0.824
 Vibration    23          0.812              1.353              0.785
 Vibration    24          0.842              1.281              0.694
 Vibration    25          0.871              1.215              0.620
 Vibration    26          0.927              1.094              0.502
 Vibration    27          0.937              1.073              0.484
 Vibration    28          0.960              1.028              0.446
 Vibration    29          0.974              1.001              0.425

                           ! Non-Optimized Parameters !
 Normal termination of Gaussian 16 at Mon Dec 14 16:53:39 2020.

 ----------------------------------------------------------------------
 # B3LYP/6-311++G(d,p) empiricaldispersion=gd3bj scf=xqc pop=npa geom=c
 heck
 ----------------------------------------------------------------------

 ---------------------------------------
 CID_113814769_JID_8776_Energie_neutraal
 ---------------------------------------
 Structure from the checkpoint file:  "JID_8776.chk"
 Charge =  0 Multiplicity = 1

 SCF Done:  E(RB3LYP) =  -1199.40014039     A.U. after   16 cycles
 Normal termination of Gaussian 16 at Mon Dec 14 17:00:07 2020.

 ----------------------------------------------------------------------
 # B3LYP/6-311++G(d,p) empiricaldispersion=gd3bj scf=xqc pop=npa geom=c
 heck
 ----------------------------------------------------------------------

 -------------------------------------
 CID_113814769_JID_8776_Energie_kation
 -------------------------------------
 Structure from the checkpoint file:  "JID_8776.chk"
 Charge =  1 Multiplicity = 2

 SCF Done:  E(UB3LYP) =  -1199.11345621     A.U. after   26 cycles
 Normal termination of Gaussian 16 at Mon Dec 14 17:15:22 2020.
 Gaussian 16:  ES64L-G16RevA.03 25-Dec-2016

 ----------------------------------------------------------------------
 # B3LYP/6-311++G(d,p) empiricaldispersion=gd3bj scf=xqc pop=npa geom=c
 heck
 ----------------------------------------------------------------------

 ------------------------------------
 CID_113814769_JID_8776_Energie_anion
 ------------------------------------
 Structure from the checkpoint file:  "JID_8776.chk"
 Charge = -1 Multiplicity = 2

                         Standard orientation:
 ---------------------------------------------------------------------
 Center     Atomic      Atomic             Coordinates (Angstroms)
 Number     Number       Type             X           Y           Z
 ---------------------------------------------------------------------
      1          6           0        2.999361   -1.528611    1.283828
      2          6           0        3.576297   -0.906523    0.003554
      3          6           0        3.005759   -1.537479   -1.275555
      4          6           0        3.376549    0.622150   -0.003776
      5          8           0        4.354360    1.362203   -0.010726
      6          7           0        2.133065    1.253643   -0.002805
      7          6           0        0.810482    0.845569   -0.002238
      8          7           0        0.349402   -0.356329   -0.005192
      9          6           0       -1.039808   -0.362280   -0.003225
     10          6           0       -1.656854    0.913731    0.001049
     11         16           0       -0.414263    2.158871    0.003375
     12          6           0       -3.035219    1.065978    0.002926
     13          6           0       -3.826710   -0.090329    0.000624
     14          6           0       -3.233279   -1.365535   -0.003532
     15          6           0       -1.846787   -1.499695   -0.005477
     16          8           0       -5.172320    0.129374    0.002792
     17          6           0       -6.035007   -0.996899   -0.000219
     18          8           0        4.980002   -1.125625    0.008975
     19          1           0        1.912610   -1.448924    1.325423
     20          1           0        3.444210   -1.050587    2.162566
     21          1           0        3.281744   -2.585743    1.296667
     22          1           0        1.919455   -1.455334   -1.324638
     23          1           0        3.457309   -1.067263   -2.155120
     24          1           0        3.285647   -2.595351   -1.278404
     25          1           0        2.273403    2.258406   -0.007269
     26          1           0       -3.518304    2.036355    0.006132
     27          1           0       -3.848131   -2.256796   -0.005264
     28          1           0       -1.384141   -2.481036   -0.008735
     29          1           0       -5.889202   -1.612722   -0.897142
     30          1           0       -5.888251   -1.618251    0.892731
     31          1           0       -7.049319   -0.595138    0.001578
     32          1           0        5.388875   -0.238838   -0.002642
 ---------------------------------------------------------------------

 SCF Done:  E(UB3LYP) =  -1199.40519847     A.U. after   33 cycles
 SCF Done:  E(UB3LYP) =  -1199.40554051     a.u. after    9 cycles

 The electronic state is 2-A.
 Alpha  occ. eigenvalues --  -88.75784 -19.05105 -18.99532 -18.97167 -14.24641
 Alpha  occ. eigenvalues --  -14.17516 -10.13996 -10.13454 -10.13166 -10.12125
 Alpha  occ. eigenvalues --  -10.11867 -10.09624 -10.08631 -10.06447 -10.06369
 Alpha  occ. eigenvalues --  -10.05540 -10.04223 -10.04202  -7.84450  -5.80759
 Alpha  occ. eigenvalues --   -5.80447  -5.79952  -0.96802  -0.94105  -0.89633
 Alpha  occ. eigenvalues --   -0.85958  -0.80144  -0.73504  -0.68396  -0.66352
 Alpha  occ. eigenvalues --   -0.65060  -0.61579  -0.59359  -0.57824  -0.54107
 Alpha  occ. eigenvalues --   -0.51111  -0.48645  -0.48207  -0.44727  -0.42383
 Alpha  occ. eigenvalues --   -0.41673  -0.39658  -0.37568  -0.37121  -0.35587
 Alpha  occ. eigenvalues --   -0.34250  -0.34130  -0.32821  -0.32288  -0.31866
 Alpha  occ. eigenvalues --   -0.30966  -0.30424  -0.28846  -0.28746  -0.28222
 Alpha  occ. eigenvalues --   -0.27040  -0.26095  -0.25849  -0.24942  -0.24491
 Alpha  occ. eigenvalues --   -0.22551  -0.22253  -0.22004  -0.19051  -0.17009
 Alpha  occ. eigenvalues --   -0.16102  -0.15678  -0.15158  -0.12565  -0.09628
 Alpha  occ. eigenvalues --    0.04131
 Alpha virt. eigenvalues --    0.05497   0.08077   0.08544   0.08726   0.08937
 Alpha virt. eigenvalues --    0.09420   0.09785   0.10628   0.10818   0.11532
 Alpha virt. eigenvalues --    0.11562   0.11817   0.12266   0.13325   0.13489

  Beta  occ. eigenvalues --  -88.75770 -19.05078 -18.99535 -18.96797 -14.24784
  Beta  occ. eigenvalues --  -14.17393 -10.13600 -10.13143 -10.12979 -10.12154
  Beta  occ. eigenvalues --  -10.11733 -10.09628 -10.08625 -10.06417 -10.06412
  Beta  occ. eigenvalues --  -10.05354 -10.04197 -10.04175  -7.84437  -5.80760
  Beta  occ. eigenvalues --   -5.80448  -5.79889  -0.96720  -0.93627  -0.89488
  Beta  occ. eigenvalues --   -0.85541  -0.80015  -0.73340  -0.68224  -0.66247
  Beta  occ. eigenvalues --   -0.64908  -0.61342  -0.59222  -0.57762  -0.53544
  Beta  occ. eigenvalues --   -0.50825  -0.48522  -0.48060  -0.44684  -0.42305
  Beta  occ. eigenvalues --   -0.41531  -0.39568  -0.37444  -0.37056  -0.35360
  Beta  occ. eigenvalues --   -0.34123  -0.33280  -0.32721  -0.31698  -0.31640
  Beta  occ. eigenvalues --   -0.30840  -0.30250  -0.28674  -0.28462  -0.28130
  Beta  occ. eigenvalues --   -0.26808  -0.25808  -0.25295  -0.24858  -0.24398
  Beta  occ. eigenvalues --   -0.22403  -0.22154  -0.20934  -0.18573  -0.16471
  Beta  occ. eigenvalues --   -0.15903  -0.15570  -0.14919  -0.12118  -0.08777
  Beta virt. eigenvalues --    0.05974   0.08225   0.08581   0.08715   0.09174
  Beta virt. eigenvalues --    0.09417   0.09676   0.09965   0.10724   0.10824
  Beta virt. eigenvalues --    0.11571   0.11797   0.12221   0.12764   0.13289

 Mulliken charges and spin densities:
               1          2
     1  C   -0.371328   0.021904
     2  C   -0.093296  -0.049555
     3  C   -0.356948   0.008359
     4  C   -0.120141   0.234680
     5  O   -0.389046   0.122066
     6  N   -0.170770  -0.072248
     7  C    0.307850   0.244365
     8  N    0.082696   0.068119
     9  C    0.274821  -0.134634
    10  C    0.838118   0.049079
    11  S   -0.693077   0.025840
    12  C   -0.845483   0.083845
    13  C   -0.749808   0.245690
    14  C    0.243820  -0.111912
    15  C   -0.323846  -0.035632
    16  O   -0.192568   0.025443
    17  C    0.191356  -0.515481
    18  O   -0.225803  -0.000723
    19  H    0.178164   0.000210
    20  H    0.143480  -0.003124
    21  H    0.128372   0.010254
    22  H    0.176621   0.003004
    23  H    0.144216  -0.003381
    24  H    0.116894   0.021413
    25  H    0.311028   0.001414
    26  H    0.160408   0.006634
    27  H    0.098228   0.074375
    28  H    0.092603   0.016847
    29  H   -0.085386   0.230071
    30  H    0.073860   0.061553
    31  H   -0.210407   0.373317
    32  H    0.265373  -0.001790
 Sum of Mulliken charges =  -1.00000   1.00000

 Dipole moment (field-independent basis, Debye):
    X=             -1.9925    Y=              0.3761    Z=              0.3080  Tot=              2.0510
 Quadrupole moment (field-independent basis, Debye-Ang):
   XX=           -215.1691   YY=           -129.7653   ZZ=           -125.8917
   XY=             -0.3032   XZ=             -1.7878   YZ=             -0.8786

 Summary of Natural Population Analysis:

                                       Natural Population
                Natural  -----------------------------------------------
    Atom  No    Charge         Core      Valence    Rydberg      Total
 -----------------------------------------------------------------------
      C    1   -0.29183      0.99962     2.28663    0.00558     3.29183
      C    2    0.09219      0.99956     1.89416    0.01409     2.90781
      C    3   -0.29195      0.99962     2.28675    0.00558     3.29195
      C    4    0.39537      0.99963     1.58101    0.02400     2.60463
      O    5   -0.30188      0.99987     3.29528    0.00673     4.30188
      N    6   -0.33219      0.99962     2.82296    0.00960     3.83219
      C    7    0.23075      0.99960     1.75197    0.01768     2.76925
      N    8   -0.26395      0.99960     2.75334    0.01101     3.76395
      C    9    0.05342      0.99943     1.93471    0.01244     2.94658
      C   10   -0.09337      0.99940     2.08411    0.00986     3.09337
      S   11    0.13359      4.99948     2.84851    0.01842     7.86641
      C   12   -0.13126      0.99947     2.12201    0.00979     3.13126
      C   13    0.17394      0.99940     1.81251    0.01415     2.82606
      C   14   -0.16141      0.99954     2.15277    0.00910     3.16141
      C   15   -0.06066      0.99953     2.05224    0.00889     3.06066
      O   16   -0.27610      0.99985     3.26672    0.00953     4.27610
      C   17   -0.10108      0.99961     2.09186    0.00961     3.10108
      O   18   -0.39094      0.99989     3.38310    0.00795     4.39094
      H   19    0.11606      0.00000     0.38297    0.00097     0.38394
      H   20    0.09706      0.00000     0.40203    0.00091     0.40294
      H   21    0.09602      0.00000     0.40303    0.00094     0.40398
      H   22    0.11620      0.00000     0.38283    0.00097     0.38380
      H   23    0.09706      0.00000     0.40204    0.00090     0.40294
      H   24    0.09605      0.00000     0.40301    0.00094     0.40395
      H   25    0.19742      0.00000     0.30015    0.00243     0.30258
      H   26    0.10387      0.00000     0.39464    0.00150     0.39613
      H   27    0.10018      0.00000     0.39873    0.00109     0.39982
      H   28    0.09925      0.00000     0.39939    0.00137     0.40075
      H   29    0.08408      0.00000     0.41428    0.00164     0.41592
      H   30    0.08127      0.00000     0.41742    0.00130     0.41873
      H   31    0.09075      0.00000     0.40819    0.00106     0.40925
      H   32    0.24209      0.00000     0.25501    0.00291     0.25791
 =======================================================================
   * Total *   -0.00000     21.99272    47.78434    0.22294    70.00000

 Normal termination of Gaussian 16 at Mon Dec 14 19:54:47 2020.
