 Gaussian 16, Revision A.03,

 -----------------------------------------------------------
 # opt freq B3LYP/6-31G(d) empiricaldispersion=gd3bj scf=xqc
 -----------------------------------------------------------

 -------------------------------
 CID_150925034_JID_1976_neutraal
 -------------------------------
 Symbolic Z-matrix:
 Charge =  0 Multiplicity = 1

 SCF Done:  E(RB3LYP) =  -512.791876375     A.U. after   15 cycles
 SCF Done:  E(RB3LYP) =  -512.796118436     A.U. after   12 cycles
 SCF Done:  E(RB3LYP) =  -512.797428264     A.U. after   12 cycles
 SCF Done:  E(RB3LYP) =  -512.797620908     A.U. after   11 cycles
 SCF Done:  E(RB3LYP) =  -512.797641700     A.U. after   12 cycles
 SCF Done:  E(RB3LYP) =  -512.797797068     A.U. after   11 cycles
 SCF Done:  E(RB3LYP) =  -512.797862022     A.U. after   11 cycles
 SCF Done:  E(RB3LYP) =  -512.797895378     A.U. after   11 cycles
 SCF Done:  E(RB3LYP) =  -512.797949577     A.U. after   10 cycles
 SCF Done:  E(RB3LYP) =  -512.798057044     A.U. after   12 cycles
 SCF Done:  E(RB3LYP) =  -512.798178026     A.U. after   12 cycles
 SCF Done:  E(RB3LYP) =  -512.798190746     A.U. after   12 cycles
 SCF Done:  E(RB3LYP) =  -512.798192022     A.U. after    9 cycles
 SCF Done:  E(RB3LYP) =  -512.798190833     A.U. after   10 cycles
 SCF Done:  E(RB3LYP) =  -512.798192285     A.U. after   10 cycles
 Optimization completed.
    -- Stationary point found.
 Normal termination of Gaussian 16 at Tue Dec  8 21:41:47 2020.

 --------------------------------------------------------------------
 #N Geom=AllCheck Guess=TCheck SCRF=Check GenChk RB3LYP/6-31G(d) Freq
 --------------------------------------------------------------------

 Structure from the checkpoint file:  "JID_1976.chk"
 -------------------------------
 CID_150925034_JID_1976_neutraal
 -------------------------------
 Charge =  0 Multiplicity = 1

 SCF Done:  E(RB3LYP) =  -512.798192285     A.U. after    1 cycles

  Exact polarizability: 158.495  -1.001  80.559  -0.155  -0.503  62.912
 Approx polarizability: 217.962   0.206 119.053   4.492  -0.395  94.729

                      1                      2                      3
                      A                      A                      A
 Frequencies --     36.7994                40.7810                73.3261
 Red. masses --      3.8285                 6.8359                 2.6464
 Frc consts  --      0.0031                 0.0067                 0.0084
 IR Inten    --      0.8060                 0.5439                 1.3752

                      4                      5                      6
                      A                      A                      A
 Frequencies --     92.8810               115.3807               160.1410
 Red. masses --      3.1584                 1.0892                 2.2958
 Frc consts  --      0.0161                 0.0085                 0.0347
 IR Inten    --      2.1691                 0.0436                 1.7631

                      7                      8                      9
                      A                      A                      A
 Frequencies --    202.1918               223.2647               307.4222
 Red. masses --      2.4316                 3.6096                 3.7193
 Frc consts  --      0.0586                 0.1060                 0.2071
 IR Inten    --      3.1862                 2.8154                 8.6637

                     10                     11                     12
                      A                      A                      A
 Frequencies --    385.8136               435.5611               497.5060
 Red. masses --      4.5987                 4.6693                 3.6847
 Frc consts  --      0.4033                 0.5219                 0.5373
 IR Inten    --      8.6019                30.7586                11.1884

                     13                     14                     15
                      A                      A                      A
 Frequencies --    528.3139               552.2874               587.5013
 Red. masses --      1.5354                 2.0629                 3.7415
 Frc consts  --      0.2525                 0.3707                 0.7609
 IR Inten    --     28.4208                29.0106                22.2813

                     16                     17                     18
                      A                      A                      A
 Frequencies --    596.6107               648.9937               682.5220
 Red. masses --      2.3619                 2.9503                 1.6807
 Frc consts  --      0.4953                 0.7321                 0.4613
 IR Inten    --     39.9680                 3.9912                 4.8782

                     19                     20                     21
                      A                      A                      A
 Frequencies --    704.8173               781.4609               804.1235
 Red. masses --      1.2808                 3.8745                 1.3803
 Frc consts  --      0.3749                 1.3941                 0.5259
 IR Inten    --     46.0289                 3.8676                58.2003

                     22                     23                     24
                      A                      A                      A
 Frequencies --    820.2420               864.3372               903.5343
 Red. masses --      1.3083                 4.5887                 3.4752
 Frc consts  --      0.5186                 2.0198                 1.6715
 IR Inten    --     31.8376                 9.2740                26.2046

                     25                     26                     27
                      A                      A                      A
 Frequencies --    954.2947               989.8680              1035.6443
 Red. masses --      4.1328                 1.1213                 1.5873
 Frc consts  --      2.2175                 0.6473                 1.0031
 IR Inten    --     43.0244                18.0603                10.5049

                     28                     29                     30
                      A                      A                      A
 Frequencies --   1058.1115              1067.6464              1097.2645
 Red. masses --      1.7009                 1.7323                 1.4578
 Frc consts  --      1.1220                 1.1634                 1.0341
 IR Inten    --     12.2753                 3.5125                 7.9138

                     31                     32                     33
                      A                      A                      A
 Frequencies --   1121.8634              1181.0692              1205.9799
 Red. masses --      1.5579                 3.3144                 1.1114
 Frc consts  --      1.1552                 2.7240                 0.9523
 IR Inten    --     37.4156                59.6624                 2.3391

                     34                     35                     36
                      A                      A                      A
 Frequencies --   1224.7712              1241.3760              1323.8143
 Red. masses --      3.7431                 2.9433                 1.6064
 Frc consts  --      3.3082                 2.6724                 1.6586
 IR Inten    --     12.4626                35.0837                12.7022

                     37                     38                     39
                      A                      A                      A
 Frequencies --   1342.1500              1352.3986              1381.8576
 Red. masses --      1.6526                 2.0269                 1.5989
 Frc consts  --      1.7540                 2.1842                 1.7988
 IR Inten    --     35.3723               189.5950                81.9254

                     40                     41                     42
                      A                      A                      A
 Frequencies --   1425.1895              1466.6451              1484.1811
 Red. masses --      1.4004                 2.0426                 1.3887
 Frc consts  --      1.6759                 2.5887                 1.8024
 IR Inten    --     78.5228                51.7246                69.3994

                     43                     44                     45
                      A                      A                      A
 Frequencies --   1485.0922              1495.9418              1506.6926
 Red. masses --      1.4661                 1.2082                 1.0629
 Frc consts  --      1.9051                 1.5931                 1.4217
 IR Inten    --    107.3583                12.7321                10.5475

                     46                     47                     48
                      A                      A                      A
 Frequencies --   1563.0261              1687.9840              1726.1604
 Red. masses --      1.1008                 5.5920                 4.6753
 Frc consts  --      1.5845                 9.3875                 8.2078
 IR Inten    --      5.7924                23.0773               268.2450

                     49                     50                     51
                      A                      A                      A
 Frequencies --   1811.7983              2914.3764              3067.7611
 Red. masses --      8.4324                 1.0754                 1.0903
 Frc consts  --     16.3088                 5.3815                 6.0459
 IR Inten    --    344.1326                93.0056                39.1565

                     52                     53                     54
                      A                      A                      A
 Frequencies --   3072.5304              3136.4590              3178.3956
 Red. masses --      1.0380                 1.0983                 1.0827
 Frc consts  --      5.7734                 6.3660                 6.4445
 IR Inten    --      3.5911                 9.0255                15.9927

                     55                     56                     57
                      A                      A                      A
 Frequencies --   3180.4107              3191.3732              3272.5130
 Red. masses --      1.1040                 1.0674                 1.1153
 Frc consts  --      6.5793                 6.4049                 7.0375
 IR Inten    --     15.0482                 0.5199                10.9082

                     58                     59                     60
                      A                      A                      A
 Frequencies --   3286.7579              3308.1663              3463.2977
 Red. masses --      1.0891                 1.1078                 1.0757
 Frc consts  --      6.9321                 7.1434                 7.6016
 IR Inten    --      9.5207                 1.1589                26.8847

 - Thermochemistry -
 -------------------
 Temperature   298.150 Kelvin.  Pressure   1.00000 Atm.
 Atom     1 has atomic number  6 and mass  12.00000

 Molecular mass:   153.09021 amu.
 Principal axes and moments of inertia in atomic units:
                           1         2         3
     Eigenvalues --   528.333153585.305033703.76618
           X            0.99986  -0.00285  -0.01626
           Y            0.00208   0.99887  -0.04748
           Z            0.01638   0.04744   0.99874
 This molecule is an asymmetric top.
 Rotational symmetry number  1.
 Warning -- assumption of classical behavior for rotation
           may cause significant error
 Rotational temperatures (Kelvin)      0.16394     0.02416     0.02339
 Rotational constants (GHZ):           3.41592     0.50337     0.48727
 Zero-point vibrational energy     474610.5 (Joules/Mol)
                                  113.43463 (Kcal/Mol)
 Warning -- explicit consideration of  16 degrees of freedom as
           vibrations may cause significant error
 Vibrational temperatures:     52.95    58.67   105.50   133.64   166.01
          (Kelvin)            230.41   290.91   321.23   442.31   555.10
                              626.68   715.80   760.13   794.62   845.28
                              858.39   933.76   982.00  1014.07  1124.35
                             1156.95  1180.15  1243.59  1299.98  1373.02
                             1424.20  1490.06  1522.39  1536.11  1578.72
                             1614.11  1699.30  1735.14  1762.17  1786.06
                             1904.67  1931.05  1945.80  1988.18  2050.53
                             2110.18  2135.41  2136.72  2152.33  2167.79
                             2248.85  2428.63  2483.56  2606.77  4193.14
                             4413.82  4420.69  4512.66  4573.00  4575.90
                             4591.67  4708.42  4728.91  4759.71  4982.91

 Zero-point correction=                           0.180770 (Hartree/Particle)
 Thermal correction to Energy=                    0.192303
 Thermal correction to Enthalpy=                  0.193247
 Thermal correction to Gibbs Free Energy=         0.141854
 Sum of electronic and zero-point Energies=           -512.617423
 Sum of electronic and thermal Energies=              -512.605889
 Sum of electronic and thermal Enthalpies=            -512.604945
 Sum of electronic and thermal Free Energies=         -512.656339

                     E (Thermal)             CV                S
                      KCal/Mol        Cal/Mol-Kelvin    Cal/Mol-Kelvin
 Total                  120.672             41.410            108.167
 Electronic               0.000              0.000              0.000
 Translational            0.889              2.981             40.987
 Rotational               0.889              2.981             30.329
 Vibrational            118.895             35.448             36.850
 Vibration     1          0.594              1.982              5.424
 Vibration     2          0.594              1.981              5.221
 Vibration     3          0.599              1.967              4.062
 Vibration     4          0.602              1.954              3.598
 Vibration     5          0.608              1.937              3.176
 Vibration     6          0.622              1.891              2.548
 Vibration     7          0.639              1.837              2.113
 Vibration     8          0.649              1.806              1.932
 Vibration     9          0.697              1.660              1.376
 Vibration    10          0.754              1.500              1.016
 Vibration    11          0.796              1.393              0.841
 Vibration    12          0.853              1.256              0.664
 Vibration    13          0.883              1.187              0.591
 Vibration    14          0.908              1.135              0.539
 Vibration    15          0.945              1.058              0.472
 Vibration    16          0.954              1.039              0.456

                           ! Non-Optimized Parameters !
 Normal termination of Gaussian 16 at Tue Dec  8 21:45:52 2020.

 ----------------------------------------------------------------------
 # B3LYP/6-311++G(d,p) empiricaldispersion=gd3bj scf=xqc pop=npa geom=c
 heck
 ----------------------------------------------------------------------

 ---------------------------------------
 CID_150925034_JID_1976_Energie_neutraal
 ---------------------------------------
 Structure from the checkpoint file:  "JID_1976.chk"
 Charge =  0 Multiplicity = 1

 SCF Done:  E(RB3LYP) =  -512.952462173     A.U. after   14 cycles
 Normal termination of Gaussian 16 at Tue Dec  8 21:47:48 2020.

 ----------------------------------------------------------------------
 # B3LYP/6-311++G(d,p) empiricaldispersion=gd3bj scf=xqc pop=npa geom=c
 heck
 ----------------------------------------------------------------------

 -------------------------------------
 CID_150925034_JID_1976_Energie_kation
 -------------------------------------
 Structure from the checkpoint file:  "JID_1976.chk"
 Charge =  1 Multiplicity = 2

 SCF Done:  E(UB3LYP) =  -512.687435273     A.U. after   21 cycles
 Normal termination of Gaussian 16 at Tue Dec  8 21:50:38 2020.
 Gaussian 16:  ES64L-G16RevA.03 25-Dec-2016

 ----------------------------------------------------------------------
 # B3LYP/6-311++G(d,p) empiricaldispersion=gd3bj scf=xqc pop=npa geom=c
 heck
 ----------------------------------------------------------------------

 ------------------------------------
 CID_150925034_JID_1976_Energie_anion
 ------------------------------------
 Structure from the checkpoint file:  "JID_1976.chk"
 Charge = -1 Multiplicity = 2

                         Standard orientation:
 ---------------------------------------------------------------------
 Center     Atomic      Atomic             Coordinates (Angstroms)
 Number     Number       Type             X           Y           Z
 ---------------------------------------------------------------------
      1          6           0       -2.912868   -0.286728    1.314851
      2          6           0       -2.771354   -0.163528   -0.188933
      3          8           0       -3.675699   -0.376258   -0.979937
      4          7           0       -1.531726    0.236507   -0.647854
      5          7           0       -0.415490    0.315627    0.175327
      6          6           0        0.543589   -0.799079   -0.005773
      7          7           0        1.839844   -0.166843    0.238267
      8          6           0        1.660602    1.222520    0.118239
      9          6           0        0.356282    1.513817    0.059118
     10          6           0        3.025410   -0.858602    0.041435
     11          6           0        4.233376   -0.342133   -0.225774
     12          1           0       -3.959251   -0.498177    1.537989
     13          1           0       -2.594235    0.629615    1.819313
     14          1           0       -2.286339   -1.098408    1.699709
     15          1           0       -1.396716    0.220662   -1.659555
     16          1           0        0.349490   -1.616769    0.697573
     17          1           0        0.469952   -1.193024   -1.039002
     18          1           0        2.504909    1.891520    0.176957
     19          1           0       -0.145616    2.469097    0.055424
     20          1           0        2.905332   -1.932182    0.170312
     21          1           0        5.095534   -0.995284   -0.280766
     22          1           0        4.403918    0.718381   -0.377633
 ---------------------------------------------------------------------

 SCF Done:  E(UB3LYP) =  -512.940147221     A.U. after   33 cycles
 SCF Done:  E(UB3LYP) =  -512.940147221     a.u. after    1 cycles

 The electronic state is 2-A.
 Alpha  occ. eigenvalues --  -18.99782 -14.27169 -14.26783 -14.25255 -10.18319
 Alpha  occ. eigenvalues --  -10.14485 -10.11259 -10.10773 -10.10177 -10.07520
 Alpha  occ. eigenvalues --  -10.05615  -0.95893  -0.92563  -0.86574  -0.75119
 Alpha  occ. eigenvalues --   -0.66903  -0.65581  -0.64115  -0.56266  -0.52659
 Alpha  occ. eigenvalues --   -0.49495  -0.48085  -0.43866  -0.40872  -0.39560
 Alpha  occ. eigenvalues --   -0.37440  -0.36563  -0.35647  -0.34136  -0.32921
 Alpha  occ. eigenvalues --   -0.31934  -0.31697  -0.30376  -0.27773  -0.27236
 Alpha  occ. eigenvalues --   -0.25982  -0.23358  -0.17776  -0.16676  -0.15463
 Alpha  occ. eigenvalues --   -0.08691   0.04410
 Alpha virt. eigenvalues --    0.06904   0.07132   0.07807   0.08756   0.08950
 Alpha virt. eigenvalues --    0.09501   0.10650   0.11073   0.11384   0.11975
 Alpha virt. eigenvalues --    0.12435   0.13103   0.14096   0.14288   0.15469

  Beta  occ. eigenvalues --  -18.99779 -14.27170 -14.26763 -14.25260 -10.18317
  Beta  occ. eigenvalues --  -10.14433 -10.11238 -10.10743 -10.10162 -10.07483
  Beta  occ. eigenvalues --  -10.05594  -0.95880  -0.92553  -0.86559  -0.75091
  Beta  occ. eigenvalues --   -0.66854  -0.65536  -0.64060  -0.56217  -0.52607
  Beta  occ. eigenvalues --   -0.49442  -0.48014  -0.43806  -0.40829  -0.39524
  Beta  occ. eigenvalues --   -0.37406  -0.36517  -0.35600  -0.34092  -0.32870
  Beta  occ. eigenvalues --   -0.31903  -0.31658  -0.30341  -0.27729  -0.27207
  Beta  occ. eigenvalues --   -0.25941  -0.23335  -0.17758  -0.16661  -0.15420
  Beta  occ. eigenvalues --   -0.08656
  Beta virt. eigenvalues --    0.06850   0.07707   0.08007   0.08188   0.09226
  Beta virt. eigenvalues --    0.09615   0.10134   0.10990   0.11541   0.11819
  Beta virt. eigenvalues --    0.12415   0.12922   0.13274   0.14348   0.14381

 Mulliken charges and spin densities:
               1          2
     1  C    0.646263  -1.111185
     2  C   -0.174452   0.360367
     3  O   -0.331512   0.000529
     4  N   -0.321677   0.058495
     5  N    0.071888   0.064910
     6  C    1.251246  -1.691258
     7  N   -0.016513   0.157944
     8  C    0.573839  -0.605293
     9  C    0.259305  -0.656062
    10  C   -0.022613  -0.001960
    11  C    0.433211  -0.803723
    12  H   -0.002079   0.166952
    13  H   -0.082715   0.257134
    14  H   -0.348698   0.520530
    15  H    0.024275   0.242853
    16  H   -0.239002   0.442350
    17  H   -0.401461   0.581207
    18  H   -0.464818   0.614171
    19  H   -0.820452   0.986781
    20  H   -0.757991   0.907334
    21  H   -0.148431   0.287753
    22  H   -0.127612   0.220169
 Sum of Mulliken charges =  -1.00000   1.00000

 Dipole moment (field-independent basis, Debye):
    X=             -0.6050    Y=              1.7090    Z=              0.1270  Tot=              1.8174
 Quadrupole moment (field-independent basis, Debye-Ang):
   XX=           -134.2711   YY=           -109.1702   ZZ=            -98.8207
   XY=              0.8566   XZ=             -4.2002   YZ=              0.5526

 Summary of Natural Population Analysis:

                                       Natural Population
                Natural  -----------------------------------------------
    Atom  No    Charge         Core      Valence    Rydberg      Total
 -----------------------------------------------------------------------
      C    1   -0.33323      0.99962     2.32851    0.00510     3.33323
      C    2    0.34632      0.99970     1.63283    0.02115     2.65368
      O    3   -0.31869      0.99988     3.31245    0.00637     4.31869
      N    4   -0.23195      0.99966     2.71945    0.01284     3.73195
      N    5   -0.17986      0.99970     2.66425    0.01592     3.67986
      C    6    0.02897      0.99962     1.95841    0.01300     2.97103
      N    7   -0.25244      0.99967     2.73956    0.01321     3.75244
      C    8   -0.01403      0.99951     2.00159    0.01294     3.01403
      C    9   -0.02595      0.99952     2.01337    0.01307     3.02595
      C   10    0.01691      0.99954     1.96935    0.01420     2.98309
      C   11   -0.24574      0.99960     2.23887    0.00727     3.24574
      H   12    0.10844      0.00000     0.39067    0.00089     0.39156
      H   13    0.11323      0.00000     0.38548    0.00129     0.38677
      H   14    0.11577      0.00000     0.38261    0.00161     0.38423
      H   15    0.18529      0.00000     0.31104    0.00368     0.31471
      H   16    0.09985      0.00000     0.39651    0.00365     0.40015
      H   17    0.08137      0.00000     0.41526    0.00337     0.41863
      H   18    0.10900      0.00000     0.38937    0.00163     0.39100
      H   19    0.10864      0.00000     0.38952    0.00184     0.39136
      H   20    0.09730      0.00000     0.40074    0.00197     0.40270
      H   21    0.09852      0.00000     0.40058    0.00090     0.40148
      H   22    0.09230      0.00000     0.40656    0.00114     0.40770
 =======================================================================
   * Total *   -0.00000     10.99601    29.84697    0.15702    41.00000

 Normal termination of Gaussian 16 at Tue Dec  8 21:54:47 2020.
