 Gaussian 16, Revision A.03,

 -----------------------------------------------------------
 # opt freq B3LYP/6-31G(d) empiricaldispersion=gd3bj scf=xqc
 -----------------------------------------------------------

 -------------------------------
 CID_112712415_JID_3559_neutraal
 -------------------------------
 Symbolic Z-matrix:
 Charge =  0 Multiplicity = 1

 SCF Done:  E(RB3LYP) =  -631.216197209     A.U. after   15 cycles
 SCF Done:  E(RB3LYP) =  -631.223272393     A.U. after   13 cycles
 SCF Done:  E(RB3LYP) =  -631.224049261     A.U. after   12 cycles
 SCF Done:  E(RB3LYP) =  -631.224280975     A.U. after   12 cycles
 SCF Done:  E(RB3LYP) =  -631.224289024     A.U. after   12 cycles
 SCF Done:  E(RB3LYP) =  -631.224366379     A.U. after   11 cycles
 SCF Done:  E(RB3LYP) =  -631.224380593     A.U. after   10 cycles
 SCF Done:  E(RB3LYP) =  -631.224383087     A.U. after    8 cycles
 SCF Done:  E(RB3LYP) =  -631.224383621     A.U. after    8 cycles
 SCF Done:  E(RB3LYP) =  -631.224384150     A.U. after    8 cycles
 SCF Done:  E(RB3LYP) =  -631.224384230     A.U. after    7 cycles
 Optimization completed.
    -- Stationary point found.
 Normal termination of Gaussian 16 at Wed Dec  9 23:38:22 2020.

 --------------------------------------------------------------------
 #N Geom=AllCheck Guess=TCheck SCRF=Check GenChk RB3LYP/6-31G(d) Freq
 --------------------------------------------------------------------

 Structure from the checkpoint file:  "JID_3559.chk"
 -------------------------------
 CID_112712415_JID_3559_neutraal
 -------------------------------
 Charge =  0 Multiplicity = 1

 SCF Done:  E(RB3LYP) =  -631.224384230     A.U. after    1 cycles

  Exact polarizability: 133.530  -6.222 114.549 -16.310   1.281  77.405
 Approx polarizability: 202.996 -31.997 186.092 -43.909  12.133 122.809

                      1                      2                      3
                      A                      A                      A
 Frequencies --     29.9066                66.7565                70.3521
 Red. masses --      3.8432                 3.5212                 4.9786
 Frc consts  --      0.0020                 0.0092                 0.0145
 IR Inten    --      0.7899                 2.0760                 0.3115

                      4                      5                      6
                      A                      A                      A
 Frequencies --    114.6703               153.9252               202.9558
 Red. masses --      2.8678                 6.0662                 4.7222
 Frc consts  --      0.0222                 0.0847                 0.1146
 IR Inten    --      3.1378                 2.2466                 4.2753

                      7                      8                      9
                      A                      A                      A
 Frequencies --    217.0126               233.0822               279.1330
 Red. masses --      1.6403                 1.6768                 1.7531
 Frc consts  --      0.0455                 0.0537                 0.0805
 IR Inten    --     13.7949                10.5899                24.9738

                     10                     11                     12
                      A                      A                      A
 Frequencies --    287.9443               326.7631               338.9881
 Red. masses --      1.5663                 4.9704                 5.5921
 Frc consts  --      0.0765                 0.3127                 0.3786
 IR Inten    --     13.4333                 2.5300                19.8534

                     13                     14                     15
                      A                      A                      A
 Frequencies --    386.1306               414.7999               491.6790
 Red. masses --      1.9287                 2.3654                 5.6619
 Frc consts  --      0.1694                 0.2398                 0.8064
 IR Inten    --      0.7751                 1.4888                 0.1239

                     16                     17                     18
                      A                      A                      A
 Frequencies --    495.1108               514.4991               521.1699
 Red. masses --      5.1771                 4.6658                 4.9492
 Frc consts  --      0.7477                 0.7277                 0.7920
 IR Inten    --      3.2441                 4.7858                11.8246

                     19                     20                     21
                      A                      A                      A
 Frequencies --    570.3742               652.8475               669.8336
 Red. masses --      6.1757                 1.3563                 2.7368
 Frc consts  --      1.1837                 0.3406                 0.7235
 IR Inten    --      0.9865                55.5725                27.0832

                     22                     23                     24
                      A                      A                      A
 Frequencies --    720.5455               742.8730               800.7652
 Red. masses --      4.1370                 5.4464                 2.4780
 Frc consts  --      1.2655                 1.7709                 0.9362
 IR Inten    --      4.6465                 0.1569                 9.1074

                     25                     26                     27
                      A                      A                      A
 Frequencies --    834.6113               859.8420               868.7615
 Red. masses --      1.5551                 5.1053                 1.3079
 Frc consts  --      0.6382                 2.2239                 0.5816
 IR Inten    --     47.4028                46.5136                55.4135

                     28                     29                     30
                      A                      A                      A
 Frequencies --    885.3281               944.5910               944.8904
 Red. masses --      1.9452                 1.2666                 1.7490
 Frc consts  --      0.8983                 0.6659                 0.9200
 IR Inten    --     41.9536                 0.4750                31.9374

                     31                     32                     33
                      A                      A                      A
 Frequencies --    954.2966              1014.4562              1045.3955
 Red. masses --      1.5045                 2.3233                 2.2842
 Frc consts  --      0.8072                 1.4087                 1.4707
 IR Inten    --     24.3884                26.6161                 0.3454

                     34                     35                     36
                      A                      A                      A
 Frequencies --   1082.7438              1091.4782              1113.1277
 Red. masses --      2.0192                 2.8832                 1.6051
 Frc consts  --      1.3947                 2.0237                 1.1718
 IR Inten    --      4.0947                21.4781                 8.6913

                     37                     38                     39
                      A                      A                      A
 Frequencies --   1148.0965              1197.2350              1245.9432
 Red. masses --      1.5642                 2.4645                 1.6204
 Frc consts  --      1.2148                 2.0813                 1.4821
 IR Inten    --      6.0964                39.7283                 7.5506

                     40                     41                     42
                      A                      A                      A
 Frequencies --   1251.0331              1280.6656              1302.5559
 Red. masses --      2.2998                 1.3452                 1.6932
 Frc consts  --      2.1207                 1.2999                 1.6926
 IR Inten    --     24.8871                39.6376                12.4061

                     43                     44                     45
                      A                      A                      A
 Frequencies --   1311.0980              1350.5494              1358.7889
 Red. masses --      2.3060                 1.4880                 1.3200
 Frc consts  --      2.3355                 1.5991                 1.4360
 IR Inten    --     76.4807               158.9663                20.9074

                     46                     47                     48
                      A                      A                      A
 Frequencies --   1393.4785              1405.7863              1437.4518
 Red. masses --      1.3752                 1.3839                 1.3715
 Frc consts  --      1.5734                 1.6114                 1.6697
 IR Inten    --      7.0501                20.4445                14.9634

                     49                     50                     51
                      A                      A                      A
 Frequencies --   1442.3531              1458.5324              1483.3614
 Red. masses --      1.6154                 1.4087                 2.4023
 Frc consts  --      1.9801                 1.7657                 3.1143
 IR Inten    --     49.0234                 0.3399                97.6287

                     52                     53                     54
                      A                      A                      A
 Frequencies --   1503.9342              1523.1894              1534.5527
 Red. masses --      1.3253                 1.0674                 1.0736
 Frc consts  --      1.7661                 1.4590                 1.4895
 IR Inten    --     22.8713                 7.7066                 1.1340

                     55                     56                     57
                      A                      A                      A
 Frequencies --   1539.9773              1634.1830              1701.5570
 Red. masses --      1.0573                 5.9305                 1.0871
 Frc consts  --      1.4774                 9.3313                 1.8545
 IR Inten    --      9.3350                 1.4135                29.2690

                     58                     59                     60
                      A                      A                      A
 Frequencies --   1716.8520              1733.2050              2966.2057
 Red. masses --      9.2194                 6.8904                 1.0713
 Frc consts  --     16.0109                12.1954                 5.5537
 IR Inten    --    393.0022                33.7964                71.5211

                     61                     62                     63
                      A                      A                      A
 Frequencies --   3046.6434              3052.4361              3057.3626
 Red. masses --      1.0730                 1.0419                 1.0700
 Frc consts  --      5.8681                 5.7195                 5.8931
 IR Inten    --     15.7487                14.9065                15.4240

                     64                     65                     66
                      A                      A                      A
 Frequencies --   3071.0612              3111.8972              3117.1360
 Red. masses --      1.0890                 1.1006                 1.1003
 Frc consts  --      6.0512                 6.2797                 6.2990
 IR Inten    --     58.7352                 6.3154                44.3619

                     67                     68                     69
                      A                      A                      A
 Frequencies --   3130.7796              3234.5379              3252.1871
 Red. masses --      1.1017                 1.0880                 1.0996
 Frc consts  --      6.3626                 6.7069                 6.8523
 IR Inten    --     22.4283                 1.2644                 4.7704

                     70                     71                     72
                      A                      A                      A
 Frequencies --   3473.1286              3480.7772              3554.5376
 Red. masses --      1.0500                 1.0635                 1.0920
 Frc consts  --      7.4626                 7.5915                 8.1288
 IR Inten    --      2.1858               107.7409                 0.3669

 - Thermochemistry -
 -------------------
 Temperature   298.150 Kelvin.  Pressure   1.00000 Atm.
 Atom     1 has atomic number  6 and mass  12.00000

 Molecular mass:   183.08954 amu.
 Principal axes and moments of inertia in atomic units:
                           1         2         3
     Eigenvalues --  1302.376003535.957754203.72727
           X            0.99993   0.00961   0.00728
           Y           -0.00956   0.99993  -0.00698
           Z           -0.00735   0.00691   0.99995
 This molecule is an asymmetric top.
 Rotational symmetry number  1.
 Warning -- assumption of classical behavior for rotation
           may cause significant error
 Rotational temperatures (Kelvin)      0.06650     0.02450     0.02060
 Rotational constants (GHZ):           1.38573     0.51040     0.42932
 Zero-point vibrational energy     570886.1 (Joules/Mol)
                                  136.44506 (Kcal/Mol)
 Warning -- explicit consideration of  19 degrees of freedom as
           vibrations may cause significant error
 Vibrational temperatures:     43.03    96.05   101.22   164.99   221.46
          (Kelvin)            292.01   312.23   335.35   401.61   414.29
                              470.14   487.73   555.56   596.80   707.42
                              712.35   740.25   749.85   820.64   939.30
                              963.74  1036.70  1068.83  1152.12  1200.82
                             1237.12  1249.95  1273.79  1359.06  1359.49
                             1373.02  1459.58  1504.09  1557.83  1570.39
                             1601.54  1651.85  1722.55  1792.63  1799.96
                             1842.59  1874.09  1886.38  1943.14  1954.99
                             2004.90  2022.61  2068.17  2075.22  2098.50
                             2134.23  2163.83  2191.53  2207.88  2215.68
                             2351.22  2448.16  2470.17  2493.70  4267.71
                             4383.44  4391.77  4398.86  4418.57  4477.33
                             4484.86  4504.49  4653.78  4679.17  4997.06
                             5008.06  5114.19

 Zero-point correction=                           0.217439 (Hartree/Particle)
 Thermal correction to Energy=                    0.230253
 Thermal correction to Enthalpy=                  0.231198
 Thermal correction to Gibbs Free Energy=         0.177687
 Sum of electronic and zero-point Energies=           -631.006945
 Sum of electronic and thermal Energies=              -630.994131
 Sum of electronic and thermal Enthalpies=            -630.993187
 Sum of electronic and thermal Free Energies=         -631.046697

                     E (Thermal)             CV                S
                      KCal/Mol        Cal/Mol-Kelvin    Cal/Mol-Kelvin
 Total                  144.486             48.326            112.623
 Electronic               0.000              0.000              0.000
 Translational            0.889              2.981             41.521
 Rotational               0.889              2.981             31.338
 Vibrational            142.709             42.364             39.764
 Vibration     1          0.594              1.984              5.836
 Vibration     2          0.598              1.970              4.247
 Vibration     3          0.598              1.968              4.143
 Vibration     4          0.608              1.937              3.188
 Vibration     5          0.619              1.898              2.623
 Vibration     6          0.639              1.836              2.106
 Vibration     7          0.646              1.815              1.984
 Vibration     8          0.654              1.790              1.855
 Vibration     9          0.679              1.712              1.539
 Vibration    10          0.685              1.696              1.486
 Vibration    11          0.710              1.622              1.276
 Vibration    12          0.719              1.598              1.217
 Vibration    13          0.755              1.500              1.015
 Vibration    14          0.778              1.438              0.910
 Vibration    15          0.847              1.268              0.679
 Vibration    16          0.851              1.261              0.670
 Vibration    17          0.870              1.218              0.623
 Vibration    18          0.876              1.203              0.607
 Vibration    19          0.926              1.095              0.504

                           ! Non-Optimized Parameters !
 Normal termination of Gaussian 16 at Wed Dec  9 23:44:45 2020.

 ----------------------------------------------------------------------
 # B3LYP/6-311++G(d,p) empiricaldispersion=gd3bj scf=xqc pop=npa geom=c
 heck
 ----------------------------------------------------------------------

 ---------------------------------------
 CID_112712415_JID_3559_Energie_neutraal
 ---------------------------------------
 Structure from the checkpoint file:  "JID_3559.chk"
 Charge =  0 Multiplicity = 1

 SCF Done:  E(RB3LYP) =  -631.420819475     A.U. after   15 cycles
 Normal termination of Gaussian 16 at Wed Dec  9 23:47:38 2020.

 ----------------------------------------------------------------------
 # B3LYP/6-311++G(d,p) empiricaldispersion=gd3bj scf=xqc pop=npa geom=c
 heck
 ----------------------------------------------------------------------

 -------------------------------------
 CID_112712415_JID_3559_Energie_kation
 -------------------------------------
 Structure from the checkpoint file:  "JID_3559.chk"
 Charge =  1 Multiplicity = 2

 SCF Done:  E(UB3LYP) =  -631.113051394     A.U. after   23 cycles
 Normal termination of Gaussian 16 at Wed Dec  9 23:53:49 2020.
 Gaussian 16:  ES64L-G16RevA.03 25-Dec-2016

 ----------------------------------------------------------------------
 # B3LYP/6-311++G(d,p) empiricaldispersion=gd3bj scf=xqc pop=npa geom=c
 heck
 ----------------------------------------------------------------------

 ------------------------------------
 CID_112712415_JID_3559_Energie_anion
 ------------------------------------
 Structure from the checkpoint file:  "JID_3559.chk"
 Charge = -1 Multiplicity = 2

                         Standard orientation:
 ---------------------------------------------------------------------
 Center     Atomic      Atomic             Coordinates (Angstroms)
 Number     Number       Type             X           Y           Z
 ---------------------------------------------------------------------
      1          6           0       -1.847706   -1.595519   -0.693561
      2          6           0       -2.152478   -0.585720    0.419063
      3          6           0       -0.941518   -0.399742    1.369069
      4          6           0        0.303591    0.110865    0.721797
      5          6           0        1.330480   -0.635356    0.243212
      6          6           0        2.506888   -0.034540   -0.390507
      7          8           0        3.406950   -0.783542   -0.802389
      8          6           0        2.475877    1.409117   -0.462595
      9          6           0        1.414729    2.079502    0.041485
     10          8           0        0.357377    1.482393    0.618863
     11          8           0        1.347431   -1.984399    0.314173
     12          6           0       -2.643659    0.755120   -0.143802
     13          7           0       -3.923718    0.590200   -0.843009
     14          1           0       -1.098609   -1.200961   -1.390771
     15          1           0       -2.753178   -1.836242   -1.260221
     16          1           0       -1.450974   -2.529481   -0.283905
     17          1           0       -2.969568   -0.985866    1.033166
     18          1           0       -1.216970    0.287877    2.178348
     19          1           0       -0.702292   -1.366478    1.823522
     20          1           0        3.301622    1.944752   -0.915666
     21          1           0        1.303067    3.157239    0.038983
     22          1           0        2.212449   -2.215336   -0.100548
     23          1           0       -2.808934    1.450551    0.688273
     24          1           0       -1.849056    1.198040   -0.770154
     25          1           0       -4.303440    1.505777   -1.076656
     26          1           0       -3.769374    0.120744   -1.733444
 ---------------------------------------------------------------------

 SCF Done:  E(UB3LYP) =  -631.421785075     A.U. after   32 cycles

 The electronic state is 2-A.
 Alpha  occ. eigenvalues --  -19.05402 -19.02383 -18.94106 -14.18309 -10.10500
 Alpha  occ. eigenvalues --  -10.09934 -10.09521 -10.08838 -10.07435 -10.06111
 Alpha  occ. eigenvalues --  -10.05998 -10.04491 -10.04462  -0.98079  -0.94234
 Alpha  occ. eigenvalues --   -0.87006  -0.77396  -0.69984  -0.66301  -0.64904
 Alpha  occ. eigenvalues --   -0.57776  -0.55239  -0.52601  -0.48678  -0.44247
 Alpha  occ. eigenvalues --   -0.42453  -0.40448  -0.38603  -0.37151  -0.36453
 Alpha  occ. eigenvalues --   -0.33064  -0.32522  -0.32351  -0.31260  -0.29576
 Alpha  occ. eigenvalues --   -0.28742  -0.28108  -0.27693  -0.26231  -0.25067
 Alpha  occ. eigenvalues --   -0.23605  -0.23312  -0.22463  -0.21713  -0.21097
 Alpha  occ. eigenvalues --   -0.14215  -0.13296  -0.11847  -0.09917   0.04651
 Alpha virt. eigenvalues --    0.06955   0.08624   0.08711   0.09303   0.11068
 Alpha virt. eigenvalues --    0.11162   0.11450   0.11813   0.12177   0.12611
 Alpha virt. eigenvalues --    0.13354   0.14718   0.15006   0.15644   0.16375

  Beta  occ. eigenvalues --  -19.05125 -19.02412 -18.93751 -14.18270 -10.10185
  Beta  occ. eigenvalues --  -10.09704 -10.09612 -10.08530 -10.07420 -10.06082
  Beta  occ. eigenvalues --  -10.06016 -10.04567 -10.04477  -0.97583  -0.94238
  Beta  occ. eigenvalues --   -0.86384  -0.77335  -0.69770  -0.65980  -0.64675
  Beta  occ. eigenvalues --   -0.57701  -0.55135  -0.52462  -0.48224  -0.44083
  Beta  occ. eigenvalues --   -0.42272  -0.40276  -0.38511  -0.36882  -0.36256
  Beta  occ. eigenvalues --   -0.32637  -0.32241  -0.32010  -0.31150  -0.29401
  Beta  occ. eigenvalues --   -0.28633  -0.27725  -0.27113  -0.26151  -0.24934
  Beta  occ. eigenvalues --   -0.23388  -0.22909  -0.21749  -0.21534  -0.20964
  Beta  occ. eigenvalues --   -0.13613  -0.12706  -0.11572  -0.08840
  Beta virt. eigenvalues --    0.07405   0.08690   0.08840   0.09488   0.10578
  Beta virt. eigenvalues --    0.11100   0.11208   0.11613   0.11953   0.12795
  Beta virt. eigenvalues --    0.12895   0.13401   0.14886   0.15130   0.15659

 Mulliken charges and spin densities:
               1          2
     1  C   -0.495837  -0.247285
     2  C    0.167611   0.373984
     3  C   -0.334927  -0.169867
     4  C    0.055512   0.131761
     5  C    0.187751  -0.059636
     6  C   -0.645678   0.118044
     7  O   -0.486745   0.120800
     8  C    0.465305  -0.182479
     9  C   -0.281581   0.286548
    10  O   -0.016920   0.054984
    11  O   -0.270740   0.000484
    12  C    0.542938  -1.298943
    13  N   -0.409534   0.071048
    14  H    0.119953   0.058633
    15  H    0.049949   0.044491
    16  H    0.104629   0.031760
    17  H   -0.031710   0.224176
    18  H   -0.021528   0.194919
    19  H    0.184609   0.018040
    20  H    0.150951   0.005787
    21  H    0.023306   0.115953
    22  H    0.272027   0.001875
    23  H   -0.135310   0.300551
    24  H   -0.033477   0.194458
    25  H   -0.186127   0.421556
    26  H    0.025572   0.188357
 Sum of Mulliken charges =  -1.00000   1.00000

 Dipole moment (field-independent basis, Debye):
    X=              0.7172    Y=             -0.4143    Z=              1.5247  Tot=              1.7352
 Quadrupole moment (field-independent basis, Debye-Ang):
   XX=           -147.8590   YY=            -97.9336   ZZ=            -94.8956
   XY=             11.3541   XZ=              2.2482   YZ=              0.7522

 Summary of Natural Population Analysis:

                                       Natural Population
                Natural  -----------------------------------------------
    Atom  No    Charge         Core      Valence    Rydberg      Total
 -----------------------------------------------------------------------
      C    1   -0.29076      0.99965     2.28595    0.00516     3.29076
      C    2   -0.10611      0.99960     2.09600    0.01051     3.10611
      C    3   -0.21332      0.99959     2.20295    0.01078     3.21332
      C    4    0.18103      0.99937     1.80460    0.01500     2.81897
      C    5    0.07565      0.99932     1.91148    0.01355     2.92435
      C    6    0.24641      0.99956     1.73404    0.01999     2.75359
      O    7   -0.31307      0.99988     3.30636    0.00683     4.31307
      C    8   -0.20552      0.99954     2.19689    0.00909     3.20552
      C    9    0.15923      0.99950     1.82648    0.01479     2.84077
      O   10   -0.22264      0.99984     3.21401    0.00879     4.22264
      O   11   -0.35657      0.99988     3.34935    0.00735     4.35657
      C   12   -0.09012      0.99960     2.07787    0.01265     3.09012
      N   13   -0.42455      0.99977     2.91410    0.01068     3.92455
      H   14    0.10141      0.00000     0.39752    0.00107     0.39859
      H   15    0.09505      0.00000     0.40408    0.00087     0.40495
      H   16    0.10288      0.00000     0.39614    0.00098     0.39712
      H   17    0.09410      0.00000     0.40394    0.00196     0.40590
      H   18    0.10604      0.00000     0.39270    0.00126     0.39396
      H   19    0.10931      0.00000     0.38955    0.00114     0.39069
      H   20    0.10325      0.00000     0.39513    0.00163     0.39675
      H   21    0.08189      0.00000     0.41714    0.00097     0.41811
      H   22    0.24491      0.00000     0.25190    0.00319     0.25509
      H   23    0.09082      0.00000     0.40759    0.00159     0.40918
      H   24    0.08426      0.00000     0.41384    0.00190     0.41574
      H   25    0.17569      0.00000     0.32164    0.00267     0.32431
      H   26    0.17074      0.00000     0.32742    0.00184     0.32926
 =======================================================================
   * Total *   -0.00000     12.99510    35.83865    0.16625    49.00000

 Normal termination of Gaussian 16 at Thu Dec 10 00:02:27 2020.
