 Gaussian 16, Revision A.03,

 -----------------------------------------------------------
 # opt freq B3LYP/6-31G(d) empiricaldispersion=gd3bj scf=xqc
 -----------------------------------------------------------

 -------------------------------
 CID_113821429_JID_8025_neutraal
 -------------------------------
 Symbolic Z-matrix:
 Charge =  0 Multiplicity = 1

 SCF Done:  E(RB3LYP) =  -1217.60528043     A.U. after   15 cycles
 SCF Done:  E(RB3LYP) =  -1217.61356436     A.U. after   13 cycles
 SCF Done:  E(RB3LYP) =  -1217.61506898     A.U. after   13 cycles
 SCF Done:  E(RB3LYP) =  -1217.61606113     A.U. after   13 cycles
 SCF Done:  E(RB3LYP) =  -1217.61692166     A.U. after   12 cycles
 SCF Done:  E(RB3LYP) =  -1217.61707381     A.U. after   12 cycles
 SCF Done:  E(RB3LYP) =  -1217.61726560     A.U. after   12 cycles
 SCF Done:  E(RB3LYP) =  -1217.61758662     A.U. after   11 cycles
 SCF Done:  E(RB3LYP) =  -1217.61762407     A.U. after   12 cycles
 SCF Done:  E(RB3LYP) =  -1217.61780577     A.U. after   12 cycles
 SCF Done:  E(RB3LYP) =  -1217.61830361     A.U. after    9 cycles
 SCF Done:  E(RB3LYP) =  -1217.61830371     A.U. after    7 cycles
 SCF Done:  E(RB3LYP) =  -1217.61830387     A.U. after    7 cycles
 SCF Done:  E(RB3LYP) =  -1217.61830397     A.U. after    7 cycles
 SCF Done:  E(RB3LYP) =  -1217.61830401     A.U. after    7 cycles
 SCF Done:  E(RB3LYP) =  -1217.61830404     A.U. after    7 cycles
 Optimization completed.
    -- Stationary point found.
 Normal termination of Gaussian 16 at Fri Dec 11 18:54:07 2020.

 --------------------------------------------------------------------
 #N Geom=AllCheck Guess=TCheck SCRF=Check GenChk RB3LYP/6-31G(d) Freq
 --------------------------------------------------------------------

 Structure from the checkpoint file:  "JID_8025.chk"
 -------------------------------
 CID_113821429_JID_8025_neutraal
 -------------------------------
 Charge =  0 Multiplicity = 1

 SCF Done:  E(RB3LYP) =  -1217.61830404     A.U. after    1 cycles

  Exact polarizability: 195.257  17.101 155.742   3.148 -18.557 126.681
 Approx polarizability: 257.404  27.133 252.895   3.522 -49.827 196.410

                      1                      2                      3
                      A                      A                      A
 Frequencies --     12.4266                25.7519                32.6315
 Red. masses --      6.3923                 4.5071                 6.3035
 Frc consts  --      0.0006                 0.0018                 0.0040
 IR Inten    --      0.0713                 0.0291                 2.0956

                      4                      5                      6
                      A                      A                      A
 Frequencies --     45.6584                58.3063                70.0523
 Red. masses --      6.1172                 6.0657                 6.2481
 Frc consts  --      0.0075                 0.0121                 0.0181
 IR Inten    --      2.4331                 0.4845                 3.6761

                      7                      8                      9
                      A                      A                      A
 Frequencies --     82.0693                95.4856               116.9329
 Red. masses --      3.7032                 1.6356                 2.1646
 Frc consts  --      0.0147                 0.0088                 0.0174
 IR Inten    --      1.5411                 0.8101                 0.6799

                     10                     11                     12
                      A                      A                      A
 Frequencies --    139.4013               150.9280               183.2799
 Red. masses --      2.4274                 1.3429                 5.7654
 Frc consts  --      0.0278                 0.0180                 0.1141
 IR Inten    --      2.2110                 1.3353                 2.9468

                     13                     14                     15
                      A                      A                      A
 Frequencies --    223.8576               231.3640               240.1001
 Red. masses --      3.7779                 1.9159                 2.0124
 Frc consts  --      0.1115                 0.0604                 0.0684
 IR Inten    --      0.3630                 0.4180                 0.4431

                     16                     17                     18
                      A                      A                      A
 Frequencies --    248.4718               254.5614               289.7894
 Red. masses --      2.3282                 2.6204                 3.6462
 Frc consts  --      0.0847                 0.1000                 0.1804
 IR Inten    --      3.7238                 0.7919                 2.5040

                     19                     20                     21
                      A                      A                      A
 Frequencies --    323.3096               347.9163               385.4827
 Red. masses --      4.1091                 2.7975                 3.7920
 Frc consts  --      0.2531                 0.1995                 0.3320
 IR Inten    --      2.6309                19.3506                12.3424

                     22                     23                     24
                      A                      A                      A
 Frequencies --    405.6115               435.8487               447.5972
 Red. masses --      3.5989                 2.7521                 1.4854
 Frc consts  --      0.3489                 0.3080                 0.1753
 IR Inten    --     17.3737                 2.0079                48.9636

                     25                     26                     27
                      A                      A                      A
 Frequencies --    479.2077               525.9286               548.9505
 Red. masses --      2.8750                 2.2160                 5.0272
 Frc consts  --      0.3890                 0.3611                 0.8926
 IR Inten    --     52.2002                38.5617                 9.8754

                     28                     29                     30
                      A                      A                      A
 Frequencies --    561.0287               606.7563               611.6649
 Red. masses --      3.6648                 4.6754                 2.8618
 Frc consts  --      0.6796                 1.0141                 0.6308
 IR Inten    --      4.9411                17.7785                 8.7210

                     31                     32                     33
                      A                      A                      A
 Frequencies --    623.4714               631.6966               687.4043
 Red. masses --      3.0805                 4.5551                 2.1394
 Frc consts  --      0.7055                 1.0709                 0.5956
 IR Inten    --     11.8684                12.4533                37.3889

                     34                     35                     36
                      A                      A                      A
 Frequencies --    695.5495               715.3398               723.5596
 Red. masses --      1.3463                 2.5963                 5.6076
 Frc consts  --      0.3837                 0.7828                 1.7297
 IR Inten    --     34.5006                44.6909                10.0873

                     37                     38                     39
                      A                      A                      A
 Frequencies --    751.8203               814.4137               827.1007
 Red. masses --      4.8060                 2.9940                 3.9886
 Frc consts  --      1.6005                 1.1700                 1.6076
 IR Inten    --      0.2870                10.9138                 9.7575

                     40                     41                     42
                      A                      A                      A
 Frequencies --    864.4670               919.7597               951.7711
 Red. masses --      3.8101                 2.5611                 2.7093
 Frc consts  --      1.6776                 1.2765                 1.4460
 IR Inten    --     14.8525                10.9098                17.2821

                     43                     44                     45
                      A                      A                      A
 Frequencies --    979.2389               982.2624              1029.6784
 Red. masses --      2.0823                 2.4729                 3.3282
 Frc consts  --      1.1765                 1.4058                 2.0791
 IR Inten    --      1.1724                 0.1809                21.0423

                     46                     47                     48
                      A                      A                      A
 Frequencies --   1055.8700              1081.9037              1091.3408
 Red. masses --      2.6119                 1.6635                 1.3766
 Frc consts  --      1.7156                 1.1472                 0.9660
 IR Inten    --     16.9494                10.8738                 3.7528

                     49                     50                     51
                      A                      A                      A
 Frequencies --   1111.0624              1139.7561              1141.9763
 Red. masses --      2.6955                 1.2483                 2.1373
 Frc consts  --      1.9605                 0.9554                 1.6422
 IR Inten    --      3.8904                 5.0561               123.9811

                     52                     53                     54
                      A                      A                      A
 Frequencies --   1158.8854              1169.6151              1187.5073
 Red. masses --      1.5392                 1.6885                 1.3700
 Frc consts  --      1.2179                 1.3610                 1.1383
 IR Inten    --    100.2623               136.2077                 4.7009

                     55                     56                     57
                      A                      A                      A
 Frequencies --   1209.6344              1218.8074              1240.7471
 Red. masses --      1.8903                 1.7249                 1.8439
 Frc consts  --      1.6296                 1.5096                 1.6724
 IR Inten    --     45.7332                74.8116                24.1784

                     58                     59                     60
                      A                      A                      A
 Frequencies --   1253.9961              1289.6167              1327.5311
 Red. masses --      1.3366                 4.6986                 1.5993
 Frc consts  --      1.2384                 4.6041                 1.6607
 IR Inten    --     12.6757                46.8123                12.9775

                     61                     62                     63
                      A                      A                      A
 Frequencies --   1333.5422              1366.6774              1386.8205
 Red. masses --      1.9422                 1.9663                 1.8211
 Frc consts  --      2.0350                 2.1639                 2.0636
 IR Inten    --     46.3293                42.4735                 5.9888

                     64                     65                     66
                      A                      A                      A
 Frequencies --   1394.6912              1423.1359              1429.0332
 Red. masses --      1.3325                 1.3065                 1.9980
 Frc consts  --      1.5271                 1.5591                 2.4040
 IR Inten    --      2.1293                33.9326                51.1897

                     67                     68                     69
                      A                      A                      A
 Frequencies --   1452.1389              1462.4183              1492.9946
 Red. masses --      1.3237                 1.7325                 1.1179
 Frc consts  --      1.6446                 2.1831                 1.4682
 IR Inten    --     70.8231               210.8407                18.6033

                     70                     71                     72
                      A                      A                      A
 Frequencies --   1497.2240              1501.6913              1503.9689
 Red. masses --      1.3835                 1.1437                 1.1836
 Frc consts  --      1.8273                 1.5196                 1.5774
 IR Inten    --     25.2913                15.0514                78.9795

                     73                     74                     75
                      A                      A                      A
 Frequencies --   1513.8342              1528.2461              1530.7063
 Red. masses --      1.0890                 1.1518                 1.0800
 Frc consts  --      1.4704                 1.5850                 1.4909
 IR Inten    --     27.2068                21.0856                 5.6024

                     76                     77                     78
                      A                      A                      A
 Frequencies --   1532.3925              1535.4482              1569.2594
 Red. masses --      1.0455                 1.0613                 1.3336
 Frc consts  --      1.4465                 1.4743                 1.9349
 IR Inten    --      9.5183                10.7791                35.0078

                     79                     80                     81
                      A                      A                      A
 Frequencies --   1602.1121              1623.2544              1746.1948
 Red. masses --      7.6079                 9.2078                 8.7712
 Frc consts  --     11.5054                14.2948                15.7577
 IR Inten    --     92.9194               525.8509               257.0316

                     82                     83                     84
                      A                      A                      A
 Frequencies --   1844.9354              3034.1231              3042.3173
 Red. masses --      9.4594                 1.0422                 1.0406
 Frc consts  --     18.9703                 5.6531                 5.6746
 IR Inten    --    206.8105                27.0862                79.9977

                     85                     86                     87
                      A                      A                      A
 Frequencies --   3050.4590              3063.4437              3068.0752
 Red. masses --      1.0681                 1.0758                 1.0412
 Frc consts  --      5.8559                 5.9483                 5.7743
 IR Inten    --     17.4429                32.6382                18.2916

                     88                     89                     90
                      A                      A                      A
 Frequencies --   3070.8568              3085.0579              3089.9562
 Red. masses --      1.0649                 1.1012                 1.1049
 Frc consts  --      5.9166                 6.1750                 6.2157
 IR Inten    --     29.6568                46.7907                16.2411

                     91                     92                     93
                      A                      A                      A
 Frequencies --   3120.1918              3135.6229              3138.9252
 Red. masses --      1.0958                 1.0975                 1.1030
 Frc consts  --      6.2857                 6.3575                 6.4028
 IR Inten    --      1.6512                13.8872                30.7456

                     94                     95                     96
                      A                      A                      A
 Frequencies --   3156.8126              3194.6770              3199.8947
 Red. masses --      1.1036                 1.0943                 1.0963
 Frc consts  --      6.4796                 6.5801                 6.6139
 IR Inten    --      9.7268                 9.0108                 2.0912

                     97                     98                     99
                      A                      A                      A
 Frequencies --   3289.3916              3583.1137              3680.8223
 Red. masses --      1.0950                 1.0771                 1.0638
 Frc consts  --      6.9804                 8.1477                 8.4919
 IR Inten    --      2.7505               192.0328                40.8603

 - Thermochemistry -
 -------------------
 Temperature   298.150 Kelvin.  Pressure   1.00000 Atm.
 Atom     1 has atomic number  6 and mass  12.00000

 Molecular mass:   271.09906 amu.
 Principal axes and moments of inertia in atomic units:
                           1         2         3
     Eigenvalues --  2982.17090********************
           X            0.99992   0.01243   0.00213
           Y           -0.01242   0.99992  -0.00223
           Z           -0.00216   0.00221   1.00000
 This molecule is an asymmetric top.
 Rotational symmetry number  1.
 Warning -- assumption of classical behavior for rotation
           may cause significant error
 Rotational temperatures (Kelvin)      0.02904     0.00837     0.00742
 Rotational constants (GHZ):           0.60518     0.17447     0.15469
 Zero-point vibrational energy     749643.6 (Joules/Mol)
                                  179.16911 (Kcal/Mol)
 Warning -- explicit consideration of  30 degrees of freedom as
           vibrations may cause significant error
 Vibrational temperatures:     17.88    37.05    46.95    65.69    83.89
          (Kelvin)            100.79   118.08   137.38   168.24   200.57
                              217.15   263.70   322.08   332.88   345.45
                              357.50   366.26   416.94   465.17   500.57
                              554.62   583.58   627.09   643.99   689.47
                              756.69   789.82   807.20   872.99   880.05
                              897.04   908.87   989.02  1000.74  1029.21
                             1041.04  1081.70  1171.76  1190.01  1243.78
                             1323.33  1369.39  1408.91  1413.26  1481.48
                             1519.16  1556.62  1570.20  1598.57  1639.85
                             1643.05  1667.38  1682.82  1708.56  1740.39
                             1753.59  1785.16  1804.22  1855.47  1910.02
                             1918.67  1966.34  1995.33  2006.65  2047.58
                             2056.06  2089.30  2104.09  2148.09  2154.17
                             2160.60  2163.88  2178.07  2198.81  2202.34
                             2204.77  2209.17  2257.81  2305.08  2335.50
                             2512.38  2654.45  4365.43  4377.22  4388.93
                             4407.61  4414.28  4418.28  4438.71  4445.76
                             4489.26  4511.46  4516.21  4541.95  4596.43
                             4603.93  4732.70  5155.30  5295.88

 Zero-point correction=                           0.285524 (Hartree/Particle)
 Thermal correction to Energy=                    0.305226
 Thermal correction to Enthalpy=                  0.306170
 Thermal correction to Gibbs Free Energy=         0.233753
 Sum of electronic and zero-point Energies=          -1217.332780
 Sum of electronic and thermal Energies=             -1217.313078
 Sum of electronic and thermal Enthalpies=           -1217.312134
 Sum of electronic and thermal Free Energies=        -1217.384551

                     E (Thermal)             CV                S
                      KCal/Mol        Cal/Mol-Kelvin    Cal/Mol-Kelvin
 Total                  191.532             70.506            152.415
 Electronic               0.000              0.000              0.000
 Translational            0.889              2.981             42.691
 Rotational               0.889              2.981             34.242
 Vibrational            189.755             64.544             75.483
 Vibration     1          0.593              1.987              7.579
 Vibration     2          0.593              1.985              6.132
 Vibration     3          0.594              1.983              5.663
 Vibration     4          0.595              1.979              4.997
 Vibration     5          0.596              1.974              4.514
 Vibration     6          0.598              1.968              4.152
 Vibration     7          0.600              1.961              3.841
 Vibration     8          0.603              1.952              3.544
 Vibration     9          0.608              1.935              3.150
 Vibration    10          0.615              1.914              2.812
 Vibration    11          0.618              1.902              2.660
 Vibration    12          0.631              1.863              2.295
 Vibration    13          0.649              1.805              1.928
 Vibration    14          0.653              1.793              1.868
 Vibration    15          0.657              1.779              1.802
 Vibration    16          0.662              1.765              1.741
 Vibration    17          0.665              1.755              1.699
 Vibration    18          0.686              1.693              1.475
 Vibration    19          0.708              1.629              1.293
 Vibration    20          0.726              1.580              1.176
 Vibration    21          0.754              1.501              1.018
 Vibration    22          0.771              1.458              0.942
 Vibration    23          0.796              1.392              0.840
 Vibration    24          0.807              1.366              0.803
 Vibration    25          0.836              1.296              0.712
 Vibration    26          0.881              1.193              0.596
 Vibration    27          0.904              1.142              0.546
 Vibration    28          0.917              1.116              0.522
 Vibration    29          0.965              1.017              0.438
 Vibration    30          0.971              1.007              0.430

 Optimization completed.
    -- Stationary point found.
 Normal termination of Gaussian 16 at Fri Dec 11 19:08:29 2020.

 ----------------------------------------------------------------------
 # B3LYP/6-311++G(d,p) empiricaldispersion=gd3bj scf=xqc pop=npa geom=c
 heck
 ----------------------------------------------------------------------

 ---------------------------------------
 CID_113821429_JID_8025_Energie_neutraal
 ---------------------------------------
 Structure from the checkpoint file:  "JID_8025.chk"
 Charge =  0 Multiplicity = 1

 SCF Done:  E(RB3LYP) =  -1217.89011108     A.U. after   16 cycles
 Normal termination of Gaussian 16 at Fri Dec 11 19:14:16 2020.

 ----------------------------------------------------------------------
 # B3LYP/6-311++G(d,p) empiricaldispersion=gd3bj scf=xqc pop=npa geom=c
 heck
 ----------------------------------------------------------------------

 -------------------------------------
 CID_113821429_JID_8025_Energie_kation
 -------------------------------------
 Structure from the checkpoint file:  "JID_8025.chk"
 Charge =  1 Multiplicity = 2

 SCF Done:  E(UB3LYP) =  -1217.62281210     A.U. after   24 cycles
 Normal termination of Gaussian 16 at Fri Dec 11 19:26:12 2020.
 Gaussian 16:  ES64L-G16RevA.03 25-Dec-2016

 ----------------------------------------------------------------------
 # B3LYP/6-311++G(d,p) empiricaldispersion=gd3bj scf=xqc pop=npa geom=c
 heck
 ----------------------------------------------------------------------

 ------------------------------------
 CID_113821429_JID_8025_Energie_anion
 ------------------------------------
 Structure from the checkpoint file:  "JID_8025.chk"
 Charge = -1 Multiplicity = 2

                         Standard orientation:
 ---------------------------------------------------------------------
 Center     Atomic      Atomic             Coordinates (Angstroms)
 Number     Number       Type             X           Y           Z
 ---------------------------------------------------------------------
      1          6           0       -2.284942    0.334795    1.966256
      2          6           0       -1.988662    0.130069    0.469231
      3          6           0       -3.285281    0.100031   -0.356916
      4          8           0       -3.593435    1.081207   -1.035600
      5          7           0       -4.076642   -1.008579   -0.276994
      6          6           0       -3.769260   -2.222931    0.459031
      7          6           0       -5.364851   -1.004650   -0.956941
      8          7           0       -1.198412    1.224258   -0.058419
      9          6           0        0.149039    1.241724    0.077633
     10          7           0        0.826089    0.382966    0.796765
     11          6           0        2.184425    0.669494    0.758335
     12          6           0        2.547247    1.743810    0.008874
     13         16           0        1.132012    2.490327   -0.713307
     14          6           0        3.123271   -0.249075    1.485287
     15          6           0        3.238509   -1.607208    0.778354
     16          6           0        4.003068   -1.499007   -0.522542
     17          8           0        4.834829   -0.659047   -0.788446
     18          8           0        3.676399   -2.494385   -1.384001
     19          1           0       -2.855680    1.257606    2.107307
     20          1           0       -1.335012    0.417847    2.499835
     21          1           0       -2.854223   -0.497884    2.390947
     22          1           0       -1.413762   -0.793966    0.340815
     23          1           0       -4.410691   -2.322286    1.345161
     24          1           0       -3.943783   -3.092148   -0.186400
     25          1           0       -2.729489   -2.244572    0.778630
     26          1           0       -5.493616   -0.042635   -1.449306
     27          1           0       -5.403077   -1.808068   -1.703046
     28          1           0       -6.175244   -1.162549   -0.234077
     29          1           0       -1.679543    1.810445   -0.730346
     30          1           0        3.539922    2.119416   -0.189396
     31          1           0        4.114480    0.206067    1.553907
     32          1           0        2.750148   -0.411996    2.502659
     33          1           0        3.777914   -2.327038    1.409201
     34          1           0        2.248832   -2.030002    0.584518
     35          1           0        4.235657   -2.358480   -2.172195
 ---------------------------------------------------------------------

 SCF Done:  E(UB3LYP) =  -1217.88330619     A.U. after   32 cycles

 The electronic state is 2-A.
 Alpha  occ. eigenvalues --  -88.79051 -19.08829 -19.03338 -19.00913 -14.26549
 Alpha  occ. eigenvalues --  -14.25182 -14.21194 -10.22347 -10.19229 -10.18525
 Alpha  occ. eigenvalues --  -10.13922 -10.12023 -10.11512 -10.10858 -10.10353
 Alpha  occ. eigenvalues --  -10.10190 -10.09570 -10.08000  -7.87691  -5.84000
 Alpha  occ. eigenvalues --   -5.83656  -5.83215  -1.02817  -0.96361  -0.93893
 Alpha  occ. eigenvalues --   -0.89926  -0.85636  -0.83533  -0.72325  -0.70798
 Alpha  occ. eigenvalues --   -0.69256  -0.64409  -0.63716  -0.61662  -0.58651
 Alpha  occ. eigenvalues --   -0.55559  -0.52358  -0.50820  -0.47434  -0.45373
 Alpha  occ. eigenvalues --   -0.44233  -0.42087  -0.41287  -0.40694  -0.40437
 Alpha  occ. eigenvalues --   -0.39342  -0.38920  -0.37779  -0.36063  -0.35230
 Alpha  occ. eigenvalues --   -0.34022  -0.33444  -0.32588  -0.32343  -0.32148
 Alpha  occ. eigenvalues --   -0.31716  -0.31142  -0.30066  -0.29861  -0.29482
 Alpha  occ. eigenvalues --   -0.28593  -0.27874  -0.27654  -0.26248  -0.24544
 Alpha  occ. eigenvalues --   -0.21822  -0.20360  -0.19374  -0.18972  -0.18328
 Alpha  occ. eigenvalues --   -0.16496  -0.11951   0.03606
 Alpha virt. eigenvalues --    0.05052   0.06172   0.06929   0.07281   0.07456
 Alpha virt. eigenvalues --    0.07889   0.08018   0.08553   0.09044   0.09259
 Alpha virt. eigenvalues --    0.09740   0.10390   0.10610   0.10828   0.11089

  Beta  occ. eigenvalues --  -88.79050 -19.08799 -19.03326 -19.00907 -14.26547
  Beta  occ. eigenvalues --  -14.25182 -14.21185 -10.22329 -10.19222 -10.18524
  Beta  occ. eigenvalues --  -10.13916 -10.12023 -10.11447 -10.10816 -10.10347
  Beta  occ. eigenvalues --  -10.10167 -10.09563 -10.07982  -7.87689  -5.83997
  Beta  occ. eigenvalues --   -5.83655  -5.83214  -1.02768  -0.96351  -0.93855
  Beta  occ. eigenvalues --   -0.89919  -0.85619  -0.83526  -0.72300  -0.70785
  Beta  occ. eigenvalues --   -0.69234  -0.64372  -0.63642  -0.61602  -0.58612
  Beta  occ. eigenvalues --   -0.55524  -0.52345  -0.50760  -0.47388  -0.45355
  Beta  occ. eigenvalues --   -0.44197  -0.42049  -0.41251  -0.40662  -0.40412
  Beta  occ. eigenvalues --   -0.39298  -0.38877  -0.37741  -0.36035  -0.35201
  Beta  occ. eigenvalues --   -0.33999  -0.33420  -0.32565  -0.32308  -0.32094
  Beta  occ. eigenvalues --   -0.31667  -0.31115  -0.30029  -0.29822  -0.29451
  Beta  occ. eigenvalues --   -0.28570  -0.27854  -0.27630  -0.26230  -0.24497
  Beta  occ. eigenvalues --   -0.21807  -0.20336  -0.19355  -0.18961  -0.18317
  Beta  occ. eigenvalues --   -0.16461  -0.11937
  Beta virt. eigenvalues --    0.05644   0.06268   0.06672   0.07152   0.07393
  Beta virt. eigenvalues --    0.07809   0.08166   0.08495   0.08892   0.09225
  Beta virt. eigenvalues --    0.09457   0.09892   0.10752   0.10796   0.11135

 Mulliken charges and spin densities:
               1          2
     1  C    0.204876  -0.570620
     2  C   -0.716414   0.489248
     3  C   -0.223265   0.097621
     4  O   -0.364571   0.007498
     5  N   -0.253623   0.260783
     6  C    1.312995  -1.709644
     7  C    0.866278  -1.111334
     8  N    0.095917   0.011683
     9  C    0.049302   0.104966
    10  N    0.112756   0.045695
    11  C   -0.176684  -0.254548
    12  C    0.244538  -0.258755
    13  S   -0.525304   0.039427
    14  C   -0.735070   0.286174
    15  C    0.420420  -0.562239
    16  C   -0.047063  -0.153727
    17  O   -0.287153   0.005466
    18  O   -0.143708   0.030363
    19  H    0.068328   0.087713
    20  H    0.081994   0.098665
    21  H   -0.098384   0.249652
    22  H    0.500829  -0.205969
    23  H   -0.542582   0.739643
    24  H   -0.330246   0.488141
    25  H   -0.397080   0.545417
    26  H    0.053019   0.125110
    27  H   -0.197587   0.352917
    28  H   -0.354361   0.509863
    29  H    0.296626   0.027115
    30  H    0.206259   0.062012
    31  H    0.142959   0.038915
    32  H    0.078050   0.084349
    33  H   -0.385528   0.576082
    34  H    0.120218   0.109731
    35  H   -0.076743   0.352585
 Sum of Mulliken charges =  -1.00000   1.00000

 Dipole moment (field-independent basis, Debye):
    X=              4.9856    Y=              6.4339    Z=             -0.4389  Tot=              8.1513
 Quadrupole moment (field-independent basis, Debye-Ang):
   XX=           -231.4049   YY=           -165.8462   ZZ=           -148.6367
   XY=            -10.9254   XZ=              6.3262   YZ=              3.9280

 Summary of Natural Population Analysis:

                                       Natural Population
                Natural  -----------------------------------------------
    Atom  No    Charge         Core      Valence    Rydberg      Total
 -----------------------------------------------------------------------
      C    1   -0.28683      0.99964     2.28131    0.00588     3.28683
      C    2   -0.04875      0.99958     2.03709    0.01208     3.04875
      C    3    0.34815      0.99961     1.62920    0.02304     2.65185
      O    4   -0.33962      0.99988     3.33476    0.00499     4.33962
      N    5   -0.24486      0.99965     2.73451    0.01069     3.74486
      C    6   -0.17565      0.99963     2.16796    0.00806     3.17565
      C    7   -0.17918      0.99963     2.17151    0.00804     3.17918
      N    8   -0.31836      0.99963     2.80749    0.01124     3.81836
      C    9    0.15289      0.99960     1.82906    0.01845     2.84711
      N   10   -0.29005      0.99963     2.78026    0.01016     3.79005
      C   11    0.06862      0.99948     1.91667    0.01523     2.93138
      C   12   -0.21209      0.99942     2.20363    0.00904     3.21209
      S   13    0.15015      4.99948     2.83103    0.01935     7.84985
      C   14   -0.20108      0.99958     2.19044    0.01106     3.20108
      C   15   -0.23669      0.99957     2.22870    0.00841     3.23669
      C   16    0.41011      0.99972     1.56446    0.02571     2.58989
      O   17   -0.31112      0.99987     3.30492    0.00633     4.31112
      O   18   -0.34225      0.99988     3.33613    0.00624     4.34225
      H   19    0.10020      0.00000     0.39875    0.00104     0.39980
      H   20    0.11036      0.00000     0.38849    0.00115     0.38964
      H   21    0.10363      0.00000     0.39536    0.00102     0.39637
      H   22    0.11099      0.00000     0.38628    0.00273     0.38901
      H   23    0.10013      0.00000     0.39619    0.00368     0.39987
      H   24    0.10104      0.00000     0.39688    0.00207     0.39896
      H   25    0.10307      0.00000     0.39526    0.00167     0.39693
      H   26    0.11435      0.00000     0.38464    0.00102     0.38565
      H   27    0.09585      0.00000     0.40299    0.00116     0.40415
      H   28    0.09750      0.00000     0.40092    0.00157     0.40250
      H   29    0.21146      0.00000     0.28647    0.00207     0.28854
      H   30    0.11525      0.00000     0.38371    0.00103     0.38475
      H   31    0.10905      0.00000     0.38984    0.00111     0.39095
      H   32    0.10894      0.00000     0.38998    0.00109     0.39106
      H   33    0.11620      0.00000     0.38216    0.00164     0.38380
      H   34    0.11873      0.00000     0.37958    0.00168     0.38127
      H   35    0.23985      0.00000     0.25505    0.00511     0.26015
 =======================================================================
   * Total *   -0.00000     21.99347    49.76170    0.24483    72.00000

 Normal termination of Gaussian 16 at Fri Dec 11 19:42:05 2020.
