 Gaussian 16, Revision A.03,

 -----------------------------------------------------------
 # opt freq B3LYP/6-31G(d) empiricaldispersion=gd3bj scf=xqc
 -----------------------------------------------------------

 -------------------------------
 CID_114966684_JID_5538_neutraal
 -------------------------------
 Symbolic Z-matrix:
 Charge =  0 Multiplicity = 1

 SCF Done:  E(RB3LYP) =  -980.916739613     A.U. after   15 cycles
 SCF Done:  E(RB3LYP) =  -980.919962859     A.U. after   13 cycles
 SCF Done:  E(RB3LYP) =  -980.919585080     A.U. after   13 cycles
 SCF Done:  E(RB3LYP) =  -980.920478535     A.U. after   12 cycles
 SCF Done:  E(RB3LYP) =  -980.920593391     A.U. after   11 cycles
 SCF Done:  E(RB3LYP) =  -980.920622252     A.U. after   11 cycles
 SCF Done:  E(RB3LYP) =  -980.920631065     A.U. after    9 cycles
 SCF Done:  E(RB3LYP) =  -980.920647556     A.U. after   11 cycles
 SCF Done:  E(RB3LYP) =  -980.920660375     A.U. after   10 cycles
 SCF Done:  E(RB3LYP) =  -980.920690013     A.U. after   10 cycles
 SCF Done:  E(RB3LYP) =  -980.920915834     A.U. after    9 cycles
 SCF Done:  E(RB3LYP) =  -980.920915910     A.U. after    7 cycles
 SCF Done:  E(RB3LYP) =  -980.920915946     A.U. after    7 cycles
 SCF Done:  E(RB3LYP) =  -980.920915955     A.U. after    6 cycles
 SCF Done:  E(RB3LYP) =  -980.920915949     A.U. after    6 cycles
 Optimization completed on the basis of negligible forces.
    -- Stationary point found.
 Normal termination of Gaussian 16 at Thu Dec 10 16:43:36 2020.

 --------------------------------------------------------------------
 #N Geom=AllCheck Guess=TCheck SCRF=Check GenChk RB3LYP/6-31G(d) Freq
 --------------------------------------------------------------------

 Structure from the checkpoint file:  "JID_5538.chk"
 -------------------------------
 CID_114966684_JID_5538_neutraal
 -------------------------------
 Charge =  0 Multiplicity = 1

 SCF Done:  E(RB3LYP) =  -980.920915949     A.U. after    1 cycles

  Exact polarizability: 195.286 -16.991 160.908  16.558   8.660 114.907
 Approx polarizability: 258.728 -32.227 272.986  30.850  27.343 182.504

                      1                      2                      3
                      A                      A                      A
 Frequencies --     20.0557                20.8581                29.4176
 Red. masses --      1.0755                 3.2712                 3.7141
 Frc consts  --      0.0003                 0.0008                 0.0019
 IR Inten    --      0.3827                 0.6748                 0.1721

                      4                      5                      6
                      A                      A                      A
 Frequencies --     39.2212                70.5425                73.1002
 Red. masses --      3.3557                 2.9400                 1.0615
 Frc consts  --      0.0030                 0.0086                 0.0033
 IR Inten    --      0.0688                 0.4923                 0.0188

                      7                      8                      9
                      A                      A                      A
 Frequencies --    107.0278               113.4065               119.5133
 Red. masses --      3.0707                 4.4804                 3.9405
 Frc consts  --      0.0207                 0.0340                 0.0332
 IR Inten    --      1.3486                 0.0563                 1.4175

                     10                     11                     12
                      A                      A                      A
 Frequencies --    181.3817               203.2753               216.2967
 Red. masses --      2.2196                 3.4476                 2.0368
 Frc consts  --      0.0430                 0.0839                 0.0561
 IR Inten    --      3.3273                 0.2766                 0.8238

                     13                     14                     15
                      A                      A                      A
 Frequencies --    244.3397               265.2251               290.2228
 Red. masses --      2.4474                 1.9909                 3.1241
 Frc consts  --      0.0861                 0.0825                 0.1550
 IR Inten    --      0.1275                 2.8283                 2.1887

                     16                     17                     18
                      A                      A                      A
 Frequencies --    302.5050               316.9880               357.1934
 Red. masses --      2.1725                 3.0894                 3.8720
 Frc consts  --      0.1171                 0.1829                 0.2911
 IR Inten    --      1.5658                 0.1345                 5.8987

                     19                     20                     21
                      A                      A                      A
 Frequencies --    365.7630               422.0347               469.8231
 Red. masses --      2.1172                 1.9132                 5.7285
 Frc consts  --      0.1669                 0.2008                 0.7450
 IR Inten    --      2.3169                 0.9696                 0.7366

                     22                     23                     24
                      A                      A                      A
 Frequencies --    486.1507               518.4061               536.2412
 Red. masses --      4.7543                 2.4588                 5.2837
 Frc consts  --      0.6620                 0.3893                 0.8952
 IR Inten    --      2.9846                 3.0630                 1.4369

                     25                     26                     27
                      A                      A                      A
 Frequencies --    601.7907               617.9021               671.6935
 Red. masses --      3.5812                 3.1362                 3.5848
 Frc consts  --      0.7641                 0.7055                 0.9529
 IR Inten    --     10.6373                 1.6440                 2.0621

                     28                     29                     30
                      A                      A                      A
 Frequencies --    708.1944               739.6176               749.1635
 Red. masses --      1.7345                 1.6253                 4.6422
 Frc consts  --      0.5125                 0.5238                 1.5351
 IR Inten    --      2.2908                14.1965                 1.0184

                     31                     32                     33
                      A                      A                      A
 Frequencies --    782.7334               832.6783               854.3743
 Red. masses --      2.5440                 1.7672                 1.8486
 Frc consts  --      0.9183                 0.7219                 0.7950
 IR Inten    --      9.3735                 4.1688                13.8523

                     34                     35                     36
                      A                      A                      A
 Frequencies --    868.2124               896.8219               910.6821
 Red. masses --      1.6548                 2.3873                 1.9967
 Frc consts  --      0.7349                 1.1313                 0.9757
 IR Inten    --      4.9241                 0.2486                 9.1845

                     37                     38                     39
                      A                      A                      A
 Frequencies --    952.3424               956.3727              1012.1509
 Red. masses --      2.2202                 1.9862                 1.7414
 Frc consts  --      1.1864                 1.0703                 1.0511
 IR Inten    --     25.5455                 2.4335                 2.3057

                     40                     41                     42
                      A                      A                      A
 Frequencies --   1016.3114              1032.0177              1045.6820
 Red. masses --      1.4290                 1.6009                 1.3703
 Frc consts  --      0.8696                 1.0046                 0.8828
 IR Inten    --     14.5655                 1.6086                 2.2522

                     43                     44                     45
                      A                      A                      A
 Frequencies --   1056.9200              1078.1543              1100.1688
 Red. masses --      1.7512                 1.4976                 1.9300
 Frc consts  --      1.1526                 1.0257                 1.3764
 IR Inten    --      1.7884                 0.4160                 0.2362

                     46                     47                     48
                      A                      A                      A
 Frequencies --   1125.7461              1136.7480              1145.0299
 Red. masses --      1.7554                 2.0242                 1.9682
 Frc consts  --      1.3107                 1.5411                 1.5204
 IR Inten    --      5.0415                 3.4086                 4.1918

                     49                     50                     51
                      A                      A                      A
 Frequencies --   1208.7419              1213.2962              1214.8652
 Red. masses --      1.9358                 2.6138                 1.4102
 Frc consts  --      1.6664                 2.2670                 1.2263
 IR Inten    --     16.1242                 9.1795                13.4622

                     52                     53                     54
                      A                      A                      A
 Frequencies --   1235.2668              1271.7902              1283.1470
 Red. masses --      1.4002                 1.8465                 1.8062
 Frc consts  --      1.2588                 1.7597                 1.7522
 IR Inten    --     61.8431                77.9682                58.4185

                     55                     56                     57
                      A                      A                      A
 Frequencies --   1311.8893              1345.1353              1380.5603
 Red. masses --      1.2333                 1.1304                 1.4995
 Frc consts  --      1.2506                 1.2051                 1.6839
 IR Inten    --      8.1950                 6.5165                 4.8830

                     58                     59                     60
                      A                      A                      A
 Frequencies --   1388.4718              1399.4586              1418.9118
 Red. masses --      1.4457                 1.4975                 1.9409
 Frc consts  --      1.6421                 1.7279                 2.3023
 IR Inten    --      9.9102                 6.3365                12.0613

                     61                     62                     63
                      A                      A                      A
 Frequencies --   1419.1268              1420.7473              1441.3627
 Red. masses --      1.4960                 1.7219                 1.3803
 Frc consts  --      1.7752                 2.0478                 1.6895
 IR Inten    --      1.5483                 5.7468                 7.5680

                     64                     65                     66
                      A                      A                      A
 Frequencies --   1444.0162              1448.6979              1491.9864
 Red. masses --      1.2731                 1.2911                 3.9272
 Frc consts  --      1.5640                 1.5965                 5.1507
 IR Inten    --      4.0800                 2.1779               126.4864

                     67                     68                     69
                      A                      A                      A
 Frequencies --   1501.0967              1505.7703              1512.3788
 Red. masses --      1.1501                 1.0438                 1.1026
 Frc consts  --      1.5269                 1.3943                 1.4859
 IR Inten    --      8.6793                 1.6800                10.7818

                     70                     71                     72
                      A                      A                      A
 Frequencies --   1517.6465              1518.2541              1520.4813
 Red. masses --      1.0437                 1.0747                 1.0677
 Frc consts  --      1.4163                 1.4595                 1.4543
 IR Inten    --     13.9734                 7.2894                 6.1017

                     73                     74                     75
                      A                      A                      A
 Frequencies --   1528.2661              1530.5992              1531.0796
 Red. masses --      1.0598                 1.1457                 1.1233
 Frc consts  --      1.4584                 1.5813                 1.5514
 IR Inten    --      7.4201                27.7372                14.5888

                     76                     77                     78
                      A                      A                      A
 Frequencies --   1536.6260              1543.7132              1607.3649
 Red. masses --      1.0658                 1.0786                 5.6298
 Frc consts  --      1.4828                 1.5144                 8.5698
 IR Inten    --      6.1131                 3.2127                10.4220

                     79                     80                     81
                      A                      A                      A
 Frequencies --   1738.8397              3031.0935              3032.2109
 Red. masses --     11.1102                 1.0644                 1.0627
 Frc consts  --     19.7921                 5.7618                 5.7567
 IR Inten    --    206.4883                17.4957                25.4513

                     82                     83                     84
                      A                      A                      A
 Frequencies --   3040.2199              3041.5970              3044.0289
 Red. masses --      1.0380                 1.0385                 1.0437
 Frc consts  --      5.6526                 5.6603                 5.6982
 IR Inten    --     51.9016                12.6204                18.8693

                     85                     86                     87
                      A                      A                      A
 Frequencies --   3048.4908              3050.9134              3060.5969
 Red. masses --      1.0576                 1.0664                 1.0711
 Frc consts  --      5.7908                 5.8485                 5.9113
 IR Inten    --     17.6688                16.0259                12.0541

                     88                     89                     90
                      A                      A                      A
 Frequencies --   3061.6502              3070.5656              3085.2094
 Red. masses --      1.0955                 1.0953                 1.0994
 Frc consts  --      6.0505                 6.0846                 6.1656
 IR Inten    --     22.0624                50.8982                94.2281

                     91                     92                     93
                      A                      A                      A
 Frequencies --   3087.7539              3092.3553              3103.3615
 Red. masses --      1.1013                 1.1010                 1.0993
 Frc consts  --      6.1865                 6.2032                 6.2378
 IR Inten    --     32.8331                 0.1203                13.7473

                     94                     95                     96
                      A                      A                      A
 Frequencies --   3109.4993              3117.0252              3125.5220
 Red. masses --      1.1017                 1.1019                 1.0946
 Frc consts  --      6.2761                 6.3076                 6.3003
 IR Inten    --     46.8718                47.5829                28.9815

                     97                     98                     99
                      A                      A                      A
 Frequencies --   3128.9495              3137.0679              3222.5030
 Red. masses --      1.0999                 1.0995                 1.0920
 Frc consts  --      6.3445                 6.3752                 6.6815
 IR Inten    --     16.2232                 8.1547                 8.2232

 - Thermochemistry -
 -------------------
 Temperature   298.150 Kelvin.  Pressure   1.00000 Atm.
 Atom     1 has atomic number  6 and mass  12.00000

 Molecular mass:   224.12349 amu.
 Principal axes and moments of inertia in atomic units:
                           1         2         3
     Eigenvalues --  2091.373196568.101897869.11764
           X            0.99997  -0.00759  -0.00095
           Y            0.00759   0.99997   0.00141
           Z            0.00094  -0.00142   1.00000
 This molecule is an asymmetric top.
 Rotational symmetry number  1.
 Warning -- assumption of classical behavior for rotation
           may cause significant error
 Rotational temperatures (Kelvin)      0.04141     0.01319     0.01101
 Rotational constants (GHZ):           0.86295     0.27477     0.22934
 Zero-point vibrational energy     800186.3 (Joules/Mol)
                                  191.24911 (Kcal/Mol)
 Warning -- explicit consideration of  26 degrees of freedom as
           vibrations may cause significant error
 Vibrational temperatures:     28.86    30.01    42.33    56.43   101.49
          (Kelvin)            105.17   153.99   163.17   171.95   260.97
                              292.47   311.20   351.55   381.60   417.57
                              435.24   456.08   513.92   526.25   607.21
                              675.97   699.46   745.87   771.53   865.84
                              889.02   966.42  1018.93  1064.14  1077.88
                             1126.18  1198.04  1229.25  1249.16  1290.33
                             1310.27  1370.21  1376.01  1456.26  1462.25
                             1484.84  1504.50  1520.67  1551.22  1582.90
                             1619.70  1635.53  1647.44  1739.11  1745.66
                             1747.92  1777.27  1829.82  1846.16  1887.52
                             1935.35  1986.32  1997.70  2013.51  2041.50
                             2041.81  2044.14  2073.80  2077.62  2084.35
                             2146.64  2159.74  2166.47  2175.98  2183.55
                             2184.43  2187.63  2198.83  2202.19  2202.88
                             2210.86  2221.06  2312.64  2501.80  4361.07
                             4362.68  4374.20  4376.18  4379.68  4386.10
                             4389.58  4403.52  4405.03  4417.86  4438.93
                             4442.59  4449.21  4465.05  4473.88  4484.70
                             4496.93  4501.86  4513.54  4636.46

 Zero-point correction=                           0.304775 (Hartree/Particle)
 Thermal correction to Energy=                    0.322333
 Thermal correction to Enthalpy=                  0.323277
 Thermal correction to Gibbs Free Energy=         0.255993
 Sum of electronic and zero-point Energies=           -980.616141
 Sum of electronic and thermal Energies=              -980.598583
 Sum of electronic and thermal Enthalpies=            -980.597638
 Sum of electronic and thermal Free Energies=         -980.664923

                     E (Thermal)             CV                S
                      KCal/Mol        Cal/Mol-Kelvin    Cal/Mol-Kelvin
 Total                  202.267             62.863            141.612
 Electronic               0.000              0.000              0.000
 Translational            0.889              2.981             42.124
 Rotational               0.889              2.981             33.047
 Vibrational            200.490             56.901             66.442
 Vibration     1          0.593              1.986              6.629
 Vibration     2          0.593              1.986              6.551
 Vibration     3          0.593              1.984              5.868
 Vibration     4          0.594              1.981              5.298
 Vibration     5          0.598              1.968              4.138
 Vibration     6          0.599              1.967              4.068
 Vibration     7          0.606              1.944              3.322
 Vibration     8          0.607              1.938              3.210
 Vibration     9          0.609              1.933              3.108
 Vibration    10          0.630              1.865              2.314
 Vibration    11          0.639              1.835              2.103
 Vibration    12          0.645              1.816              1.990
 Vibration    13          0.660              1.772              1.771
 Vibration    14          0.671              1.737              1.627
 Vibration    15          0.686              1.692              1.473
 Vibration    16          0.694              1.669              1.403
 Vibration    17          0.704              1.641              1.326
 Vibration    18          0.732              1.560              1.134
 Vibration    19          0.739              1.543              1.098
 Vibration    20          0.784              1.422              0.885
 Vibration    21          0.827              1.317              0.738
 Vibration    22          0.842              1.281              0.694
 Vibration    23          0.873              1.209              0.614
 Vibration    24          0.891              1.170              0.573
 Vibration    25          0.960              1.028              0.447
 Vibration    26          0.978              0.994              0.420

 Optimization completed on the basis of negligible forces.
    -- Stationary point found.
 Normal termination of Gaussian 16 at Thu Dec 10 16:54:57 2020.

 ----------------------------------------------------------------------
 # B3LYP/6-311++G(d,p) empiricaldispersion=gd3bj scf=xqc pop=npa geom=c
 heck
 ----------------------------------------------------------------------

 ---------------------------------------
 CID_114966684_JID_5538_Energie_neutraal
 ---------------------------------------
 Structure from the checkpoint file:  "JID_5538.chk"
 Charge =  0 Multiplicity = 1

 SCF Done:  E(RB3LYP) =  -981.106261650     A.U. after   16 cycles
 Normal termination of Gaussian 16 at Thu Dec 10 17:01:50 2020.

 ----------------------------------------------------------------------
 # B3LYP/6-311++G(d,p) empiricaldispersion=gd3bj scf=xqc pop=npa geom=c
 heck
 ----------------------------------------------------------------------

 -------------------------------------
 CID_114966684_JID_5538_Energie_kation
 -------------------------------------
 Structure from the checkpoint file:  "JID_5538.chk"
 Charge =  1 Multiplicity = 2

 SCF Done:  E(UB3LYP) =  -980.803062791     A.U. after   33 cycles
 SCF Done:  E(UB3LYP) =  -980.803062791     a.u. after    1 cycles
 Normal termination of Gaussian 16 at Thu Dec 10 17:21:50 2020.
 Gaussian 16:  ES64L-G16RevA.03 25-Dec-2016

 ----------------------------------------------------------------------
 # B3LYP/6-311++G(d,p) empiricaldispersion=gd3bj scf=xqc pop=npa geom=c
 heck
 ----------------------------------------------------------------------

 ------------------------------------
 CID_114966684_JID_5538_Energie_anion
 ------------------------------------
 Structure from the checkpoint file:  "JID_5538.chk"
 Charge = -1 Multiplicity = 2

                         Standard orientation:
 ---------------------------------------------------------------------
 Center     Atomic      Atomic             Coordinates (Angstroms)
 Number     Number       Type             X           Y           Z
 ---------------------------------------------------------------------
      1          6           0        4.995004    1.489425   -0.381789
      2          6           0        3.525262    1.669719    0.009253
      3          6           0        2.544968    0.895347   -0.884380
      4          6           0        2.743025   -0.629107   -0.907071
      5          6           0        2.708725   -1.316823    0.466336
      6          6           0        1.427620   -1.043208    1.271812
      7          6           0        0.191707   -1.542047    0.531987
      8          8           0        0.158311   -2.681938    0.077757
      9          6           0       -0.947276   -0.637762    0.364777
     10          6           0       -1.137362    0.668654    0.770665
     11          6           0       -2.396337    1.210925    0.399273
     12          6           0       -3.164843    0.296073   -0.297738
     13         16           0       -2.350125   -1.221366   -0.497700
     14          6           0       -4.541659    0.519741   -0.845480
     15          6           0       -2.851335    2.609732    0.717393
     16          1           0        5.320273    0.449852   -0.264414
     17          1           0        5.649705    2.111978    0.238201
     18          1           0        5.159566    1.770398   -1.429412
     19          1           0        3.389966    1.370535    1.057556
     20          1           0        3.269025    2.736663   -0.034037
     21          1           0        1.517836    1.123578   -0.571622
     22          1           0        2.632391    1.270161   -1.913654
     23          1           0        1.966543   -1.072678   -1.542768
     24          1           0        3.698876   -0.869283   -1.389325
     25          1           0        2.793684   -2.398503    0.320825
     26          1           0        3.570613   -1.005356    1.068985
     27          1           0        1.473079   -1.592027    2.221481
     28          1           0        1.344026    0.017250    1.521943
     29          1           0       -0.395989    1.233179    1.325088
     30          1           0       -5.245899    0.772755   -0.042817
     31          1           0       -4.548282    1.354411   -1.557876
     32          1           0       -4.924518   -0.364804   -1.361303
     33          1           0       -3.757851    2.609441    1.335617
     34          1           0       -2.078392    3.160135    1.261734
     35          1           0       -3.084130    3.175645   -0.193289
 ---------------------------------------------------------------------

 SCF Done:  E(UB3LYP) =  -981.116535572     A.U. after   31 cycles

 The electronic state is 2-A.
 Alpha  occ. eigenvalues --  -88.70790 -18.91262 -10.06957 -10.06759 -10.06214
 Alpha  occ. eigenvalues --  -10.05507 -10.05450 -10.05269 -10.04488 -10.04019
 Alpha  occ. eigenvalues --  -10.03842 -10.03164 -10.02915 -10.02741 -10.01327
 Alpha  occ. eigenvalues --   -7.79439  -5.75726  -5.75371  -5.75060  -0.85420
 Alpha  occ. eigenvalues --   -0.72902  -0.70065  -0.65542  -0.63360  -0.62355
 Alpha  occ. eigenvalues --   -0.60075  -0.56043  -0.54651  -0.52950  -0.49397
 Alpha  occ. eigenvalues --   -0.45026  -0.42508  -0.37649  -0.37154  -0.36553
 Alpha  occ. eigenvalues --   -0.35998  -0.33818  -0.32302  -0.31553  -0.31256
 Alpha  occ. eigenvalues --   -0.29738  -0.29238  -0.28956  -0.28569  -0.27809
 Alpha  occ. eigenvalues --   -0.27032  -0.25708  -0.24989  -0.24587  -0.23193
 Alpha  occ. eigenvalues --   -0.22795  -0.22534  -0.21599  -0.20367  -0.20011
 Alpha  occ. eigenvalues --   -0.19456  -0.18428  -0.18213  -0.10351  -0.08109
 Alpha  occ. eigenvalues --   -0.08007   0.04647
 Alpha virt. eigenvalues --    0.06654   0.07683   0.08815   0.09133   0.09560
 Alpha virt. eigenvalues --    0.10008   0.11124   0.11600   0.11809   0.12232
 Alpha virt. eigenvalues --    0.12498   0.12814   0.13206   0.13673   0.14130

  Beta  occ. eigenvalues --  -88.70736 -18.90787 -10.06952 -10.06759 -10.05882
  Beta  occ. eigenvalues --  -10.05538 -10.05443 -10.05269 -10.04488 -10.03992
  Beta  occ. eigenvalues --  -10.03430 -10.03300 -10.02946 -10.02676 -10.01046
  Beta  occ. eigenvalues --   -7.79391  -5.75704  -5.75349  -5.74878  -0.84541
  Beta  occ. eigenvalues --   -0.72560  -0.70051  -0.65462  -0.63213  -0.62102
  Beta  occ. eigenvalues --   -0.59992  -0.55805  -0.54387  -0.52691  -0.49280
  Beta  occ. eigenvalues --   -0.44608  -0.42223  -0.37371  -0.37084  -0.36311
  Beta  occ. eigenvalues --   -0.35928  -0.33643  -0.32206  -0.31315  -0.31123
  Beta  occ. eigenvalues --   -0.29655  -0.29087  -0.28847  -0.28536  -0.27649
  Beta  occ. eigenvalues --   -0.26843  -0.25482  -0.24853  -0.24285  -0.22949
  Beta  occ. eigenvalues --   -0.22393  -0.21977  -0.21511  -0.20111  -0.19868
  Beta  occ. eigenvalues --   -0.19381  -0.18161  -0.16395  -0.09169  -0.07595
  Beta  occ. eigenvalues --   -0.06382
  Beta virt. eigenvalues --    0.06578   0.07622   0.08704   0.08937   0.09460
  Beta virt. eigenvalues --    0.09932   0.10596   0.11376   0.11676   0.11738
  Beta virt. eigenvalues --    0.12189   0.12432   0.12723   0.13135   0.13740

 Mulliken charges and spin densities:
               1          2
     1  C   -0.541003  -0.121000
     2  C   -0.269038   0.067911
     3  C   -0.296375  -0.039973
     4  C   -0.049913   0.040476
     5  C   -0.347711  -0.191803
     6  C    0.207864   0.066913
     7  C   -0.157075   0.232869
     8  O   -0.365931   0.175262
     9  C    0.205262  -0.079902
    10  C   -0.157211   0.267291
    11  C   -0.024324  -0.093409
    12  C    0.358517   0.217181
    13  S   -0.711231   0.127180
    14  C   -0.571417  -0.019459
    15  C   -0.608006   0.016458
    16  H    0.107904   0.033094
    17  H    0.072196   0.045491
    18  H    0.110960   0.014381
    19  H    0.141856   0.002452
    20  H    0.128113   0.001039
    21  H    0.178014  -0.006076
    22  H    0.119346  -0.000006
    23  H    0.177472  -0.006609
    24  H    0.129381   0.007506
    25  H    0.184086  -0.002293
    26  H    0.042415   0.082522
    27  H    0.025425   0.143059
    28  H    0.104247  -0.013281
    29  H    0.040569  -0.005138
    30  H    0.120716   0.024948
    31  H    0.121263   0.021941
    32  H    0.135183  -0.000006
    33  H    0.120718  -0.004479
    34  H    0.144435  -0.000545
    35  H    0.123292  -0.003991
 Sum of Mulliken charges =  -1.00000   1.00000

 Dipole moment (field-independent basis, Debye):
    X=              2.0451    Y=              5.9377    Z=             -0.4829  Tot=              6.2985
 Quadrupole moment (field-independent basis, Debye-Ang):
   XX=           -136.9176   YY=           -131.7570   ZZ=           -113.0067
   XY=             -0.5781   XZ=             -0.8865   YZ=              0.7012

 Summary of Natural Population Analysis:

                                       Natural Population
                Natural  -----------------------------------------------
    Atom  No    Charge         Core      Valence    Rydberg      Total
 -----------------------------------------------------------------------
      C    1   -0.28759      0.99967     2.28315    0.00476     3.28759
      C    2   -0.19130      0.99965     2.18550    0.00615     3.19130
      C    3   -0.19357      0.99963     2.18697    0.00698     3.19357
      C    4   -0.19544      0.99963     2.18626    0.00955     3.19544
      C    5   -0.18954      0.99963     2.17877    0.01114     3.18954
      C    6   -0.22818      0.99960     2.21842    0.01016     3.22818
      C    7    0.28895      0.99957     1.68628    0.02521     2.71105
      O    8   -0.26807      0.99988     3.26291    0.00528     4.26807
      C    9   -0.13422      0.99945     2.12227    0.01249     3.13422
      C   10   -0.05888      0.99945     2.04968    0.00974     3.05888
      C   11   -0.09256      0.99943     2.08466    0.00846     3.09256
      C   12   -0.02596      0.99945     2.01559    0.01091     3.02596
      S   13    0.23132      4.99939     2.74746    0.02182     7.76868
      C   14   -0.30038      0.99963     2.29558    0.00517     3.30038
      C   15   -0.28579      0.99964     2.28145    0.00469     3.28579
      H   16    0.09774      0.00000     0.40118    0.00109     0.40226
      H   17    0.09329      0.00000     0.40557    0.00114     0.40671
      H   18    0.09212      0.00000     0.40669    0.00119     0.40788
      H   19    0.09513      0.00000     0.40327    0.00160     0.40487
      H   20    0.09071      0.00000     0.40819    0.00110     0.40929
      H   21    0.10872      0.00000     0.39011    0.00117     0.39128
      H   22    0.08984      0.00000     0.40921    0.00095     0.41016
      H   23    0.10871      0.00000     0.39038    0.00090     0.39129
      H   24    0.08789      0.00000     0.41118    0.00092     0.41211
      H   25    0.10559      0.00000     0.39324    0.00116     0.39441
      H   26    0.08643      0.00000     0.41238    0.00119     0.41357
      H   27    0.10570      0.00000     0.39272    0.00158     0.39430
      H   28    0.09195      0.00000     0.40646    0.00159     0.40805
      H   29    0.09257      0.00000     0.40644    0.00099     0.40743
      H   30    0.09957      0.00000     0.39926    0.00116     0.40043
      H   31    0.09951      0.00000     0.39935    0.00114     0.40049
      H   32    0.10063      0.00000     0.39857    0.00080     0.39937
      H   33    0.09357      0.00000     0.40523    0.00120     0.40643
      H   34    0.09785      0.00000     0.40132    0.00083     0.40215
      H   35    0.09366      0.00000     0.40516    0.00117     0.40634
 =======================================================================
   * Total *   -0.00000     18.99372    41.83089    0.17539    61.00000

 Normal termination of Gaussian 16 at Thu Dec 10 17:36:02 2020.
