 Gaussian 16, Revision A.03,

 -----------------------------------------------------------
 # opt freq B3LYP/6-31G(d) empiricaldispersion=gd3bj scf=xqc
 -----------------------------------------------------------

 -----------------------------
 CID_3232823_JID_8596_neutraal
 -----------------------------
 Symbolic Z-matrix:
 Charge =  0 Multiplicity = 1

 SCF Done:  E(RB3LYP) =  -780.837818785     A.U. after   14 cycles
 SCF Done:  E(RB3LYP) =  -780.846005943     A.U. after   12 cycles
 SCF Done:  E(RB3LYP) =  -780.848241536     A.U. after   12 cycles
 SCF Done:  E(RB3LYP) =  -780.849430191     A.U. after   12 cycles
 SCF Done:  E(RB3LYP) =  -780.849831323     A.U. after   12 cycles
 SCF Done:  E(RB3LYP) =  -780.850311366     A.U. after   11 cycles
 SCF Done:  E(RB3LYP) =  -780.850527164     A.U. after   11 cycles
 SCF Done:  E(RB3LYP) =  -780.850644687     A.U. after   11 cycles
 SCF Done:  E(RB3LYP) =  -780.850699659     A.U. after   10 cycles
 SCF Done:  E(RB3LYP) =  -780.850754744     A.U. after   10 cycles
 SCF Done:  E(RB3LYP) =  -780.850776838     A.U. after   10 cycles
 SCF Done:  E(RB3LYP) =  -780.850779886     A.U. after    8 cycles
 SCF Done:  E(RB3LYP) =  -780.850780841     A.U. after    8 cycles
 SCF Done:  E(RB3LYP) =  -780.850780944     A.U. after    7 cycles
 SCF Done:  E(RB3LYP) =  -780.850780978     A.U. after    7 cycles
 Optimization completed.
    -- Stationary point found.
 Normal termination of Gaussian 16 at Sun Dec 13 16:10:56 2020.

 --------------------------------------------------------------------
 #N Geom=AllCheck Guess=TCheck SCRF=Check GenChk RB3LYP/6-31G(d) Freq
 --------------------------------------------------------------------

 Structure from the checkpoint file:  "JID_8596.chk"
 -----------------------------
 CID_3232823_JID_8596_neutraal
 -----------------------------
 Charge =  0 Multiplicity = 1

 SCF Done:  E(RB3LYP) =  -780.850780978     A.U. after    1 cycles

  Exact polarizability: 254.835  12.217 203.425   4.592  -4.387  70.787
 Approx polarizability: 386.968   7.937 337.521  12.616 -14.896 112.458

                      1                      2                      3
                      A                      A                      A
 Frequencies --     52.3988                56.1456                71.6275
 Red. masses --      3.3584                 3.6695                 2.9354
 Frc consts  --      0.0054                 0.0068                 0.0089
 IR Inten    --      2.6439                 0.0791                 4.5479

                      4                      5                      6
                      A                      A                      A
 Frequencies --     92.5274                97.3019               141.3433
 Red. masses --      4.7397                 3.5085                 2.1887
 Frc consts  --      0.0239                 0.0196                 0.0258
 IR Inten    --      0.2251                 1.0916                 2.4116

                      7                      8                      9
                      A                      A                      A
 Frequencies --    173.0735               192.2349               220.8357
 Red. masses --      3.8686                 1.6869                 2.1417
 Frc consts  --      0.0683                 0.0367                 0.0615
 IR Inten    --      2.4083                 0.6931                 0.4898

                     10                     11                     12
                      A                      A                      A
 Frequencies --    254.9097               289.7164               306.4201
 Red. masses --      2.1571                 3.9355                 4.4523
 Frc consts  --      0.0826                 0.1946                 0.2463
 IR Inten    --      1.8019                13.3768                 0.4256

                     13                     14                     15
                      A                      A                      A
 Frequencies --    317.3357               333.2416               380.1067
 Red. masses --      4.8605                 6.0379                 2.8896
 Frc consts  --      0.2884                 0.3951                 0.2460
 IR Inten    --      1.7920                 1.3080                 2.0447

                     16                     17                     18
                      A                      A                      A
 Frequencies --    403.5421               461.2075               527.3153
 Red. masses --      3.8174                 3.6542                 4.0595
 Frc consts  --      0.3663                 0.4580                 0.6651
 IR Inten    --      4.4007                 0.2526                 1.6930

                     19                     20                     21
                      A                      A                      A
 Frequencies --    538.1106               545.1835               605.7355
 Red. masses --      5.7367                 3.8354                 7.6831
 Frc consts  --      0.9787                 0.6717                 1.6609
 IR Inten    --      2.5985                 1.4990                 3.0206

                     22                     23                     24
                      A                      A                      A
 Frequencies --    620.8345               631.5760               637.1846
 Red. masses --      3.9439                 3.6495                 5.7296
 Frc consts  --      0.8956                 0.8577                 1.3706
 IR Inten    --     13.3853                 4.7736                 2.9145

                     25                     26                     27
                      A                      A                      A
 Frequencies --    699.6256               728.3228               744.6054
 Red. masses --      4.0916                 1.3644                 5.5574
 Frc consts  --      1.1800                 0.4264                 1.8154
 IR Inten    --     10.2100                 6.9307                 5.6770

                     28                     29                     30
                      A                      A                      A
 Frequencies --    751.1642               783.2039               808.5311
 Red. masses --      3.3012                 1.4395                 2.1466
 Frc consts  --      1.0975                 0.5203                 0.8268
 IR Inten    --     20.7727                53.5702                20.4134

                     31                     32                     33
                      A                      A                      A
 Frequencies --    827.0422               862.5496               867.4365
 Red. masses --      2.4928                 6.6254                 1.4105
 Frc consts  --      1.0046                 2.9042                 0.6253
 IR Inten    --      2.2732                14.0535                 6.7322

                     34                     35                     36
                      A                      A                      A
 Frequencies --    879.5514               889.0744               895.6873
 Red. masses --      6.0913                 1.6577                 5.6066
 Frc consts  --      2.7764                 0.7720                 2.6501
 IR Inten    --     25.0843                 2.6096                24.1975

                     37                     38                     39
                      A                      A                      A
 Frequencies --    959.2486               963.7248               995.9463
 Red. masses --      4.5386                 1.3164                 1.2727
 Frc consts  --      2.4605                 0.7203                 0.7438
 IR Inten    --     52.9004                 1.7159                 0.3594

                     40                     41                     42
                      A                      A                      A
 Frequencies --   1006.7243              1042.9688              1060.2934
 Red. masses --      3.3427                 2.2178                 2.2328
 Frc consts  --      1.9960                 1.4214                 1.4789
 IR Inten    --      6.4676                20.7845                 8.9625

                     43                     44                     45
                      A                      A                      A
 Frequencies --   1092.5945              1099.0961              1106.3619
 Red. masses --      1.6840                 2.1274                 1.8193
 Frc consts  --      1.1844                 1.5142                 1.3121
 IR Inten    --     20.2628                80.6196                 6.6151

                     46                     47                     48
                      A                      A                      A
 Frequencies --   1141.5019              1155.9419              1172.9362
 Red. masses --      1.2316                 1.7016                 1.4083
 Frc consts  --      0.9455                 1.3396                 1.1416
 IR Inten    --      0.3848                 4.2958                22.6046

                     49                     50                     51
                      A                      A                      A
 Frequencies --   1192.8716              1194.8890              1206.7888
 Red. masses --      1.3725                 2.5648                 2.6122
 Frc consts  --      1.1507                 2.1575                 2.2414
 IR Inten    --     22.5188                17.7880               110.9116

                     52                     53                     54
                      A                      A                      A
 Frequencies --   1249.6860              1254.3613              1288.1071
 Red. masses --      3.3869                 1.3172                 1.8782
 Frc consts  --      3.1164                 1.2211                 1.8361
 IR Inten    --     36.1271                 5.9435                 2.3273

                     55                     56                     57
                      A                      A                      A
 Frequencies --   1303.3117              1321.6395              1380.8189
 Red. masses --      3.1967                 4.0000                 3.1081
 Frc consts  --      3.1992                 4.1166                 3.4915
 IR Inten    --      2.5099                 9.1793                 5.9916

                     58                     59                     60
                      A                      A                      A
 Frequencies --   1400.1197              1422.9941              1427.4113
 Red. masses --      6.2062                 4.2661                 3.9822
 Frc consts  --      7.1682                 5.0896                 4.7805
 IR Inten    --     47.8996                40.8878                55.1324

                     61                     62                     63
                      A                      A                      A
 Frequencies --   1457.2731              1472.5063              1502.5738
 Red. masses --      1.8410                 1.1857                 2.8395
 Frc consts  --      2.3034                 1.5147                 3.7771
 IR Inten    --    199.1381                20.0883                11.4525

                     64                     65                     66
                      A                      A                      A
 Frequencies --   1508.5170              1512.2579              1524.7100
 Red. masses --      1.1908                 1.2626                 1.1496
 Frc consts  --      1.5966                 1.7012                 1.5746
 IR Inten    --     22.7625                12.8366                12.0302

                     67                     68                     69
                      A                      A                      A
 Frequencies --   1533.7282              1543.5947              1557.0387
 Red. masses --      1.0909                 1.6803                 2.9223
 Frc consts  --      1.5120                 2.3589                 4.1742
 IR Inten    --     11.2036                84.5807                35.7517

                     70                     71                     72
                      A                      A                      A
 Frequencies --   1577.9321              1594.3777              1615.9579
 Red. masses --      2.2920                 9.6147                 6.3944
 Frc consts  --      3.3624                14.4001                 9.8381
 IR Inten    --    149.2386               408.9437               209.6207

                     73                     74                     75
                      A                      A                      A
 Frequencies --   1639.9208              1676.6470              3023.9039
 Red. masses --      6.1643                 6.0747                 1.0439
 Frc consts  --      9.7674                10.0614                 5.6240
 IR Inten    --     56.0117                20.1380                29.3330

                     76                     77                     78
                      A                      A                      A
 Frequencies --   3029.8625              3076.1900              3102.2974
 Red. masses --      1.0478                 1.1007                 1.0924
 Frc consts  --      5.6673                 6.1367                 6.1942
 IR Inten    --    113.3274                35.2222                34.1494

                     79                     80                     81
                      A                      A                      A
 Frequencies --   3179.3743              3183.6778              3189.7168
 Red. masses --      1.0988                 1.0957                 1.0866
 Frc consts  --      6.5444                 6.5434                 6.5135
 IR Inten    --      8.4446                 9.1818                 6.6243

                     82                     83                     84
                      A                      A                      A
 Frequencies --   3204.3882              3221.2245              3227.3578
 Red. masses --      1.0906                 1.0938                 1.0938
 Frc consts  --      6.5980                 6.6871                 6.7123
 IR Inten    --     17.1299                14.3849                16.4167

                     85                     86                     87
                      A                      A                      A
 Frequencies --   3287.8514              3309.0223              3318.7362
 Red. masses --      1.0893                 1.1055                 1.0998
 Frc consts  --      6.9381                 7.1323                 7.1370
 IR Inten    --      0.0269                 3.0585                 0.9415

 - Thermochemistry -
 -------------------
 Temperature   298.150 Kelvin.  Pressure   1.00000 Atm.
 Atom     1 has atomic number  6 and mass  12.00000

 Molecular mass:   239.10586 amu.
 Principal axes and moments of inertia in atomic units:
                           1         2         3
     Eigenvalues --  2636.579846056.941588558.68337
           X            0.99999  -0.00383  -0.00210
           Y            0.00383   0.99999   0.00199
           Z            0.00210  -0.00200   1.00000
 This molecule is an asymmetric top.
 Rotational symmetry number  1.
 Warning -- assumption of classical behavior for rotation
           may cause significant error
 Rotational temperatures (Kelvin)      0.03285     0.01430     0.01012
 Rotational constants (GHZ):           0.68450     0.29796     0.21087
 Zero-point vibrational energy     653147.2 (Joules/Mol)
                                  156.10592 (Kcal/Mol)
 Warning -- explicit consideration of  21 degrees of freedom as
           vibrations may cause significant error
 Vibrational temperatures:     75.39    80.78   103.06   133.13   140.00
          (Kelvin)            203.36   249.01   276.58   317.73   366.76
                              416.84   440.87   456.58   479.46   546.89
                              580.61   663.57   758.69   774.22   784.40
                              871.52   893.24   908.70   916.77  1006.61
                             1047.89  1071.32  1080.76  1126.86  1163.30
                             1189.93  1241.02  1248.05  1265.48  1279.18
                             1288.69  1380.14  1386.58  1432.94  1448.45
                             1500.60  1525.53  1572.00  1581.35  1591.81
                             1642.37  1663.14  1687.59  1716.28  1719.18
                             1736.30  1798.02  1804.75  1853.30  1875.17
                             1901.54  1986.69  2014.46  2047.37  2053.73
                             2096.69  2118.61  2161.87  2170.42  2175.80
                             2193.72  2206.69  2220.89  2240.23  2270.29
                             2293.95  2325.00  2359.48  2412.32  4350.72
                             4359.30  4425.95  4463.51  4574.41  4580.60
                             4589.29  4610.40  4634.62  4643.45  4730.48
                             4760.95  4774.92

 Zero-point correction=                           0.248771 (Hartree/Particle)
 Thermal correction to Energy=                    0.263555
 Thermal correction to Enthalpy=                  0.264499
 Thermal correction to Gibbs Free Energy=         0.206277
 Sum of electronic and zero-point Energies=           -780.602010
 Sum of electronic and thermal Energies=              -780.587226
 Sum of electronic and thermal Enthalpies=            -780.586282
 Sum of electronic and thermal Free Energies=         -780.644504

                     E (Thermal)             CV                S
                      KCal/Mol        Cal/Mol-Kelvin    Cal/Mol-Kelvin
 Total                  165.383             57.496            122.539
 Electronic               0.000              0.000              0.000
 Translational            0.889              2.981             42.316
 Rotational               0.889              2.981             33.280
 Vibrational            163.606             51.534             46.943
 Vibration     1          0.596              1.977              4.725
 Vibration     2          0.596              1.975              4.588
 Vibration     3          0.598              1.968              4.108
 Vibration     4          0.602              1.955              3.606
 Vibration     5          0.603              1.951              3.508
 Vibration     6          0.615              1.912              2.786
 Vibration     7          0.627              1.876              2.402
 Vibration     8          0.634              1.851              2.206
 Vibration     9          0.648              1.809              1.952
 Vibration    10          0.665              1.754              1.696
 Vibration    11          0.686              1.693              1.476
 Vibration    12          0.697              1.662              1.382
 Vibration    13          0.704              1.640              1.324
 Vibration    14          0.715              1.609              1.244
 Vibration    15          0.750              1.513              1.039
 Vibration    16          0.769              1.462              0.950
 Vibration    17          0.819              1.336              0.763
 Vibration    18          0.882              1.190              0.593
 Vibration    19          0.893              1.166              0.569
 Vibration    20          0.900              1.150              0.554
 Vibration    21          0.964              1.020              0.440

 Optimization completed.
    -- Stationary point found.
 Normal termination of Gaussian 16 at Sun Dec 13 16:22:30 2020.

 ----------------------------------------------------------------------
 # B3LYP/6-311++G(d,p) empiricaldispersion=gd3bj scf=xqc pop=npa geom=c
 heck
 ----------------------------------------------------------------------

 -------------------------------------
 CID_3232823_JID_8596_Energie_neutraal
 -------------------------------------
 Structure from the checkpoint file:  "JID_8596.chk"
 Charge =  0 Multiplicity = 1

 SCF Done:  E(RB3LYP) =  -781.050147003     A.U. after   15 cycles
 Normal termination of Gaussian 16 at Sun Dec 13 16:27:57 2020.

 ----------------------------------------------------------------------
 # B3LYP/6-311++G(d,p) empiricaldispersion=gd3bj scf=xqc pop=npa geom=c
 heck
 ----------------------------------------------------------------------

 -----------------------------------
 CID_3232823_JID_8596_Energie_kation
 -----------------------------------
 Structure from the checkpoint file:  "JID_8596.chk"
 Charge =  1 Multiplicity = 2

 SCF Done:  E(UB3LYP) =  -780.779643960     A.U. after   23 cycles
 Normal termination of Gaussian 16 at Sun Dec 13 16:39:46 2020.
 Gaussian 16:  ES64L-G16RevA.03 25-Dec-2016

 ----------------------------------------------------------------------
 # B3LYP/6-311++G(d,p) empiricaldispersion=gd3bj scf=xqc pop=npa geom=c
 heck
 ----------------------------------------------------------------------

 ----------------------------------
 CID_3232823_JID_8596_Energie_anion
 ----------------------------------
 Structure from the checkpoint file:  "JID_8596.chk"
 Charge = -1 Multiplicity = 2

                         Standard orientation:
 ---------------------------------------------------------------------
 Center     Atomic      Atomic             Coordinates (Angstroms)
 Number     Number       Type             X           Y           Z
 ---------------------------------------------------------------------
      1          6           0       -2.652213    2.551495    0.734510
      2          7           0       -1.493143    2.232325   -0.095820
      3          6           0       -0.630500    3.378495   -0.354228
      4          6           0       -0.907586    0.984590   -0.061145
      5          7           0        0.417137    0.938521   -0.064354
      6          6           0        1.020120   -0.276671    0.038880
      7          7           0        0.416365   -1.444318    0.190279
      8          6           0       -0.944069   -1.432985    0.108444
      9          6           0       -1.637778   -2.668600    0.159987
     10          6           0       -3.000206   -2.715174   -0.036916
     11          6           0       -3.723952   -1.533831   -0.312659
     12          6           0       -3.078243   -0.314318   -0.335287
     13          6           0       -1.689220   -0.230043   -0.078441
     14          6           0        2.482566   -0.262652    0.016201
     15          6           0        3.310816   -1.348793    0.099211
     16          8           0        4.611043   -0.961349    0.041505
     17          6           0        4.616510    0.404950   -0.081603
     18          6           0        3.346428    0.883431   -0.102104
     19          1           0       -3.454564    3.008145    0.141796
     20          1           0       -2.358876    3.263472    1.518713
     21          1           0       -3.037154    1.657912    1.222764
     22          1           0       -0.057339    3.674282    0.536271
     23          1           0        0.075693    3.138173   -1.148299
     24          1           0       -1.261376    4.217199   -0.665690
     25          1           0       -1.050657   -3.565314    0.328357
     26          1           0       -3.520024   -3.668822   -0.008959
     27          1           0       -4.788520   -1.587171   -0.520034
     28          1           0       -3.634936    0.580465   -0.588415
     29          1           0        3.121537   -2.405327    0.196655
     30          1           0        5.592114    0.861815   -0.139063
     31          1           0        3.027211    1.910903   -0.185965
 ---------------------------------------------------------------------

 SCF Done:  E(UB3LYP) =  -781.059719368     A.U. after   29 cycles

 The electronic state is 2-A.
 Alpha  occ. eigenvalues --  -19.06665 -14.20303 -14.15139 -14.13393 -10.10378
 Alpha  occ. eigenvalues --  -10.08839 -10.08730 -10.08654 -10.08058 -10.08024
 Alpha  occ. eigenvalues --  -10.06391 -10.05213 -10.04324 -10.04132 -10.03466
 Alpha  occ. eigenvalues --  -10.03039 -10.02768 -10.01674  -0.99121  -0.84668
 Alpha  occ. eigenvalues --   -0.80467  -0.72870  -0.70408  -0.68089  -0.63284
 Alpha  occ. eigenvalues --   -0.62310  -0.60608  -0.59623  -0.56296  -0.51784
 Alpha  occ. eigenvalues --   -0.48956  -0.46590  -0.45609  -0.44339  -0.41819
 Alpha  occ. eigenvalues --   -0.39789  -0.37363  -0.36951  -0.35458  -0.33746
 Alpha  occ. eigenvalues --   -0.33444  -0.32360  -0.31967  -0.31033  -0.29336
 Alpha  occ. eigenvalues --   -0.29023  -0.28469  -0.28052  -0.27957  -0.26657
 Alpha  occ. eigenvalues --   -0.26321  -0.25086  -0.23234  -0.22195  -0.21222
 Alpha  occ. eigenvalues --   -0.19651  -0.16227  -0.15221  -0.13034  -0.11833
 Alpha  occ. eigenvalues --   -0.10828  -0.10042  -0.07717   0.04254
 Alpha virt. eigenvalues --    0.07331   0.08324   0.08883   0.09735   0.09897
 Alpha virt. eigenvalues --    0.10063   0.10694   0.11345   0.11715   0.11979
 Alpha virt. eigenvalues --    0.12827   0.13252   0.13803   0.14046   0.14549

  Beta  occ. eigenvalues --  -19.06580 -14.20224 -14.15226 -14.13094 -10.10401
  Beta  occ. eigenvalues --  -10.08702 -10.08477 -10.08430 -10.08061 -10.07833
  Beta  occ. eigenvalues --  -10.06441 -10.05205 -10.04361 -10.04221 -10.03418
  Beta  occ. eigenvalues --  -10.02966 -10.02528 -10.01428  -0.98967  -0.84344
  Beta  occ. eigenvalues --   -0.80155  -0.72619  -0.70074  -0.67973  -0.63097
  Beta  occ. eigenvalues --   -0.62070  -0.60418  -0.59311  -0.56102  -0.51495
  Beta  occ. eigenvalues --   -0.48681  -0.46477  -0.45372  -0.44172  -0.41658
  Beta  occ. eigenvalues --   -0.39640  -0.37220  -0.36659  -0.35195  -0.33651
  Beta  occ. eigenvalues --   -0.33036  -0.32262  -0.31854  -0.30911  -0.29256
  Beta  occ. eigenvalues --   -0.28936  -0.28295  -0.27889  -0.27389  -0.26527
  Beta  occ. eigenvalues --   -0.26184  -0.25009  -0.23094  -0.21501  -0.20932
  Beta  occ. eigenvalues --   -0.18505  -0.15688  -0.15037  -0.12562  -0.10893
  Beta  occ. eigenvalues --   -0.10364  -0.09849  -0.06420
  Beta virt. eigenvalues --    0.07210   0.08279   0.08819   0.09348   0.09710
  Beta virt. eigenvalues --    0.09966   0.10634   0.10701   0.11279   0.11894
  Beta virt. eigenvalues --    0.12024   0.12781   0.13192   0.13755   0.13979

 Mulliken charges and spin densities:
               1          2
     1  C   -0.261279  -0.137669
     2  N    0.223689   0.034175
     3  C   -0.275416  -0.049284
     4  C   -0.300574   0.256743
     5  N   -0.144745  -0.038317
     6  C   -0.580136   0.110124
     7  N   -0.038308   0.153335
     8  C    0.243041  -0.011582
     9  C   -0.352752   0.175264
    10  C   -0.236230   0.027428
    11  C   -0.244921   0.031965
    12  C   -0.165921   0.152439
    13  C    0.159776  -0.047335
    14  C   -0.030192  -0.039544
    15  C   -0.537846   0.154073
    16  O   -0.038620   0.011336
    17  C   -0.641934  -0.020237
    18  C    0.677454   0.023511
    19  H    0.137205   0.021224
    20  H   -0.007488   0.117247
    21  H    0.129004   0.014036
    22  H    0.106454   0.039943
    23  H    0.161244   0.008092
    24  H    0.098069   0.015440
    25  H    0.126828  -0.013824
    26  H    0.110083  -0.003132
    27  H    0.096895   0.006057
    28  H    0.098663   0.009875
    29  H    0.190381  -0.011275
    30  H    0.147044   0.002054
    31  H    0.150533   0.007838
 Sum of Mulliken charges =  -1.00000   1.00000

 Dipole moment (field-independent basis, Debye):
    X=              0.1167    Y=              3.6344    Z=             -0.2643  Tot=              3.6458
 Quadrupole moment (field-independent basis, Debye-Ang):
   XX=           -143.5362   YY=           -123.8580   ZZ=           -117.9626
   XY=             -0.9846   XZ=             -0.9173   YZ=             -1.2501

 Summary of Natural Population Analysis:

                                       Natural Population
                Natural  -----------------------------------------------
    Atom  No    Charge         Core      Valence    Rydberg      Total
 -----------------------------------------------------------------------
      C    1   -0.17078      0.99964     2.16499    0.00615     3.17078
      N    2   -0.24417      0.99965     2.73499    0.00953     3.74417
      C    3   -0.17306      0.99966     2.16663    0.00677     3.17306
      C    4    0.29786      0.99950     1.68728    0.01535     2.70214
      N    5   -0.30397      0.99965     2.79450    0.00982     3.80397
      C    6    0.23493      0.99956     1.74981    0.01570     2.76507
      N    7   -0.22968      0.99966     2.71876    0.01125     3.72968
      C    8    0.08810      0.99949     1.89919    0.01322     2.91190
      C    9   -0.07944      0.99957     2.06281    0.01706     3.07944
      C   10   -0.05329      0.99959     2.04952    0.00418     3.05329
      C   11   -0.12244      0.99961     2.10603    0.01680     3.12244
      C   12   -0.05859      0.99955     2.04944    0.00961     3.05859
      C   13   -0.09021      0.99946     2.08047    0.01028     3.09021
      C   14   -0.08588      0.99950     2.07594    0.01044     3.08588
      C   15    0.11243      0.99949     1.87385    0.01424     2.88757
      O   16   -0.23247      0.99987     3.22491    0.00769     4.23247
      C   17    0.04148      0.99940     1.94280    0.01632     2.95852
      C   18   -0.14023      0.99957     2.13154    0.00912     3.14023
      H   19    0.08464      0.00000     0.41393    0.00142     0.41536
      H   20    0.08378      0.00000     0.41394    0.00228     0.41622
      H   21    0.10766      0.00000     0.39127    0.00107     0.39234
      H   22    0.08616      0.00000     0.41146    0.00238     0.41384
      H   23    0.10643      0.00000     0.39245    0.00113     0.39357
      H   24    0.08428      0.00000     0.41465    0.00106     0.41572
      H   25    0.09368      0.00000     0.40398    0.00234     0.40632
      H   26    0.08668      0.00000     0.41245    0.00087     0.41332
      H   27    0.08872      0.00000     0.40988    0.00139     0.41128
      H   28    0.09152      0.00000     0.40663    0.00185     0.40848
      H   29    0.09731      0.00000     0.40175    0.00094     0.40269
      H   30    0.08642      0.00000     0.41237    0.00121     0.41358
      H   31    0.11235      0.00000     0.38670    0.00095     0.38765
 =======================================================================
   * Total *    0.00024     17.99243    44.78491    0.22242    62.99976

 Normal termination of Gaussian 16 at Sun Dec 13 16:54:31 2020.
