 Gaussian 16, Revision A.03,

 -----------------------------------------------------------
 # opt freq B3LYP/6-31G(d) empiricaldispersion=gd3bj scf=xqc
 -----------------------------------------------------------

 ------------------------------
 CID_43240490_JID_9101_neutraal
 ------------------------------
 Symbolic Z-matrix:
 Charge =  0 Multiplicity = 1

 SCF Done:  E(RB3LYP) =  -864.780535748     A.U. after   15 cycles
 SCF Done:  E(RB3LYP) =  -864.786505863     A.U. after   13 cycles
 SCF Done:  E(RB3LYP) =  -864.786180991     A.U. after   13 cycles
 SCF Done:  E(RB3LYP) =  -864.787569100     A.U. after   12 cycles
 SCF Done:  E(RB3LYP) =  -864.787969462     A.U. after   13 cycles
 SCF Done:  E(RB3LYP) =  -864.788681676     A.U. after   15 cycles
 SCF Done:  E(RB3LYP) =  -864.789071087     A.U. after   13 cycles
 SCF Done:  E(RB3LYP) =  -864.789425576     A.U. after   12 cycles
 SCF Done:  E(RB3LYP) =  -864.789706960     A.U. after   13 cycles
 SCF Done:  E(RB3LYP) =  -864.789818982     A.U. after   12 cycles
 SCF Done:  E(RB3LYP) =  -864.790613453     A.U. after    7 cycles
 SCF Done:  E(RB3LYP) =  -864.790613515     A.U. after    7 cycles
 SCF Done:  E(RB3LYP) =  -864.790613558     A.U. after    7 cycles
 SCF Done:  E(RB3LYP) =  -864.790613569     A.U. after    7 cycles
 Optimization completed.
    -- Stationary point found.
 Normal termination of Gaussian 16 at Sat Dec 12 10:19:20 2020.

 --------------------------------------------------------------------
 #N Geom=AllCheck Guess=TCheck SCRF=Check GenChk RB3LYP/6-31G(d) Freq
 --------------------------------------------------------------------

 Structure from the checkpoint file:  "JID_9101.chk"
 ------------------------------
 CID_43240490_JID_9101_neutraal
 ------------------------------
 Charge =  0 Multiplicity = 1

 SCF Done:  E(RB3LYP) =  -864.790613569     A.U. after    1 cycles

  Exact polarizability: 225.721   0.869 175.694  -8.589   1.669 118.913
 Approx polarizability: 286.357   0.522 263.144 -21.326   1.974 205.685

                      1                      2                      3
                      A                      A                      A
 Frequencies --     13.2433                22.3219                26.1754
 Red. masses --      5.2489                 8.6380                 4.9048
 Frc consts  --      0.0005                 0.0025                 0.0020
 IR Inten    --      3.0432                 0.2845                 0.0268

                      4                      5                      6
                      A                      A                      A
 Frequencies --     43.1024                48.5328                65.4255
 Red. masses --      1.0834                 4.3598                 3.5599
 Frc consts  --      0.0012                 0.0061                 0.0090
 IR Inten    --      0.0057                 1.7181                 0.3427

                      7                      8                      9
                      A                      A                      A
 Frequencies --     72.6108                87.5425                88.4946
 Red. masses --      2.8292                 1.3765                 1.6302
 Frc consts  --      0.0088                 0.0062                 0.0075
 IR Inten    --      1.8611                 0.1088                 0.5625

                     10                     11                     12
                      A                      A                      A
 Frequencies --    122.9911               135.8086               151.1891
 Red. masses --      1.3179                 2.1528                 1.9146
 Frc consts  --      0.0117                 0.0234                 0.0258
 IR Inten    --      0.0049                 1.3651                 3.4589

                     13                     14                     15
                      A                      A                      A
 Frequencies --    158.2914               170.7522               171.5296
 Red. masses --      2.1047                 1.6605                 1.5953
 Frc consts  --      0.0311                 0.0285                 0.0277
 IR Inten    --      0.3387                 0.8094                 0.7011

                     16                     17                     18
                      A                      A                      A
 Frequencies --    191.0915               241.7246               279.4701
 Red. masses --      3.1309                 3.5391                 3.6771
 Frc consts  --      0.0674                 0.1218                 0.1692
 IR Inten    --      3.4062                 0.6174                 2.7441

                     19                     20                     21
                      A                      A                      A
 Frequencies --    301.8720               351.5509               353.4990
 Red. masses --      4.2035                 3.3271                 3.3615
 Frc consts  --      0.2257                 0.2423                 0.2475
 IR Inten    --     15.0702                 3.4188                 0.1283

                     22                     23                     24
                      A                      A                      A
 Frequencies --    359.0162               380.0921               402.3520
 Red. masses --      2.4414                 2.4705                 4.3381
 Frc consts  --      0.1854                 0.2103                 0.4138
 IR Inten    --      0.9073                 1.9354                14.7729

                     25                     26                     27
                      A                      A                      A
 Frequencies --    417.7466               433.6290               443.7839
 Red. masses --      2.2363                 2.4939                 1.4020
 Frc consts  --      0.2299                 0.2763                 0.1627
 IR Inten    --      1.2134                23.0073                32.4470

                     28                     29                     30
                      A                      A                      A
 Frequencies --    458.5609               470.2664               517.8794
 Red. masses --      4.4866                 4.5179                 4.4914
 Frc consts  --      0.5559                 0.5887                 0.7097
 IR Inten    --      0.5794                21.4864                 0.1033

                     31                     32                     33
                      A                      A                      A
 Frequencies --    571.0238               581.4480               582.7391
 Red. masses --      2.4991                 2.8489                 3.1800
 Frc consts  --      0.4801                 0.5675                 0.6362
 IR Inten    --     26.7842                14.2214                 4.5952

                     34                     35                     36
                      A                      A                      A
 Frequencies --    585.6923               623.2345               649.7857
 Red. masses --      3.1981                 2.4521                 3.3256
 Frc consts  --      0.6464                 0.5612                 0.8273
 IR Inten    --      4.8530                44.2951                13.2618

                     37                     38                     39
                      A                      A                      A
 Frequencies --    711.4057               721.9390               752.6628
 Red. masses --      1.7704                 2.9284                 4.4657
 Frc consts  --      0.5279                 0.8992                 1.4905
 IR Inten    --     42.6165                18.6528                 1.3485

                     40                     41                     42
                      A                      A                      A
 Frequencies --    762.8311               784.4101               860.0042
 Red. masses --      4.8116                 1.8781                 2.7542
 Frc consts  --      1.6497                 0.6809                 1.2002
 IR Inten    --      2.5746                 7.7321                 9.5774

                     43                     44                     45
                      A                      A                      A
 Frequencies --    866.1885               899.0434               976.6524
 Red. masses --      3.2271                 3.6752                 2.6957
 Frc consts  --      1.4265                 1.7502                 1.5150
 IR Inten    --      5.5134                 6.6235                18.2071

                     46                     47                     48
                      A                      A                      A
 Frequencies --   1014.2854              1029.2842              1035.1785
 Red. masses --      1.4790                 1.6051                 1.4361
 Frc consts  --      0.8965                 1.0019                 0.9067
 IR Inten    --      0.4740                 8.2069                10.2147

                     49                     50                     51
                      A                      A                      A
 Frequencies --   1048.1210              1053.1881              1056.3422
 Red. masses --      3.3450                 1.6254                 1.8675
 Frc consts  --      2.1650                 1.0622                 1.2278
 IR Inten    --      4.5169                 0.8071                 5.5254

                     52                     53                     54
                      A                      A                      A
 Frequencies --   1066.9598              1081.1709              1082.9887
 Red. masses --      1.4993                 1.5674                 1.6357
 Frc consts  --      1.0056                 1.0795                 1.1303
 IR Inten    --      5.6392                 3.9831                 2.3558

                     55                     56                     57
                      A                      A                      A
 Frequencies --   1083.9103              1100.9903              1105.0256
 Red. masses --      2.0667                 2.0490                 2.4074
 Frc consts  --      1.4306                 1.4634                 1.7320
 IR Inten    --     60.5803                12.3954                 5.3297

                     58                     59                     60
                      A                      A                      A
 Frequencies --   1115.8405              1132.0398              1197.0514
 Red. masses --      3.4358                 1.7791                 2.0283
 Frc consts  --      2.5205                 1.3433                 1.7124
 IR Inten    --     11.4980                 0.8110               177.3822

                     61                     62                     63
                      A                      A                      A
 Frequencies --   1236.6410              1258.2629              1300.5689
 Red. masses --      2.4041                 1.5106                 3.4671
 Frc consts  --      2.1662                 1.4091                 3.4552
 IR Inten    --     30.6220               102.1137                45.7610

                     64                     65                     66
                      A                      A                      A
 Frequencies --   1308.2486              1334.0345              1345.4163
 Red. masses --      1.3316                 5.7449                 4.0178
 Frc consts  --      1.3428                 6.0238                 4.2850
 IR Inten    --      2.7960                 0.0032                 8.3217

                     67                     68                     69
                      A                      A                      A
 Frequencies --   1358.1720              1381.3637              1424.1381
 Red. masses --      1.4716                 2.0414                 1.3443
 Frc consts  --      1.5993                 2.2951                 1.6064
 IR Inten    --     79.8560                34.0473                20.5339

                     70                     71                     72
                      A                      A                      A
 Frequencies --   1438.3434              1440.2340              1445.4411
 Red. masses --      1.2876                 1.2256                 1.2386
 Frc consts  --      1.5695                 1.4979                 1.5247
 IR Inten    --      0.1536                 0.1031                 0.3261

                     73                     74                     75
                      A                      A                      A
 Frequencies --   1449.8074              1454.7996              1460.4673
 Red. masses --      1.1953                 1.2896                 3.0241
 Frc consts  --      1.4803                 1.6080                 3.8004
 IR Inten    --      0.3267                 0.1804                 0.5530

                     76                     77                     78
                      A                      A                      A
 Frequencies --   1464.7303              1496.9646              1501.2449
 Red. masses --      4.1867                 1.0911                 1.1212
 Frc consts  --      5.2923                 1.4406                 1.4888
 IR Inten    --      5.7000                11.3639                 4.4680

                     79                     80                     81
                      A                      A                      A
 Frequencies --   1506.9101              1509.0740              1515.3082
 Red. masses --      1.0894                 1.1202                 1.1224
 Frc consts  --      1.4575                 1.5030                 1.5184
 IR Inten    --      0.2851                10.8016                 3.4613

                     82                     83                     84
                      A                      A                      A
 Frequencies --   1516.2690              1528.0455              1531.4889
 Red. masses --      1.0577                 1.0519                 1.1220
 Frc consts  --      1.4328                 1.4471                 1.5505
 IR Inten    --     16.1262                 0.2140                17.4975

                     85                     86                     87
                      A                      A                      A
 Frequencies --   1532.9770              1540.8598              1546.8070
 Red. masses --      1.1381                 1.1080                 1.8046
 Frc consts  --      1.5758                 1.5499                 2.5439
 IR Inten    --     10.5040                31.8843               261.6981

                     88                     89                     90
                      A                      A                      A
 Frequencies --   1549.5095              1558.9372              1631.2480
 Red. masses --      1.0697                 1.0667                 6.3531
 Frc consts  --      1.5132                 1.5274                 9.9604
 IR Inten    --      8.6686                 4.4159                 0.3166

                     91                     92                     93
                      A                      A                      A
 Frequencies --   1634.7423              1765.0334              1857.8754
 Red. masses --      5.8599                 9.6705                 9.6046
 Frc consts  --      9.2265                17.7503                19.5326
 IR Inten    --      7.6027               180.3300               319.7806

                     94                     95                     96
                      A                      A                      A
 Frequencies --   3034.1935              3038.5453              3039.2655
 Red. masses --      1.0539                 1.0502                 1.0502
 Frc consts  --      5.7168                 5.7131                 5.7154
 IR Inten    --     29.7737                23.8591                36.4293

                     97                     98                     99
                      A                      A                      A
 Frequencies --   3040.9597              3043.9094              3059.0362
 Red. masses --      1.0485                 1.0468                 1.0686
 Frc consts  --      5.7127                 5.7145                 5.8918
 IR Inten    --     29.7310                24.1254                 6.8634

                    100                    101                    102
                      A                      A                      A
 Frequencies --   3095.0913              3100.3923              3101.2583
 Red. masses --      1.0599                 1.0920                 1.0910
 Frc consts  --      5.9821                 6.1846                 6.1823
 IR Inten    --     21.5752                38.1933                31.7500

                    103                    104                    105
                      A                      A                      A
 Frequencies --   3102.6774              3103.7684              3117.5861
 Red. masses --      1.0934                 1.0919                 1.0815
 Frc consts  --      6.2015                 6.1973                 6.1931
 IR Inten    --      3.2373                 3.7788                16.1490

                    106                    107                    108
                      A                      A                      A
 Frequencies --   3143.6927              3147.7269              3152.8939
 Red. masses --      1.1030                 1.1004                 1.0969
 Frc consts  --      6.4225                 6.4240                 6.4247
 IR Inten    --      3.7109                29.4075                21.8556

                    109                    110                    111
                      A                      A                      A
 Frequencies --   3155.9261              3157.2437              3160.6812
 Red. masses --      1.0963                 1.0967                 1.0964
 Frc consts  --      6.4333                 6.4409                 6.4532
 IR Inten    --     11.9655                 8.7586                 6.8288

                    112                    113                    114
                      A                      A                      A
 Frequencies --   3165.0648              3631.4990              3685.6084
 Red. masses --      1.0988                 1.0782                 1.0640
 Frc consts  --      6.4855                 8.3773                 8.5156
 IR Inten    --      6.2042                20.0040                52.8497

 - Thermochemistry -
 -------------------
 Temperature   298.150 Kelvin.  Pressure   1.00000 Atm.
 Atom     1 has atomic number  6 and mass  12.00000

 Molecular mass:   263.15214 amu.
 Principal axes and moments of inertia in atomic units:
                           1         2         3
     Eigenvalues --  2270.09075********************
           X            1.00000   0.00180   0.00002
           Y           -0.00180   0.99999   0.00396
           Z           -0.00001  -0.00396   0.99999
 This molecule is an asymmetric top.
 Rotational symmetry number  1.
 Warning -- assumption of classical behavior for rotation
           may cause significant error
 Rotational temperatures (Kelvin)      0.03815     0.00791     0.00700
 Rotational constants (GHZ):           0.79501     0.16483     0.14580
 Zero-point vibrational energy     892491.7 (Joules/Mol)
                                  213.31065 (Kcal/Mol)
 Warning -- explicit consideration of  34 degrees of freedom as
           vibrations may cause significant error
 Vibrational temperatures:     19.05    32.12    37.66    62.01    69.83
          (Kelvin)             94.13   104.47   125.95   127.32   176.96
                              195.40   217.53   227.75   245.67   246.79
                              274.94   347.79   402.10   434.33   505.80
                              508.61   516.54   546.87   578.89   601.04
                              623.90   638.51   659.77   676.61   745.11
                              821.58   836.57   838.43   842.68   896.70
                              934.90  1023.55  1038.71  1082.91  1097.54
                             1128.59  1237.35  1246.25  1293.52  1405.18
                             1459.33  1480.91  1489.39  1508.01  1515.30
                             1519.84  1535.12  1555.56  1558.18  1559.51
                             1584.08  1589.89  1605.45  1628.75  1722.29
                             1779.25  1810.36  1871.23  1882.28  1919.38
                             1935.75  1954.11  1987.47  2049.02  2069.46
                             2072.18  2079.67  2085.95  2093.13  2101.29
                             2107.42  2153.80  2159.96  2168.11  2171.22
                             2180.19  2181.57  2198.52  2203.47  2205.61
                             2216.95  2225.51  2229.40  2242.96  2347.00
                             2352.03  2539.49  2673.07  4365.53  4371.79
                             4372.83  4375.26  4379.51  4401.27  4453.15
                             4460.77  4462.02  4464.06  4465.63  4485.51
                             4523.07  4528.88  4536.31  4540.67  4542.57
                             4547.52  4553.82  5224.92  5302.77

 Zero-point correction=                           0.339932 (Hartree/Particle)
 Thermal correction to Energy=                    0.361570
 Thermal correction to Enthalpy=                  0.362514
 Thermal correction to Gibbs Free Energy=         0.285753
 Sum of electronic and zero-point Energies=           -864.450681
 Sum of electronic and thermal Energies=              -864.429044
 Sum of electronic and thermal Enthalpies=            -864.428100
 Sum of electronic and thermal Free Energies=         -864.504861

                     E (Thermal)             CV                S
                      KCal/Mol        Cal/Mol-Kelvin    Cal/Mol-Kelvin
 Total                  226.888             77.209            161.558
 Electronic               0.000              0.000              0.000
 Translational            0.889              2.981             42.602
 Rotational               0.889              2.981             34.086
 Vibrational            225.111             71.247             84.869
 Vibration     1          0.593              1.987              7.453
 Vibration     2          0.593              1.985              6.416
 Vibration     3          0.593              1.985              6.100
 Vibration     4          0.595              1.980              5.111
 Vibration     5          0.595              1.978              4.876
 Vibration     6          0.597              1.971              4.286
 Vibration     7          0.599              1.967              4.081
 Vibration     8          0.601              1.958              3.714
 Vibration     9          0.601              1.957              3.693
 Vibration    10          0.610              1.930              3.053
 Vibration    11          0.614              1.918              2.862
 Vibration    12          0.619              1.901              2.657
 Vibration    13          0.621              1.893              2.570
 Vibration    14          0.626              1.878              2.427
 Vibration    15          0.626              1.878              2.419
 Vibration    16          0.634              1.852              2.217
 Vibration    17          0.658              1.776              1.790
 Vibration    18          0.680              1.712              1.537
 Vibration    19          0.694              1.670              1.407
 Vibration    20          0.728              1.572              1.159
 Vibration    21          0.730              1.568              1.151
 Vibration    22          0.734              1.557              1.126
 Vibration    23          0.750              1.513              1.039
 Vibration    24          0.768              1.465              0.954
 Vibration    25          0.781              1.432              0.900
 Vibration    26          0.794              1.397              0.847
 Vibration    27          0.803              1.375              0.815
 Vibration    28          0.817              1.342              0.770
 Vibration    29          0.827              1.316              0.737
 Vibration    30          0.873              1.210              0.615
 Vibration    31          0.927              1.094              0.502
 Vibration    32          0.938              1.071              0.483
 Vibration    33          0.940              1.069              0.480
 Vibration    34          0.943              1.062              0.475

                           ! Non-Optimized Parameters !
 Normal termination of Gaussian 16 at Sat Dec 12 10:37:06 2020.

 ----------------------------------------------------------------------
 # B3LYP/6-311++G(d,p) empiricaldispersion=gd3bj scf=xqc pop=npa geom=c
 heck
 ----------------------------------------------------------------------

 --------------------------------------
 CID_43240490_JID_9101_Energie_neutraal
 --------------------------------------
 Structure from the checkpoint file:  "JID_9101.chk"
 Charge =  0 Multiplicity = 1

 SCF Done:  E(RB3LYP) =  -865.041787337     A.U. after   15 cycles
 Normal termination of Gaussian 16 at Sat Dec 12 10:44:37 2020.

 ----------------------------------------------------------------------
 # B3LYP/6-311++G(d,p) empiricaldispersion=gd3bj scf=xqc pop=npa geom=c
 heck
 ----------------------------------------------------------------------

 ------------------------------------
 CID_43240490_JID_9101_Energie_kation
 ------------------------------------
 Structure from the checkpoint file:  "JID_9101.chk"
 Charge =  1 Multiplicity = 2

 SCF Done:  E(UB3LYP) =  -864.747454274     A.U. after   33 cycles
 SCF Done:  E(UB3LYP) =  -864.747454274     a.u. after    1 cycles
 Normal termination of Gaussian 16 at Sat Dec 12 11:07:04 2020.
 Gaussian 16:  ES64L-G16RevA.03 25-Dec-2016

 ----------------------------------------------------------------------
 # B3LYP/6-311++G(d,p) empiricaldispersion=gd3bj scf=xqc pop=npa geom=c
 heck
 ----------------------------------------------------------------------

 -----------------------------------
 CID_43240490_JID_9101_Energie_anion
 -----------------------------------
 Structure from the checkpoint file:  "JID_9101.chk"
 Charge = -1 Multiplicity = 2

                         Standard orientation:
 ---------------------------------------------------------------------
 Center     Atomic      Atomic             Coordinates (Angstroms)
 Number     Number       Type             X           Y           Z
 ---------------------------------------------------------------------
      1          6           0        4.987937    0.650773   -0.394092
      2          6           0        3.520448    0.346451   -0.179331
      3          6           0        3.090290   -0.991816   -0.103347
      4          6           0        1.738127   -1.279533    0.150465
      5          6           0        0.834764   -0.215639    0.290764
      6          6           0        1.245155    1.122739    0.199255
      7          6           0        2.598957    1.402902   -0.055598
      8          6           0        3.069657    2.834598   -0.199358
      9          6           0        0.241863    2.241530    0.391703
     10          6           0       -0.621608   -0.518003    0.546469
     11          8           0       -1.098807   -0.725547    1.657361
     12          7           0       -1.383311   -0.556249   -0.588811
     13          6           0       -2.818668   -0.771352   -0.539221
     14          6           0       -3.580488    0.497299   -0.111789
     15          6           0       -5.080208    0.314125   -0.096952
     16          8           0       -5.826618    0.602990    0.809363
     17          8           0       -5.529872   -0.223098   -1.264606
     18          6           0        1.254433   -2.709009    0.274720
     19          6           0        4.087298   -2.113971   -0.299141
     20          1           0        5.627363   -0.120649    0.041253
     21          1           0        5.240367    0.714013   -1.462453
     22          1           0        5.274157    1.601909    0.060491
     23          1           0        2.241831    3.518350   -0.393814
     24          1           0        3.578304    3.190630    0.707369
     25          1           0        3.778812    2.941362   -1.026176
     26          1           0        0.021606    2.764541   -0.548571
     27          1           0       -0.701417    1.869985    0.795628
     28          1           0        0.616005    2.992169    1.095340
     29          1           0       -0.946309   -0.308367   -1.464681
     30          1           0       -3.155171   -1.105420   -1.522793
     31          1           0       -3.012390   -1.570780    0.181197
     32          1           0       -3.268285    0.798487    0.889119
     33          1           0       -3.345776    1.310560   -0.810659
     34          1           0       -6.497410   -0.301583   -1.165934
     35          1           0        1.274106   -3.231794   -0.690545
     36          1           0        1.884118   -3.281705    0.963605
     37          1           0        0.235240   -2.755021    0.661126
     38          1           0        4.709416   -2.266881    0.593696
     39          1           0        3.595234   -3.063335   -0.515442
     40          1           0        4.768015   -1.904062   -1.130297
 ---------------------------------------------------------------------

 SCF Done:  E(UB3LYP) =  -865.035741415     A.U. after   33 cycles
 SCF Done:  E(UB3LYP) =  -865.035741415     a.u. after    1 cycles

 The electronic state is 2-A.
 Alpha  occ. eigenvalues --  -19.08466 -19.03174 -19.00168 -14.25076 -10.22195
 Alpha  occ. eigenvalues --  -10.18443 -10.12561 -10.09824 -10.09293 -10.09269
 Alpha  occ. eigenvalues --  -10.08976 -10.08863 -10.08823 -10.08692 -10.08018
 Alpha  occ. eigenvalues --  -10.07849 -10.07825 -10.07817 -10.07684  -1.02497
 Alpha  occ. eigenvalues --   -0.95211  -0.93661  -0.83887  -0.78114  -0.71219
 Alpha  occ. eigenvalues --   -0.71181  -0.69405  -0.64278  -0.63412  -0.61466
 Alpha  occ. eigenvalues --   -0.60511  -0.57138  -0.55530  -0.52372  -0.50520
 Alpha  occ. eigenvalues --   -0.48630  -0.46800  -0.42719  -0.42297  -0.41255
 Alpha  occ. eigenvalues --   -0.40246  -0.38824  -0.37136  -0.36301  -0.35616
 Alpha  occ. eigenvalues --   -0.34675  -0.33811  -0.33722  -0.33374  -0.32829
 Alpha  occ. eigenvalues --   -0.32699  -0.31782  -0.31601  -0.31126  -0.30888
 Alpha  occ. eigenvalues --   -0.30674  -0.30510  -0.29492  -0.29026  -0.28750
 Alpha  occ. eigenvalues --   -0.27660  -0.26853  -0.25199  -0.24351  -0.24116
 Alpha  occ. eigenvalues --   -0.24041  -0.20374  -0.17535  -0.17209  -0.14412
 Alpha  occ. eigenvalues --   -0.14119   0.03486
 Alpha virt. eigenvalues --    0.05010   0.06127   0.06450   0.07505   0.07643
 Alpha virt. eigenvalues --    0.07741   0.08069   0.08191   0.08325   0.09430
 Alpha virt. eigenvalues --    0.09549   0.09945   0.10157   0.10313   0.11137

  Beta  occ. eigenvalues --  -19.08423 -19.03154 -19.00163 -14.25053 -10.22176
  Beta  occ. eigenvalues --  -10.18441 -10.12542 -10.09804 -10.09293 -10.09269
  Beta  occ. eigenvalues --  -10.08974 -10.08863 -10.08822 -10.08691 -10.07995
  Beta  occ. eigenvalues --  -10.07821 -10.07803 -10.07800 -10.07660  -1.02432
  Beta  occ. eigenvalues --   -0.95197  -0.93604  -0.83849  -0.78103  -0.71201
  Beta  occ. eigenvalues --   -0.71159  -0.69363  -0.64250  -0.63379  -0.61429
  Beta  occ. eigenvalues --   -0.60463  -0.57091  -0.55499  -0.52290  -0.50467
  Beta  occ. eigenvalues --   -0.48583  -0.46778  -0.42683  -0.42284  -0.41210
  Beta  occ. eigenvalues --   -0.40218  -0.38772  -0.37090  -0.36274  -0.35583
  Beta  occ. eigenvalues --   -0.34648  -0.33786  -0.33689  -0.33353  -0.32799
  Beta  occ. eigenvalues --   -0.32676  -0.31744  -0.31573  -0.31100  -0.30860
  Beta  occ. eigenvalues --   -0.30641  -0.30490  -0.29469  -0.28999  -0.28735
  Beta  occ. eigenvalues --   -0.27631  -0.26828  -0.25183  -0.24285  -0.24099
  Beta  occ. eigenvalues --   -0.24024  -0.20338  -0.17509  -0.17192  -0.14396
  Beta  occ. eigenvalues --   -0.14106
  Beta virt. eigenvalues --    0.05392   0.06107   0.06502   0.07205   0.07729
  Beta virt. eigenvalues --    0.07869   0.07975   0.08125   0.08313   0.08745
  Beta virt. eigenvalues --    0.09562   0.09651   0.10092   0.10345   0.10406

 Mulliken charges and spin densities:
               1          2
     1  C    1.145321  -1.839336
     2  C   -0.252469   0.507131
     3  C   -0.320896   0.453738
     4  C    0.194714   0.239963
     5  C    1.004508  -0.106624
     6  C   -0.367021   0.761336
     7  C    0.179832  -0.031341
     8  C   -0.216985  -0.464022
     9  C    0.281104  -1.078319
    10  C   -2.359325   0.775674
    11  O   -0.137777  -0.028141
    12  N    0.162781  -0.102819
    13  C    0.290982  -0.623384
    14  C    0.409352  -0.518666
    15  C   -0.050182  -0.076381
    16  O   -0.297736   0.008700
    17  O   -0.162001   0.023565
    18  C   -0.340383  -0.350459
    19  C    0.049882  -0.760629
    20  H   -0.051832   0.209317
    21  H   -0.079926   0.265540
    22  H   -0.050956   0.210509
    23  H   -0.138832   0.299552
    24  H    0.049555   0.122068
    25  H   -0.133256   0.294185
    26  H   -0.093779   0.283403
    27  H    0.174655   0.055727
    28  H    0.115650   0.037316
    29  H    0.028430   0.246794
    30  H   -0.202748   0.402110
    31  H    0.121904   0.080884
    32  H    0.194319  -0.002193
    33  H   -0.149108   0.373659
    34  H   -0.209039   0.497418
    35  H   -0.003280   0.174086
    36  H    0.101885   0.043830
    37  H    0.194323   0.044999
    38  H    0.053178   0.116714
    39  H   -0.024937   0.181010
    40  H   -0.109908   0.273087
 Sum of Mulliken charges =  -1.00000   1.00000

 Dipole moment (field-independent basis, Debye):
    X=              3.2571    Y=             -1.0996    Z=              1.3285  Tot=              3.6855
 Quadrupole moment (field-independent basis, Debye-Ang):
   XX=           -232.4831   YY=           -149.3772   ZZ=           -155.5970
   XY=             -0.6354   XZ=              3.4101   YZ=              1.5790

 Summary of Natural Population Analysis:

                                       Natural Population
                Natural  -----------------------------------------------
    Atom  No    Charge         Core      Valence    Rydberg      Total
 -----------------------------------------------------------------------
      C    1   -0.29698      0.99964     2.29253    0.00482     3.29698
      C    2   -0.00691      0.99944     1.99740    0.01007     3.00691
      C    3   -0.01582      0.99944     2.00629    0.01010     3.01582
      C    4   -0.00442      0.99944     1.99544    0.00953     3.00442
      C    5   -0.06129      0.99937     2.04970    0.01222     3.06129
      C    6   -0.00509      0.99944     1.99588    0.00977     3.00509
      C    7   -0.01447      0.99944     2.00492    0.01011     3.01447
      C    8   -0.29614      0.99964     2.29178    0.00472     3.29614
      C    9   -0.29761      0.99963     2.29170    0.00628     3.29761
      C   10    0.34059      0.99961     1.63411    0.02569     2.65941
      O   11   -0.32136      0.99988     3.31658    0.00490     4.32136
      N   12   -0.31649      0.99966     2.80604    0.01079     3.81649
      C   13   -0.08919      0.99961     2.07754    0.01204     3.08919
      C   14   -0.24424      0.99957     2.23599    0.00868     3.24424
      C   15    0.40940      0.99972     1.56605    0.02482     2.59060
      O   16   -0.30292      0.99987     3.29698    0.00607     4.30292
      O   17   -0.34860      0.99988     3.34183    0.00690     4.34860
      C   18   -0.29638      0.99963     2.29201    0.00473     3.29638
      C   19   -0.29606      0.99964     2.29172    0.00470     3.29606
      H   20    0.10421      0.00000     0.39470    0.00110     0.39579
      H   21    0.10630      0.00000     0.39221    0.00149     0.39370
      H   22    0.10464      0.00000     0.39428    0.00108     0.39536
      H   23    0.10597      0.00000     0.39303    0.00099     0.39403
      H   24    0.10336      0.00000     0.39548    0.00116     0.39664
      H   25    0.10543      0.00000     0.39344    0.00113     0.39457
      H   26    0.10615      0.00000     0.39264    0.00120     0.39385
      H   27    0.10766      0.00000     0.39140    0.00094     0.39234
      H   28    0.10410      0.00000     0.39510    0.00080     0.39590
      H   29    0.20135      0.00000     0.29488    0.00377     0.29865
      H   30    0.10633      0.00000     0.39210    0.00158     0.39367
      H   31    0.10363      0.00000     0.39514    0.00123     0.39637
      H   32    0.11736      0.00000     0.38152    0.00112     0.38264
      H   33    0.11477      0.00000     0.38357    0.00166     0.38523
      H   34    0.24221      0.00000     0.24928    0.00851     0.25779
      H   35    0.10371      0.00000     0.39519    0.00110     0.39629
      H   36    0.10315      0.00000     0.39592    0.00093     0.39685
      H   37    0.11027      0.00000     0.38890    0.00083     0.38973
      H   38    0.10321      0.00000     0.39558    0.00121     0.39679
      H   39    0.10481      0.00000     0.39422    0.00097     0.39519
      H   40    0.10534      0.00000     0.39352    0.00114     0.39466
 =======================================================================
   * Total *    0.00000     18.99254    51.78660    0.22086    71.00000

 Normal termination of Gaussian 16 at Sat Dec 12 11:28:27 2020.
