 Gaussian 16, Revision A.03,

 -----------------------------------------------------------
 # opt freq B3LYP/6-31G(d) empiricaldispersion=gd3bj scf=xqc
 -----------------------------------------------------------

 -------------------------------
 CID_105434230_JID_1047_neutraal
 -------------------------------
 Symbolic Z-matrix:
 Charge =  0 Multiplicity = 1

 SCF Done:  E(RB3LYP) =  -839.625235272     A.U. after   15 cycles
 SCF Done:  E(RB3LYP) =  -839.629719449     A.U. after   12 cycles
 SCF Done:  E(RB3LYP) =  -839.630444064     A.U. after   11 cycles
 SCF Done:  E(RB3LYP) =  -839.630663619     A.U. after   11 cycles
 SCF Done:  E(RB3LYP) =  -839.630752155     A.U. after   11 cycles
 SCF Done:  E(RB3LYP) =  -839.630823401     A.U. after   10 cycles
 SCF Done:  E(RB3LYP) =  -839.630956706     A.U. after   11 cycles
 SCF Done:  E(RB3LYP) =  -839.631015914     A.U. after   11 cycles
 SCF Done:  E(RB3LYP) =  -839.631061114     A.U. after   11 cycles
 SCF Done:  E(RB3LYP) =  -839.631119190     A.U. after   10 cycles
 SCF Done:  E(RB3LYP) =  -839.631227212     A.U. after    9 cycles
 SCF Done:  E(RB3LYP) =  -839.631227302     A.U. after    7 cycles
 SCF Done:  E(RB3LYP) =  -839.631227317     A.U. after    7 cycles
 SCF Done:  E(RB3LYP) =  -839.631227321     A.U. after    6 cycles
 SCF Done:  E(RB3LYP) =  -839.631227323     A.U. after    6 cycles
 Optimization completed.
    -- Stationary point found.
 Normal termination of Gaussian 16 at Tue Dec  8 19:16:16 2020.

 --------------------------------------------------------------------
 #N Geom=AllCheck Guess=TCheck SCRF=Check GenChk RB3LYP/6-31G(d) Freq
 --------------------------------------------------------------------

 Structure from the checkpoint file:  "JID_1047.chk"
 -------------------------------
 CID_105434230_JID_1047_neutraal
 -------------------------------
 Charge =  0 Multiplicity = 1

 SCF Done:  E(RB3LYP) =  -839.631227323     A.U. after    1 cycles

  Exact polarizability: 133.892   4.663 115.292   0.610  -0.324  68.893
 Approx polarizability: 184.498   5.476 196.416   0.390  -0.640 105.599

                      1                      2                      3
                      A                      A                      A
 Frequencies --     24.3435                37.1526                98.3996
 Red. masses --      1.4972                 3.3992                 2.0980
 Frc consts  --      0.0005                 0.0028                 0.0120
 IR Inten    --      0.0682                 6.8705                 1.4842

                      4                      5                      6
                      A                      A                      A
 Frequencies --    128.8987               146.3888               193.6551
 Red. masses --      3.6438                 4.7028                 2.4183
 Frc consts  --      0.0357                 0.0594                 0.0534
 IR Inten    --      2.2812                 0.8228                 2.2708

                      7                      8                      9
                      A                      A                      A
 Frequencies --    219.5124               286.9310               296.6588
 Red. masses --      3.7945                 2.2623                 3.0561
 Frc consts  --      0.1077                 0.1097                 0.1585
 IR Inten    --      1.4184                11.5323                 0.9498

                     10                     11                     12
                      A                      A                      A
 Frequencies --    331.8959               375.3205               384.0512
 Red. masses --      1.2254                 5.0112                 3.4519
 Frc consts  --      0.0795                 0.4159                 0.3000
 IR Inten    --     73.6924                 7.7544                 7.0188

                     13                     14                     15
                      A                      A                      A
 Frequencies --    415.0851               526.0708               537.5622
 Red. masses --      6.0445                 5.2599                 4.9967
 Frc consts  --      0.6136                 0.8577                 0.8507
 IR Inten    --      1.3821                 6.2146                 4.5580

                     16                     17                     18
                      A                      A                      A
 Frequencies --    565.1311               701.8636               711.4355
 Red. masses --      4.0795                 5.3877                 4.1189
 Frc consts  --      0.7676                 1.5637                 1.2283
 IR Inten    --      3.8641                 3.1433                 1.8415

                     19                     20                     21
                      A                      A                      A
 Frequencies --    793.2811               811.2295               830.0354
 Red. masses --      1.8152                 2.3725                 1.5822
 Frc consts  --      0.6730                 0.9199                 0.6423
 IR Inten    --      2.3760                 6.9123                 8.5983

                     22                     23                     24
                      A                      A                      A
 Frequencies --    846.5709               924.3657               942.8836
 Red. masses --      2.4439                 2.8639                 2.7962
 Frc consts  --      1.0319                 1.4418                 1.4646
 IR Inten    --      0.5869                 0.9359                 9.1701

                     25                     26                     27
                      A                      A                      A
 Frequencies --   1032.5341              1047.9780              1069.1609
 Red. masses --      1.6685                 1.6140                 1.3717
 Frc consts  --      1.0480                 1.0444                 0.9238
 IR Inten    --      6.0341                17.2512                 4.1748

                     28                     29                     30
                      A                      A                      A
 Frequencies --   1070.7208              1079.3067              1090.2010
 Red. masses --      1.3807                 1.3279                 6.0994
 Frc consts  --      0.9326                 0.9114                 4.2712
 IR Inten    --      0.4574                 3.1716               167.8224

                     31                     32                     33
                      A                      A                      A
 Frequencies --   1143.3137              1147.2123              1173.9313
 Red. masses --      2.4902                 1.0920                 3.0903
 Frc consts  --      1.9179                 0.8468                 2.5092
 IR Inten    --      8.4659                 0.7278                15.9112

                     34                     35                     36
                      A                      A                      A
 Frequencies --   1204.4568              1215.3643              1236.8240
 Red. masses --      3.2416                 1.3968                 3.0108
 Frc consts  --      2.7707                 1.2156                 2.7136
 IR Inten    --      1.7146                 0.7078                 1.7634

                     37                     38                     39
                      A                      A                      A
 Frequencies --   1254.4315              1282.1707              1343.4376
 Red. masses --      1.0962                 2.3510                 1.3445
 Frc consts  --      1.0163                 2.2771                 1.4297
 IR Inten    --     10.3327                17.2841                38.7379

                     40                     41                     42
                      A                      A                      A
 Frequencies --   1446.8635              1450.9183              1490.6175
 Red. masses --      1.4540                 1.6302                 1.2786
 Frc consts  --      1.7934                 2.0220                 1.6739
 IR Inten    --      5.1932                 2.7864               167.6121

                     43                     44                     45
                      A                      A                      A
 Frequencies --   1493.0094              1518.3271              1522.7951
 Red. masses --      1.0747                 1.1564                 1.0513
 Frc consts  --      1.4114                 1.5706                 1.4363
 IR Inten    --      6.0422                 2.7960                 1.1832

                     46                     47                     48
                      A                      A                      A
 Frequencies --   1536.2865              1540.3059              1573.6577
 Red. masses --      1.2532                 1.2929                 4.0547
 Frc consts  --      1.7427                 1.8073                 5.9160
 IR Inten    --      4.1553                 2.6023                15.9978

                     49                     50                     51
                      A                      A                      A
 Frequencies --   1612.3099              2982.1210              3041.2162
 Red. masses --      6.2519                 1.0727                 1.0887
 Frc consts  --      9.5755                 5.6205                 5.9328
 IR Inten    --     35.4376                50.7844                34.3722

                     52                     53                     54
                      A                      A                      A
 Frequencies --   3049.5455              3094.2011              3155.3533
 Red. masses --      1.0421                 1.1018                 1.0512
 Frc consts  --      5.7096                 6.2150                 6.1667
 IR Inten    --     30.4013                12.6245                19.3431

                     55                     56                     57
                      A                      A                      A
 Frequencies --   3156.9455              3173.5537              3190.9492
 Red. masses --      1.0602                 1.0926                 1.0895
 Frc consts  --      6.2252                 6.4831                 6.5364
 IR Inten    --      6.9423                13.8522                 3.3179

                     58                     59                     60
                      A                      A                      A
 Frequencies --   3230.0312              3242.6569              3643.7416
 Red. masses --      1.1188                 1.1149                 1.0654
 Frc consts  --      6.8775                 6.9071                 8.3339
 IR Inten    --      0.0281                21.8078                81.3268

 - Thermochemistry -
 -------------------
 Temperature   298.150 Kelvin.  Pressure   1.00000 Atm.
 Atom     1 has atomic number  6 and mass  12.00000

 Molecular mass:   169.05614 amu.
 Principal axes and moments of inertia in atomic units:
                           1         2         3
     Eigenvalues --  1147.182372724.850053703.84142
           X            1.00000  -0.00109   0.00162
           Y            0.00110   1.00000  -0.00162
           Z           -0.00162   0.00162   1.00000
 This molecule is an asymmetric top.
 Rotational symmetry number  1.
 Warning -- assumption of classical behavior for rotation
           may cause significant error
 Rotational temperatures (Kelvin)      0.07550     0.03179     0.02338
 Rotational constants (GHZ):           1.57319     0.66233     0.48726
 Zero-point vibrational energy     470522.2 (Joules/Mol)
                                  112.45751 (Kcal/Mol)
 Warning -- explicit consideration of  16 degrees of freedom as
           vibrations may cause significant error
 Vibrational temperatures:     35.02    53.45   141.58   185.46   210.62
          (Kelvin)            278.63   315.83   412.83   426.83   477.52
                              540.00   552.56   597.21   756.90   773.43
                              813.10  1009.83  1023.60  1141.35  1167.18
                             1194.24  1218.03  1329.96  1356.60  1485.59
                             1507.81  1538.28  1540.53  1552.88  1568.56
                             1644.97  1650.58  1689.03  1732.94  1748.64
                             1779.51  1804.85  1844.76  1932.91  2081.71
                             2087.55  2144.67  2148.11  2184.53  2190.96
                             2210.37  2216.16  2264.14  2319.75  4290.61
                             4375.63  4387.62  4451.87  4539.85  4542.14
                             4566.04  4591.06  4647.29  4665.46  5242.53

 Zero-point correction=                           0.179212 (Hartree/Particle)
 Thermal correction to Energy=                    0.190715
 Thermal correction to Enthalpy=                  0.191659
 Thermal correction to Gibbs Free Energy=         0.140138
 Sum of electronic and zero-point Energies=           -839.452015
 Sum of electronic and thermal Energies=              -839.440513
 Sum of electronic and thermal Enthalpies=            -839.439569
 Sum of electronic and thermal Free Energies=         -839.491089

                     E (Thermal)             CV                S
                      KCal/Mol        Cal/Mol-Kelvin    Cal/Mol-Kelvin
 Total                  119.675             41.637            108.434
 Electronic               0.000              0.000              0.000
 Translational            0.889              2.981             41.283
 Rotational               0.889              2.981             30.827
 Vibrational            117.898             35.676             36.323
 Vibration     1          0.593              1.985              6.244
 Vibration     2          0.594              1.982              5.405
 Vibration     3          0.604              1.950              3.486
 Vibration     4          0.611              1.924              2.962
 Vibration     5          0.617              1.907              2.719
 Vibration     6          0.635              1.849              2.193
 Vibration     7          0.647              1.811              1.963
 Vibration     8          0.684              1.698              1.492
 Vibration     9          0.690              1.680              1.436
 Vibration    10          0.714              1.612              1.251
 Vibration    11          0.746              1.523              1.058
 Vibration    12          0.753              1.504              1.023
 Vibration    13          0.778              1.437              0.909
 Vibration    14          0.881              1.192              0.596
 Vibration    15          0.893              1.167              0.571
 Vibration    16          0.921              1.107              0.514

 Optimization completed.
    -- Stationary point found.
 Normal termination of Gaussian 16 at Tue Dec  8 19:20:11 2020.

 ----------------------------------------------------------------------
 # B3LYP/6-311++G(d,p) empiricaldispersion=gd3bj scf=xqc pop=npa geom=c
 heck
 ----------------------------------------------------------------------

 ---------------------------------------
 CID_105434230_JID_1047_Energie_neutraal
 ---------------------------------------
 Structure from the checkpoint file:  "JID_1047.chk"
 Charge =  0 Multiplicity = 1

 SCF Done:  E(RB3LYP) =  -839.787270939     A.U. after   15 cycles
 Normal termination of Gaussian 16 at Tue Dec  8 19:21:39 2020.

 ----------------------------------------------------------------------
 # B3LYP/6-311++G(d,p) empiricaldispersion=gd3bj scf=xqc pop=npa geom=c
 heck
 ----------------------------------------------------------------------

 -------------------------------------
 CID_105434230_JID_1047_Energie_kation
 -------------------------------------
 Structure from the checkpoint file:  "JID_1047.chk"
 Charge =  1 Multiplicity = 2

 SCF Done:  E(UB3LYP) =  -839.488147780     A.U. after   23 cycles
 Normal termination of Gaussian 16 at Tue Dec  8 19:24:40 2020.
 Gaussian 16:  ES64L-G16RevA.03 25-Dec-2016

 ----------------------------------------------------------------------
 # B3LYP/6-311++G(d,p) empiricaldispersion=gd3bj scf=xqc pop=npa geom=c
 heck
 ----------------------------------------------------------------------

 ------------------------------------
 CID_105434230_JID_1047_Energie_anion
 ------------------------------------
 Structure from the checkpoint file:  "JID_1047.chk"
 Charge = -1 Multiplicity = 2

                         Standard orientation:
 ---------------------------------------------------------------------
 Center     Atomic      Atomic             Coordinates (Angstroms)
 Number     Number       Type             X           Y           Z
 ---------------------------------------------------------------------
      1          6           0       -1.756601    2.045169   -0.034569
      2          6           0       -0.619461    1.066492   -0.006846
      3          6           0       -0.590323   -0.306879    0.011566
      4          7           0        0.686577   -0.856843    0.030265
      5          6           0        1.620333    0.044666    0.022287
      6         16           0        1.026187    1.684850   -0.006003
      7          6           0        3.077321   -0.343215    0.073282
      8          8           0        3.232785   -1.729923   -0.109352
      9          6           0       -1.706775   -1.289056    0.013902
     10          6           0       -3.010790   -1.071786    0.755437
     11          6           0       -3.001477   -1.086760   -0.747643
     12          1           0       -1.723464    2.721037    0.828408
     13          1           0       -1.727534    2.666926   -0.937638
     14          1           0       -2.721020    1.537293   -0.016443
     15          1           0        3.636151    0.192243   -0.706861
     16          1           0        3.496635   -0.023221    1.042504
     17          1           0        2.340492   -2.111927   -0.009034
     18          1           0       -1.323679   -2.304387    0.026359
     19          1           0       -3.437039   -1.923542    1.277561
     20          1           0       -3.147748   -0.126058    1.270280
     21          1           0       -3.132261   -0.151540   -1.282791
     22          1           0       -3.421207   -1.948912   -1.257829
 ---------------------------------------------------------------------

 SCF Done:  E(UB3LYP) =  -839.774097864     A.U. after   33 cycles
 SCF Done:  E(UB3LYP) =  -839.774097864     a.u. after    1 cycles

 The electronic state is 2-A.
 Alpha  occ. eigenvalues --  -88.75397 -19.01381 -14.18954 -10.12266 -10.10415
 Alpha  occ. eigenvalues --  -10.08539 -10.07772 -10.07246 -10.06634 -10.06326
 Alpha  occ. eigenvalues --  -10.06264  -7.84056  -5.80340  -5.79988  -5.79650
 Alpha  occ. eigenvalues --   -0.92295  -0.83995  -0.75188  -0.68810  -0.65176
 Alpha  occ. eigenvalues --   -0.59883  -0.57243  -0.49688  -0.49489  -0.45792
 Alpha  occ. eigenvalues --   -0.42298  -0.39303  -0.37875  -0.36360  -0.35547
 Alpha  occ. eigenvalues --   -0.32292  -0.31772  -0.30060  -0.29430  -0.28318
 Alpha  occ. eigenvalues --   -0.27366  -0.26069  -0.23493  -0.22420  -0.20632
 Alpha  occ. eigenvalues --   -0.19502  -0.17509  -0.16395  -0.15741  -0.10696
 Alpha  occ. eigenvalues --    0.05124
 Alpha virt. eigenvalues --    0.07106   0.07823   0.08347   0.09157   0.09807
 Alpha virt. eigenvalues --    0.11042   0.11342   0.11572   0.12335   0.12667
 Alpha virt. eigenvalues --    0.13841   0.13949   0.14262   0.15170   0.15609

  Beta  occ. eigenvalues --  -88.75380 -19.01382 -14.18923 -10.12285 -10.10143
  Beta  occ. eigenvalues --  -10.08540 -10.07594 -10.07245 -10.06616 -10.06302
  Beta  occ. eigenvalues --  -10.06225  -7.84039  -5.80336  -5.79985  -5.79586
  Beta  occ. eigenvalues --   -0.92283  -0.83801  -0.75147  -0.68596  -0.64924
  Beta  occ. eigenvalues --   -0.59776  -0.57198  -0.49583  -0.49393  -0.45586
  Beta  occ. eigenvalues --   -0.42176  -0.39222  -0.37768  -0.36196  -0.35387
  Beta  occ. eigenvalues --   -0.32219  -0.31512  -0.29939  -0.29314  -0.28189
  Beta  occ. eigenvalues --   -0.27006  -0.26026  -0.23403  -0.22321  -0.20419
  Beta  occ. eigenvalues --   -0.19449  -0.17464  -0.16306  -0.15275  -0.09906
  Beta virt. eigenvalues --    0.07629   0.08291   0.08550   0.08878   0.09919
  Beta virt. eigenvalues --    0.10026   0.11272   0.11845   0.12089   0.12607
  Beta virt. eigenvalues --    0.12747   0.13863   0.14220   0.14712   0.15296

 Mulliken charges and spin densities:
               1          2
     1  C    2.536664  -2.664038
     2  C    0.128689   1.760319
     3  C   -1.050919  -1.093759
     4  N    0.101900   0.012983
     5  C    0.031841   0.265657
     6  S   -0.189656  -0.271763
     7  C   -0.050542  -0.085966
     8  O   -0.318692   0.008669
     9  C   -2.486668   2.210082
    10  C    1.091432  -1.455215
    11  C    0.492523  -0.840454
    12  H   -0.750782   0.933582
    13  H    0.096942   0.043343
    14  H    0.184203  -0.061245
    15  H    0.163348  -0.005106
    16  H   -0.024006   0.197907
    17  H    0.267345   0.010831
    18  H   -0.060972   0.309557
    19  H   -0.687999   0.852037
    20  H   -0.361693   0.498207
    21  H   -0.067446   0.182281
    22  H   -0.045515   0.192093
 Sum of Mulliken charges =  -1.00000   1.00000

 Dipole moment (field-independent basis, Debye):
    X=              4.2389    Y=              0.4898    Z=             -4.1163  Tot=              5.9289
 Quadrupole moment (field-independent basis, Debye-Ang):
   XX=           -134.0944   YY=           -115.0595   ZZ=            -97.5959
   XY=              3.2266   XZ=             10.4615   YZ=             -4.8886

 Summary of Natural Population Analysis:

                                       Natural Population
                Natural  -----------------------------------------------
    Atom  No    Charge         Core      Valence    Rydberg      Total
 -----------------------------------------------------------------------
      C    1   -0.30085      0.99961     2.29377    0.00746     3.30085
      C    2   -0.07664      0.99946     2.06583    0.01135     3.07664
      C    3    0.05555      0.99941     1.92923    0.01581     2.94445
      N    4   -0.26891      0.99961     2.75750    0.01181     3.76891
      C    5    0.06496      0.99961     1.91967    0.01576     2.93504
      S    6    0.18195      4.99940     2.79988    0.01877     7.81805
      C    7   -0.02548      0.99954     2.01324    0.01269     3.02548
      O    8   -0.37526      0.99990     3.36798    0.00739     4.37526
      C    9   -0.11955      0.99956     2.10780    0.01219     3.11955
      C   10   -0.19199      0.99962     2.18243    0.00994     3.19199
      C   11   -0.19396      0.99963     2.18683    0.00751     3.19396
      H   12    0.11225      0.00000     0.38295    0.00481     0.38775
      H   13    0.09993      0.00000     0.39915    0.00092     0.40007
      H   14    0.10703      0.00000     0.39141    0.00156     0.39297
      H   15    0.08493      0.00000     0.41355    0.00152     0.41507
      H   16    0.08547      0.00000     0.41264    0.00188     0.41453
      H   17    0.24229      0.00000     0.25414    0.00357     0.25771
      H   18    0.10956      0.00000     0.38848    0.00196     0.39044
      H   19    0.10375      0.00000     0.39408    0.00217     0.39625
      H   20    0.10479      0.00000     0.39361    0.00161     0.39521
      H   21    0.10062      0.00000     0.39840    0.00098     0.39938
      H   22    0.09958      0.00000     0.39951    0.00091     0.40042
 =======================================================================
   * Total *   -0.00000     14.99536    29.85207    0.15257    45.00000

 Normal termination of Gaussian 16 at Tue Dec  8 19:28:59 2020.
