 Gaussian 16, Revision A.03,

 -----------------------------------------------------------
 # opt freq B3LYP/6-31G(d) empiricaldispersion=gd3bj scf=xqc
 -----------------------------------------------------------

 -------------------------------
 CID_128565686_JID_9730_neutraal
 -------------------------------
 Symbolic Z-matrix:
 Charge =  0 Multiplicity = 1

 SCF Done:  E(RB3LYP) =  -843.666063638     A.U. after   15 cycles
 SCF Done:  E(RB3LYP) =  -843.671148708     A.U. after   12 cycles
 SCF Done:  E(RB3LYP) =  -843.671580584     A.U. after   11 cycles
 SCF Done:  E(RB3LYP) =  -843.671690203     A.U. after   11 cycles
 SCF Done:  E(RB3LYP) =  -843.671756297     A.U. after   10 cycles
 SCF Done:  E(RB3LYP) =  -843.671809143     A.U. after   11 cycles
 SCF Done:  E(RB3LYP) =  -843.671836406     A.U. after   10 cycles
 SCF Done:  E(RB3LYP) =  -843.671843159     A.U. after    9 cycles
 SCF Done:  E(RB3LYP) =  -843.671844978     A.U. after    9 cycles
 SCF Done:  E(RB3LYP) =  -843.671846974     A.U. after    9 cycles
 SCF Done:  E(RB3LYP) =  -843.671848267     A.U. after    9 cycles
 SCF Done:  E(RB3LYP) =  -843.671848508     A.U. after    7 cycles
 Optimization completed.
    -- Stationary point found.
 Normal termination of Gaussian 16 at Sat Dec 12 10:01:15 2020.

 --------------------------------------------------------------------
 #N Geom=AllCheck Guess=TCheck SCRF=Check GenChk RB3LYP/6-31G(d) Freq
 --------------------------------------------------------------------

 Structure from the checkpoint file:  "JID_9730.chk"
 -------------------------------
 CID_128565686_JID_9730_neutraal
 -------------------------------
 Charge =  0 Multiplicity = 1

 SCF Done:  E(RB3LYP) =  -843.671848508     A.U. after    1 cycles

  Exact polarizability: 250.515   3.139 167.769  19.822  -3.133 108.713
 Approx polarizability: 331.616   4.616 269.433  36.320 -12.726 172.195

                      1                      2                      3
                      A                      A                      A
 Frequencies --     27.5072                37.0584                65.9119
 Red. masses --      4.5815                 4.4497                 4.5277
 Frc consts  --      0.0020                 0.0036                 0.0116
 IR Inten    --      0.1720                 0.0908                 0.6474

                      4                      5                      6
                      A                      A                      A
 Frequencies --    100.7192               145.0430               155.8309
 Red. masses --      4.8081                 3.1307                 4.0017
 Frc consts  --      0.0287                 0.0388                 0.0573
 IR Inten    --      1.3732                 1.5143                 0.4843

                      7                      8                      9
                      A                      A                      A
 Frequencies --    208.3246               225.7002               238.8655
 Red. masses --      2.1333                 4.1105                 1.2435
 Frc consts  --      0.0545                 0.1234                 0.0418
 IR Inten    --      4.4735                 1.7810                 1.0924

                     10                     11                     12
                      A                      A                      A
 Frequencies --    253.2336               256.7466               269.8010
 Red. masses --      1.6214                 5.6442                 2.3470
 Frc consts  --      0.0613                 0.2192                 0.1007
 IR Inten    --      4.5655                 0.4960                 2.9987

                     13                     14                     15
                      A                      A                      A
 Frequencies --    277.0554               289.0404               330.8059
 Red. masses --      1.5546                 1.3852                 2.5087
 Frc consts  --      0.0703                 0.0682                 0.1617
 IR Inten    --     20.9603                13.2533                12.4620

                     16                     17                     18
                      A                      A                      A
 Frequencies --    338.2647               348.5812               354.9469
 Red. masses --      2.7656                 3.5242                 4.6841
 Frc consts  --      0.1864                 0.2523                 0.3477
 IR Inten    --     50.8331                 3.6511                 0.4278

                     19                     20                     21
                      A                      A                      A
 Frequencies --    407.2017               415.3378               436.2904
 Red. masses --      2.6640                 2.4698                 3.2354
 Frc consts  --      0.2603                 0.2510                 0.3629
 IR Inten    --      9.5562                 1.0963                 2.9669

                     22                     23                     24
                      A                      A                      A
 Frequencies --    451.3394               473.4710               505.8557
 Red. masses --      2.8821                 2.4718                 2.2441
 Frc consts  --      0.3459                 0.3265                 0.3383
 IR Inten    --      1.4360                 1.3149                 3.2461

                     25                     26                     27
                      A                      A                      A
 Frequencies --    532.8951               582.9230               585.1910
 Red. masses --      3.1576                 4.1842                 4.2887
 Frc consts  --      0.5283                 0.8377                 0.8653
 IR Inten    --      0.9293                 0.7047                 0.0280

                     28                     29                     30
                      A                      A                      A
 Frequencies --    595.9970               639.8504               720.2431
 Red. masses --      5.9170                 6.6869                 4.0482
 Frc consts  --      1.2383                 1.6130                 1.2373
 IR Inten    --      2.9076                 1.4720                 6.6569

                     31                     32                     33
                      A                      A                      A
 Frequencies --    722.1584               748.3486               757.9276
 Red. masses --      6.0935                 3.3435                 1.6067
 Frc consts  --      1.8723                 1.1032                 0.5438
 IR Inten    --      1.9559                 9.3881                57.2711

                     34                     35                     36
                      A                      A                      A
 Frequencies --    782.0856               826.0805               831.1334
 Red. masses --      3.3802                 1.9931                 3.4137
 Frc consts  --      1.2182                 0.8013                 1.3894
 IR Inten    --      1.7721                32.7431                16.2865

                     37                     38                     39
                      A                      A                      A
 Frequencies --    861.9388               882.9361               904.3203
 Red. masses --      1.3896                 3.0718                 3.6107
 Frc consts  --      0.6083                 1.4109                 1.7398
 IR Inten    --      0.2863                 3.7602                 4.5982

                     40                     41                     42
                      A                      A                      A
 Frequencies --    914.4952               919.4496               930.1776
 Red. masses --      2.9266                 1.3586                 1.8777
 Frc consts  --      1.4420                 0.6767                 0.9572
 IR Inten    --      3.4250                 3.5173                 3.0294

                     43                     44                     45
                      A                      A                      A
 Frequencies --    937.2147               958.6207               964.8757
 Red. masses --      2.7359                 1.9736                 1.2230
 Frc consts  --      1.4159                 1.0686                 0.6708
 IR Inten    --     13.5536                11.8272                 0.0508

                     46                     47                     48
                      A                      A                      A
 Frequencies --    965.9152               978.7483              1026.7881
 Red. masses --      1.6413                 2.7133                 1.5178
 Frc consts  --      0.9022                 1.5314                 0.9428
 IR Inten    --      5.7916                 9.9514                 4.8896

                     49                     50                     51
                      A                      A                      A
 Frequencies --   1035.9864              1040.1027              1058.2900
 Red. masses --      2.0111                 2.3162                 1.8173
 Frc consts  --      1.2717                 1.4763                 1.1992
 IR Inten    --      5.2117                80.6535                23.1452

                     52                     53                     54
                      A                      A                      A
 Frequencies --   1080.2174              1105.1518              1128.3392
 Red. masses --      2.7641                 1.9528                 1.9524
 Frc consts  --      1.9003                 1.4052                 1.4645
 IR Inten    --     45.1075                 4.9785                 2.1612

                     55                     56                     57
                      A                      A                      A
 Frequencies --   1136.0256              1164.8531              1183.1846
 Red. masses --      1.8683                 1.7638                 1.1620
 Frc consts  --      1.4206                 1.4101                 0.9584
 IR Inten    --     10.9526                15.4090                 7.9107

                     58                     59                     60
                      A                      A                      A
 Frequencies --   1196.2833              1203.6636              1241.5556
 Red. masses --      2.4068                 1.9984                 1.8178
 Frc consts  --      2.0294                 1.7059                 1.6509
 IR Inten    --     41.4381                57.8255                 2.1338

                     61                     62                     63
                      A                      A                      A
 Frequencies --   1255.8194              1258.2184              1277.1172
 Red. masses --      2.4138                 1.8351                 2.7011
 Frc consts  --      2.2429                 1.7116                 2.5957
 IR Inten    --     47.2468                36.6885               144.2283

                     64                     65                     66
                      A                      A                      A
 Frequencies --   1293.9909              1302.7482              1323.1232
 Red. masses --      2.4960                 1.3548                 1.6650
 Frc consts  --      2.4624                 1.3547                 1.7174
 IR Inten    --     45.7869                 1.8804                32.3988

                     67                     68                     69
                      A                      A                      A
 Frequencies --   1334.5353              1344.1172              1354.4408
 Red. masses --      1.7352                 1.4765                 1.4754
 Frc consts  --      1.8208                 1.5716                 1.5947
 IR Inten    --      1.4269                23.7849                 1.8813

                     70                     71                     72
                      A                      A                      A
 Frequencies --   1398.6153              1403.9878              1413.0546
 Red. masses --      1.3771                 4.3636                 1.3411
 Frc consts  --      1.5871                 5.0678                 1.5777
 IR Inten    --     21.0048                22.7913                14.4706

                     73                     74                     75
                      A                      A                      A
 Frequencies --   1417.2781              1428.2480              1429.9447
 Red. masses --      1.4988                 1.7400                 1.2997
 Frc consts  --      1.7738                 2.0913                 1.5658
 IR Inten    --     15.0896                33.4841                 9.6564

                     76                     77                     78
                      A                      A                      A
 Frequencies --   1446.6918              1449.0779              1460.4915
 Red. masses --      1.5367                 1.4356                 1.3845
 Frc consts  --      1.8950                 1.7762                 1.7399
 IR Inten    --     58.8029                21.1763                 2.5680

                     79                     80                     81
                      A                      A                      A
 Frequencies --   1503.8155              1508.7357              1511.8515
 Red. masses --      2.7802                 1.0785                 1.0958
 Frc consts  --      3.7043                 1.4465                 1.4757
 IR Inten    --     89.7493                 0.3415                18.8638

                     82                     83                     84
                      A                      A                      A
 Frequencies --   1520.5051              1521.1278              1522.1923
 Red. masses --      1.2850                 1.6776                 1.1035
 Frc consts  --      1.7504                 2.2871                 1.5064
 IR Inten    --      2.2402                 2.1936                 1.3694

                     85                     86                     87
                      A                      A                      A
 Frequencies --   1534.2757              1537.7140              1545.2585
 Red. masses --      1.0647                 1.0770                 1.0693
 Frc consts  --      1.4766                 1.5004                 1.5044
 IR Inten    --     11.2634                 4.2012                 2.6756

                     88                     89                     90
                      A                      A                      A
 Frequencies --   1547.0694              1634.5665              1676.9110
 Red. masses --      1.0804                 6.7627                 7.4208
 Frc consts  --      1.5236                10.6458                12.2948
 IR Inten    --     56.0743               418.4345                20.3728

                     91                     92                     93
                      A                      A                      A
 Frequencies --   1696.9737              2993.3809              3027.6086
 Red. masses --      9.0477                 1.0697                 1.0706
 Frc consts  --     15.3511                 5.6473                 5.7821
 IR Inten    --    670.2369                30.0643                17.5300

                     94                     95                     96
                      A                      A                      A
 Frequencies --   3035.9404              3040.1658              3056.8200
 Red. masses --      1.0697                 1.0362                 1.0461
 Frc consts  --      5.8088                 5.6425                 5.7594
 IR Inten    --     37.6107                23.7176                41.8127

                     97                     98                     99
                      A                      A                      A
 Frequencies --   3060.6850              3073.6084              3084.4520
 Red. masses --      1.0595                 1.0855                 1.0900
 Frc consts  --      5.8475                 6.0421                 6.1100
 IR Inten    --     29.9220                21.8880                35.7132

                    100                    101                    102
                      A                      A                      A
 Frequencies --   3094.9559              3105.3900              3110.4495
 Red. masses --      1.0945                 1.1012                 1.0947
 Frc consts  --      6.1772                 6.2565                 6.2400
 IR Inten    --      9.3299                35.3214                22.6837

                    103                    104                    105
                      A                      A                      A
 Frequencies --   3115.6161              3124.7760              3135.7845
 Red. masses --      1.1024                 1.1010                 1.1016
 Frc consts  --      6.3050                 6.3340                 6.3820
 IR Inten    --     16.0711                47.3506                18.4138

                    106                    107                    108
                      A                      A                      A
 Frequencies --   3142.1847              3189.8759              3205.4748
 Red. masses --      1.0954                 1.0862                 1.0905
 Frc consts  --      6.3719                 6.5117                 6.6020
 IR Inten    --     13.2697                 5.1440                18.5730

                    109                    110                    111
                      A                      A                      A
 Frequencies --   3219.4684              3223.8011              3718.2073
 Red. masses --      1.0935                 1.0958                 1.0659
 Frc consts  --      6.6777                 6.7097                 8.6819
 IR Inten    --     18.0397                 9.8734                 9.2168

 - Thermochemistry -
 -------------------
 Temperature   298.150 Kelvin.  Pressure   1.00000 Atm.
 Atom     1 has atomic number  6 and mass  12.00000

 Molecular mass:   260.15248 amu.
 Principal axes and moments of inertia in atomic units:
                           1         2         3
     Eigenvalues --  2115.533418685.330249945.44825
           X            0.99997  -0.00642   0.00505
           Y            0.00638   0.99994   0.00910
           Z           -0.00511  -0.00907   0.99995
 This molecule is an asymmetric top.
 Rotational symmetry number  1.
 Warning -- assumption of classical behavior for rotation
           may cause significant error
 Rotational temperatures (Kelvin)      0.04094     0.00997     0.00871
 Rotational constants (GHZ):           0.85309     0.20779     0.18146
 Zero-point vibrational energy     881456.6 (Joules/Mol)
                                  210.67319 (Kcal/Mol)
 Warning -- explicit consideration of  28 degrees of freedom as
           vibrations may cause significant error
 Vibrational temperatures:     39.58    53.32    94.83   144.91   208.68
          (Kelvin)            224.21   299.73   324.73   343.67   364.35
                              369.40   388.18   398.62   415.86   475.96
                              486.69   501.53   510.69   585.87   597.58
                              627.72   649.38   681.22   727.81   766.72
                              838.70   841.96   857.51   920.60  1036.27
                             1039.02  1076.71  1090.49  1125.25  1188.55
                             1195.82  1240.14  1270.35  1301.12  1315.75
                             1322.88  1338.32  1348.44  1379.24  1388.24
                             1389.74  1408.20  1477.32  1490.55  1496.48
                             1522.64  1554.19  1590.07  1623.43  1634.49
                             1675.96  1702.34  1721.18  1731.80  1786.32
                             1806.84  1810.30  1837.49  1861.76  1874.36
                             1903.68  1920.10  1933.88  1948.74  2012.30
                             2020.03  2033.07  2039.15  2054.93  2057.37
                             2081.47  2084.90  2101.32  2163.66  2170.73
                             2175.22  2187.67  2188.56  2190.10  2207.48
                             2212.43  2223.28  2225.89  2351.78  2412.70
                             2441.57  4306.81  4356.05  4368.04  4374.12
                             4398.08  4403.64  4422.24  4437.84  4452.95
                             4467.96  4475.24  4482.68  4495.86  4511.69
                             4520.90  4589.52  4611.96  4632.10  4638.33
                             5349.67

 Zero-point correction=                           0.335729 (Hartree/Particle)
 Thermal correction to Energy=                    0.352591
 Thermal correction to Enthalpy=                  0.353536
 Thermal correction to Gibbs Free Energy=         0.291421
 Sum of electronic and zero-point Energies=           -843.336119
 Sum of electronic and thermal Energies=              -843.319257
 Sum of electronic and thermal Enthalpies=            -843.318313
 Sum of electronic and thermal Free Energies=         -843.380428

                     E (Thermal)             CV                S
                      KCal/Mol        Cal/Mol-Kelvin    Cal/Mol-Kelvin
 Total                  221.254             68.033            130.732
 Electronic               0.000              0.000              0.000
 Translational            0.889              2.981             42.568
 Rotational               0.889              2.981             33.568
 Vibrational            219.477             62.071             54.595
 Vibration     1          0.593              1.984              6.002
 Vibration     2          0.594              1.982              5.410
 Vibration     3          0.597              1.971              4.272
 Vibration     4          0.604              1.949              3.440
 Vibration     5          0.616              1.908              2.736
 Vibration     6          0.620              1.896              2.600
 Vibration     7          0.642              1.828              2.058
 Vibration     8          0.650              1.802              1.913
 Vibration     9          0.657              1.781              1.811
 Vibration    10          0.664              1.757              1.708
 Vibration    11          0.666              1.751              1.684
 Vibration    12          0.674              1.729              1.597
 Vibration    13          0.678              1.716              1.552
 Vibration    14          0.686              1.694              1.480
 Vibration    15          0.713              1.614              1.256
 Vibration    16          0.719              1.599              1.220
 Vibration    17          0.726              1.578              1.173
 Vibration    18          0.731              1.565              1.144
 Vibration    19          0.772              1.455              0.937
 Vibration    20          0.779              1.437              0.908
 Vibration    21          0.797              1.391              0.838
 Vibration    22          0.810              1.358              0.792
 Vibration    23          0.830              1.309              0.728
 Vibration    24          0.861              1.237              0.644
 Vibration    25          0.888              1.177              0.581
 Vibration    26          0.940              1.068              0.480
 Vibration    27          0.942              1.063              0.476
 Vibration    28          0.954              1.040              0.457

                           ! Non-Optimized Parameters !
 Normal termination of Gaussian 16 at Sat Dec 12 10:22:05 2020.

 ----------------------------------------------------------------------
 # B3LYP/6-311++G(d,p) empiricaldispersion=gd3bj scf=xqc pop=npa geom=c
 heck
 ----------------------------------------------------------------------

 ---------------------------------------
 CID_128565686_JID_9730_Energie_neutraal
 ---------------------------------------
 Structure from the checkpoint file:  "JID_9730.chk"
 Charge =  0 Multiplicity = 1

 SCF Done:  E(RB3LYP) =  -843.904768684     A.U. after   15 cycles
 Normal termination of Gaussian 16 at Sat Dec 12 10:31:15 2020.

 ----------------------------------------------------------------------
 # B3LYP/6-311++G(d,p) empiricaldispersion=gd3bj scf=xqc pop=npa geom=c
 heck
 ----------------------------------------------------------------------

 -------------------------------------
 CID_128565686_JID_9730_Energie_kation
 -------------------------------------
 Structure from the checkpoint file:  "JID_9730.chk"
 Charge =  1 Multiplicity = 2

 SCF Done:  E(UB3LYP) =  -843.637732047     A.U. after   24 cycles
 Normal termination of Gaussian 16 at Sat Dec 12 10:53:05 2020.
 Gaussian 16:  ES64L-G16RevA.03 25-Dec-2016

 ----------------------------------------------------------------------
 # B3LYP/6-311++G(d,p) empiricaldispersion=gd3bj scf=xqc pop=npa geom=c
 heck
 ----------------------------------------------------------------------

 ------------------------------------
 CID_128565686_JID_9730_Energie_anion
 ------------------------------------
 Structure from the checkpoint file:  "JID_9730.chk"
 Charge = -1 Multiplicity = 2

                         Standard orientation:
 ---------------------------------------------------------------------
 Center     Atomic      Atomic             Coordinates (Angstroms)
 Number     Number       Type             X           Y           Z
 ---------------------------------------------------------------------
      1          6           0       -2.573019    2.783446   -0.441113
      2          6           0       -2.137090    1.389289    0.042346
      3          6           0       -3.409678    0.566457    0.336753
      4          6           0       -3.254331   -0.931995    0.626301
      5          6           0       -2.735113   -1.735539   -0.576874
      6          6           0       -1.216064   -1.779238   -0.722057
      7          7           0       -0.580286   -0.457367   -0.723040
      8          6           0       -1.300522    0.754666   -1.096495
      9          6           0        0.743981   -0.431048   -0.453034
     10          7           0        1.509773   -1.450658   -0.165690
     11          6           0        2.766850   -0.878832    0.044983
     12          6           0        3.994895   -1.445504    0.384760
     13          6           0        5.090397   -0.586650    0.522432
     14          6           0        4.973791    0.796910    0.327876
     15          6           0        3.745824    1.380534   -0.015312
     16          6           0        2.683038    0.509436   -0.143712
     17          8           0        1.366859    0.801833   -0.468925
     18          8           0       -4.507203   -1.459071    1.074172
     19          6           0       -1.285535    1.537668    1.313123
     20          1           0       -1.704686    3.434711   -0.594299
     21          1           0       -3.227709    3.263379    0.294657
     22          1           0       -3.122813    2.723367   -1.388732
     23          1           0       -3.926037    1.013444    1.194599
     24          1           0       -4.092719    0.661642   -0.523597
     25          1           0       -2.580476   -1.086818    1.476179
     26          1           0       -3.208505   -1.367454   -1.497955
     27          1           0       -3.067239   -2.771491   -0.449237
     28          1           0       -0.944817   -2.322471   -1.638071
     29          1           0       -0.782269   -2.340918    0.110127
     30          1           0       -1.949684    0.529567   -1.951160
     31          1           0       -0.563162    1.480706   -1.442291
     32          1           0        4.088100   -2.515887    0.535490
     33          1           0        6.058386   -1.002301    0.787320
     34          1           0        5.847420    1.430839    0.444464
     35          1           0        3.636722    2.448656   -0.169661
     36          1           0       -5.158225   -1.280973    0.375814
     37          1           0       -0.386699    2.130140    1.115258
     38          1           0       -1.861966    2.040276    2.097865
     39          1           0       -0.961821    0.568049    1.702506
 ---------------------------------------------------------------------

 SCF Done:  E(UB3LYP) =  -843.895264249     A.U. after   33 cycles
 SCF Done:  E(UB3LYP) =  -843.895264249     a.u. after    1 cycles

 The electronic state is 2-A.
 Alpha  occ. eigenvalues --  -19.10559 -19.02756 -14.26198 -14.20944 -10.20937
 Alpha  occ. eigenvalues --  -10.14578 -10.13040 -10.11938 -10.11905 -10.11537
 Alpha  occ. eigenvalues --  -10.09820 -10.09718 -10.09339 -10.09238 -10.09101
 Alpha  occ. eigenvalues --  -10.07972 -10.07143 -10.06716 -10.06618  -1.04273
 Alpha  occ. eigenvalues --   -0.93026  -0.88197  -0.83260  -0.76811  -0.73720
 Alpha  occ. eigenvalues --   -0.70178  -0.66970  -0.65882  -0.62529  -0.61157
 Alpha  occ. eigenvalues --   -0.59769  -0.57355  -0.53522  -0.52758  -0.51312
 Alpha  occ. eigenvalues --   -0.48878  -0.46271  -0.44375  -0.43382  -0.42015
 Alpha  occ. eigenvalues --   -0.41102  -0.39791  -0.38890  -0.37570  -0.36692
 Alpha  occ. eigenvalues --   -0.36149  -0.35639  -0.35143  -0.33929  -0.33035
 Alpha  occ. eigenvalues --   -0.32073  -0.31189  -0.30081  -0.29528  -0.28998
 Alpha  occ. eigenvalues --   -0.28841  -0.27764  -0.27444  -0.27201  -0.26284
 Alpha  occ. eigenvalues --   -0.25784  -0.25165  -0.24209  -0.23549  -0.22167
 Alpha  occ. eigenvalues --   -0.20272  -0.19177  -0.18048  -0.16439  -0.11989
 Alpha  occ. eigenvalues --    0.04008
 Alpha virt. eigenvalues --    0.05541   0.06302   0.06663   0.07395   0.07546
 Alpha virt. eigenvalues --    0.07955   0.08243   0.08646   0.09341   0.09810
 Alpha virt. eigenvalues --    0.09958   0.10375   0.11249   0.11594   0.12218

  Beta  occ. eigenvalues --  -19.10551 -19.02726 -14.26200 -14.20946 -10.20918
  Beta  occ. eigenvalues --  -10.14582 -10.13038 -10.11929 -10.11898 -10.11510
  Beta  occ. eigenvalues --  -10.09794 -10.09717 -10.09338 -10.09225 -10.09082
  Beta  occ. eigenvalues --  -10.07941 -10.07112 -10.06700 -10.06583  -1.04257
  Beta  occ. eigenvalues --   -0.92968  -0.88181  -0.83248  -0.76785  -0.73696
  Beta  occ. eigenvalues --   -0.70144  -0.66934  -0.65849  -0.62489  -0.61115
  Beta  occ. eigenvalues --   -0.59721  -0.57312  -0.53490  -0.52716  -0.51267
  Beta  occ. eigenvalues --   -0.48832  -0.46233  -0.44338  -0.43356  -0.41983
  Beta  occ. eigenvalues --   -0.41065  -0.39757  -0.38840  -0.37541  -0.36665
  Beta  occ. eigenvalues --   -0.36112  -0.35602  -0.35111  -0.33897  -0.33016
  Beta  occ. eigenvalues --   -0.32035  -0.31158  -0.30053  -0.29498  -0.28971
  Beta  occ. eigenvalues --   -0.28807  -0.27709  -0.27408  -0.27171  -0.26250
  Beta  occ. eigenvalues --   -0.25742  -0.25136  -0.24174  -0.23504  -0.22122
  Beta  occ. eigenvalues --   -0.20268  -0.19133  -0.18015  -0.16362  -0.11956
  Beta virt. eigenvalues --    0.05666   0.06437   0.06632   0.07194   0.07864
  Beta virt. eigenvalues --    0.07994   0.08205   0.08547   0.09085   0.09686
  Beta virt. eigenvalues --    0.09998   0.10243   0.10689   0.11475   0.11948

 Mulliken charges and spin densities:
               1          2
     1  C    0.975887  -1.451579
     2  C   -2.237308   3.147697
     3  C    1.000062  -1.546788
     4  C   -0.830113   0.509100
     5  C    0.378410  -0.611651
     6  C   -0.079918  -0.290678
     7  N   -0.115161   0.230220
     8  C    1.609402  -2.469864
     9  C    0.016904  -0.446133
    10  N   -0.023254  -0.004031
    11  C    0.946119  -0.580001
    12  C   -1.230756   0.702860
    13  C    0.090673  -0.237130
    14  C    0.148156  -0.375064
    15  C   -1.465921   0.959052
    16  C    1.291126  -0.772467
    17  O   -0.055964   0.014312
    18  O   -0.183570  -0.007223
    19  C   -0.012493  -0.610813
    20  H   -0.077699   0.213333
    21  H   -0.211570   0.359131
    22  H   -0.385524   0.545586
    23  H    0.167759   0.020618
    24  H   -0.463691   0.635034
    25  H    0.062498   0.139014
    26  H   -0.423200   0.613349
    27  H   -0.153428   0.347707
    28  H   -0.012272   0.217772
    29  H    0.265490  -0.059823
    30  H   -0.104789   0.323585
    31  H    0.083973   0.179285
    32  H    0.065492   0.084392
    33  H    0.056607   0.091059
    34  H   -0.033133   0.186893
    35  H   -0.298837   0.458794
    36  H   -0.044482   0.304612
    37  H    0.165982   0.004557
    38  H   -0.050266   0.217416
    39  H    0.168811  -0.042135
 Sum of Mulliken charges =  -1.00000   1.00000

 Dipole moment (field-independent basis, Debye):
    X=              6.8253    Y=             -1.4913    Z=              2.9162  Tot=              7.5705
 Quadrupole moment (field-independent basis, Debye-Ang):
   XX=           -215.3058   YY=           -159.6486   ZZ=           -153.0945
   XY=             -2.2470   XZ=             -8.1847   YZ=              2.1755

 Summary of Natural Population Analysis:

                                       Natural Population
                Natural  -----------------------------------------------
    Atom  No    Charge         Core      Valence    Rydberg      Total
 -----------------------------------------------------------------------
      C    1   -0.28266      0.99963     2.27544    0.00759     3.28266
      C    2   -0.05113      0.99956     2.03886    0.01271     3.05113
      C    3   -0.20077      0.99957     2.18923    0.01197     3.20077
      C    4    0.06460      0.99954     1.92276    0.01311     2.93540
      C    5   -0.21097      0.99960     2.20192    0.00945     3.21097
      C    6   -0.07699      0.99960     2.06701    0.01039     3.07699
      N    7   -0.25036      0.99961     2.73984    0.01091     3.75036
      C    8   -0.08559      0.99955     2.07306    0.01298     3.08559
      C    9    0.37866      0.99954     1.60266    0.01914     2.62134
      N   10   -0.29027      0.99966     2.78264    0.00797     3.79027
      C   11    0.05385      0.99944     1.93415    0.01255     2.94615
      C   12   -0.10887      0.99953     2.10060    0.00874     3.10887
      C   13   -0.10984      0.99958     2.10063    0.00963     3.10984
      C   14   -0.11173      0.99958     2.10256    0.00958     3.11173
      C   15   -0.11960      0.99951     2.11051    0.00957     3.11960
      C   16    0.13315      0.99932     1.85430    0.01322     2.86685
      O   17   -0.24994      0.99985     3.24374    0.00635     4.24994
      O   18   -0.37063      0.99990     3.36452    0.00622     4.37063
      C   19   -0.28765      0.99962     2.28117    0.00686     3.28765
      H   20    0.10037      0.00000     0.39846    0.00117     0.39963
      H   21    0.10170      0.00000     0.39720    0.00110     0.39830
      H   22    0.10443      0.00000     0.39400    0.00157     0.39557
      H   23    0.10497      0.00000     0.39378    0.00125     0.39503
      H   24    0.10183      0.00000     0.39517    0.00300     0.39817
      H   25    0.08451      0.00000     0.41340    0.00209     0.41549
      H   26    0.10236      0.00000     0.39503    0.00261     0.39764
      H   27    0.11114      0.00000     0.38786    0.00100     0.38886
      H   28    0.09798      0.00000     0.40085    0.00116     0.40202
      H   29    0.10532      0.00000     0.39309    0.00159     0.39468
      H   30    0.10581      0.00000     0.39227    0.00192     0.39419
      H   31    0.11154      0.00000     0.38625    0.00221     0.38846
      H   32    0.10313      0.00000     0.39555    0.00133     0.39687
      H   33    0.09862      0.00000     0.40062    0.00076     0.40138
      H   34    0.09991      0.00000     0.39929    0.00080     0.40009
      H   35    0.10891      0.00000     0.38999    0.00110     0.39109
      H   36    0.22867      0.00000     0.26775    0.00358     0.27133
      H   37    0.10489      0.00000     0.39403    0.00108     0.39511
      H   38    0.10078      0.00000     0.39848    0.00074     0.39922
      H   39    0.09988      0.00000     0.39917    0.00095     0.40012
 =======================================================================
   * Total *   -0.00000     18.99221    50.77786    0.22994    70.00000

 Normal termination of Gaussian 16 at Sat Dec 12 11:22:09 2020.
