 Gaussian 16, Revision A.03,

 -----------------------------------------------------------
 # opt freq B3LYP/6-31G(d) empiricaldispersion=gd3bj scf=xqc
 -----------------------------------------------------------

 ------------------------------
 CID_150426484_JID_294_neutraal
 ------------------------------
 Symbolic Z-matrix:
 Charge =  0 Multiplicity = 1

 SCF Done:  E(RB3LYP) =  -461.047497791     A.U. after   15 cycles
 SCF Done:  E(RB3LYP) =  -461.051375094     A.U. after   13 cycles
 SCF Done:  E(RB3LYP) =  -461.051833808     A.U. after   14 cycles
 SCF Done:  E(RB3LYP) =  -461.052044796     A.U. after   13 cycles
 SCF Done:  E(RB3LYP) =  -461.052248711     A.U. after   14 cycles
 SCF Done:  E(RB3LYP) =  -461.052381056     A.U. after   13 cycles
 SCF Done:  E(RB3LYP) =  -461.052505505     A.U. after   15 cycles
 SCF Done:  E(RB3LYP) =  -461.052524244     A.U. after   13 cycles
 SCF Done:  E(RB3LYP) =  -461.052529671     A.U. after   11 cycles
 SCF Done:  E(RB3LYP) =  -461.052535517     A.U. after   12 cycles
 SCF Done:  E(RB3LYP) =  -461.052536251     A.U. after   10 cycles
 SCF Done:  E(RB3LYP) =  -461.052537418     A.U. after   12 cycles
 SCF Done:  E(RB3LYP) =  -461.052537538     A.U. after   10 cycles
 SCF Done:  E(RB3LYP) =  -461.052537561     A.U. after   10 cycles
 SCF Done:  E(RB3LYP) =  -461.052537561     A.U. after   10 cycles
 Optimization completed.
    -- Stationary point found.
 Normal termination of Gaussian 16 at Tue Dec  8 10:25:34 2020.

 --------------------------------------------------------------------
 #N Geom=AllCheck Guess=TCheck SCRF=Check GenChk RB3LYP/6-31G(d) Freq
 --------------------------------------------------------------------

 Structure from the checkpoint file:  "JID_294.chk"
 ------------------------------
 CID_150426484_JID_294_neutraal
 ------------------------------
 Charge =  0 Multiplicity = 1

 SCF Done:  E(RB3LYP) =  -461.052537561     A.U. after    1 cycles

  Exact polarizability: 105.728   3.130  94.703   1.667   1.473  77.495
 Approx polarizability: 136.420   9.707 129.789   4.139   4.225 115.865

                      1                      2                      3
                      A                      A                      A
 Frequencies --     27.7495                33.6309                71.8385
 Red. masses --      7.5232                 3.2680                 2.5837
 Frc consts  --      0.0034                 0.0022                 0.0079
 IR Inten    --      0.2740                 0.1345                 0.2405

                      4                      5                      6
                      A                      A                      A
 Frequencies --     88.0969               111.2780               144.1568
 Red. masses --      2.5383                 2.6449                 3.0608
 Frc consts  --      0.0116                 0.0193                 0.0375
 IR Inten    --      0.1680                 0.4358                 0.7506

                      7                      8                      9
                      A                      A                      A
 Frequencies --    186.7667               201.0629               233.9190
 Red. masses --      2.7862                 1.5083                 1.2222
 Frc consts  --      0.0573                 0.0359                 0.0394
 IR Inten    --      0.5841                 0.1207                 0.3450

                     10                     11                     12
                      A                      A                      A
 Frequencies --    279.6279               298.2163               328.8901
 Red. masses --      1.6327                 3.7527                 1.8933
 Frc consts  --      0.0752                 0.1966                 0.1207
 IR Inten    --      0.3383                 0.8867                 7.5449

                     13                     14                     15
                      A                      A                      A
 Frequencies --    366.4439               437.2407               461.4973
 Red. masses --      2.2259                 3.3281                 2.5632
 Frc consts  --      0.1761                 0.3749                 0.3216
 IR Inten    --      3.0130                 1.7868                 1.2194

                     16                     17                     18
                      A                      A                      A
 Frequencies --    498.0110               678.8167               744.7102
 Red. masses --      3.2249                 3.0239                 1.4034
 Frc consts  --      0.4712                 0.8210                 0.4586
 IR Inten    --      4.1533                 0.9305                62.1648

                     19                     20                     21
                      A                      A                      A
 Frequencies --    759.4822               795.4332               827.7884
 Red. masses --      1.2734                 1.2710                 2.6030
 Frc consts  --      0.4328                 0.4738                 1.0509
 IR Inten    --     16.2671                11.8783                16.4601

                     22                     23                     24
                      A                      A                      A
 Frequencies --    864.8166               886.2791               911.2798
 Red. masses --      1.8977                 1.9118                 2.0951
 Frc consts  --      0.8362                 0.8848                 1.0251
 IR Inten    --      2.4821                 3.0138                 9.1222

                     25                     26                     27
                      A                      A                      A
 Frequencies --    948.3495              1004.6055              1038.1028
 Red. masses --      1.6857                 1.7162                 1.8537
 Frc consts  --      0.8933                 1.0205                 1.1770
 IR Inten    --      1.0650                 4.0320                 6.5963

                     28                     29                     30
                      A                      A                      A
 Frequencies --   1058.8076              1090.2331              1103.1772
 Red. masses --      2.2102                 2.3454                 2.0550
 Frc consts  --      1.4599                 1.6425                 1.4735
 IR Inten    --     18.9395                24.4591                 1.8705

                     31                     32                     33
                      A                      A                      A
 Frequencies --   1122.4146              1141.5776              1187.8396
 Red. masses --      1.6302                 1.8589                 3.0181
 Frc consts  --      1.2100                 1.4273                 2.5090
 IR Inten    --      3.5425                 2.3701                60.9049

                     34                     35                     36
                      A                      A                      A
 Frequencies --   1206.1446              1253.0207              1290.1618
 Red. masses --      1.8984                 1.4130                 1.1560
 Frc consts  --      1.6272                 1.3071                 1.1337
 IR Inten    --      2.1848                 1.7551                 0.0717

                     37                     38                     39
                      A                      A                      A
 Frequencies --   1292.9801              1331.4254              1355.9027
 Red. masses --      1.2553                 1.1969                 1.1952
 Frc consts  --      1.2364                 1.2501                 1.2947
 IR Inten    --      2.9174                 1.7825                 3.7435

                     40                     41                     42
                      A                      A                      A
 Frequencies --   1375.3465              1388.7410              1398.6097
 Red. masses --      1.4624                 1.3422                 1.3077
 Frc consts  --      1.6299                 1.5252                 1.5071
 IR Inten    --     15.3335                11.1125                16.4964

                     43                     44                     45
                      A                      A                      A
 Frequencies --   1402.7988              1425.3128              1434.8106
 Red. masses --      1.3860                 1.3461                 1.2476
 Frc consts  --      1.6070                 1.6112                 1.5133
 IR Inten    --      2.1149                 2.4574                11.9528

                     46                     47                     48
                      A                      A                      A
 Frequencies --   1444.9262              1507.4816              1511.8917
 Red. masses --      1.2579                 1.0858                 1.1114
 Frc consts  --      1.5473                 1.4537                 1.4968
 IR Inten    --      5.2023                13.5319                 5.1955

                     49                     50                     51
                      A                      A                      A
 Frequencies --   1516.9344              1522.4687              1528.3533
 Red. masses --      1.0826                 1.0619                 1.0801
 Frc consts  --      1.4677                 1.4503                 1.4864
 IR Inten    --      4.8228                 2.6967                 8.7413

                     52                     53                     54
                      A                      A                      A
 Frequencies --   1530.2253              1535.4782              1537.5419
 Red. masses --      1.0599                 1.0707                 1.0631
 Frc consts  --      1.4623                 1.4873                 1.4807
 IR Inten    --      3.5567                 8.6477                 4.9755

                     55                     56                     57
                      A                      A                      A
 Frequencies --   1541.9416              1662.0414              2958.0317
 Red. masses --      1.1089                13.6873                 1.0725
 Frc consts  --      1.5533                22.2767                 5.5293
 IR Inten    --     22.9050               110.9319                54.1665

                     58                     59                     60
                      A                      A                      A
 Frequencies --   3034.6877              3041.3876              3045.6112
 Red. masses --      1.0628                 1.0377                 1.0598
 Frc consts  --      5.7667                 5.6556                 5.7919
 IR Inten    --     27.5442                19.2678                42.3136

                     61                     62                     63
                      A                      A                      A
 Frequencies --   3048.8295              3051.5735              3060.0860
 Red. masses --      1.0392                 1.0635                 1.0875
 Frc consts  --      5.6912                 5.8349                 5.9997
 IR Inten    --     15.6983                 3.3440                27.7385

                     64                     65                     66
                      A                      A                      A
 Frequencies --   3064.2060              3069.8416              3079.9284
 Red. masses --      1.0841                 1.0935                 1.1035
 Frc consts  --      5.9974                 6.0714                 6.1672
 IR Inten    --     22.7461                27.8749                12.7241

                     67                     68                     69
                      A                      A                      A
 Frequencies --   3098.6302              3108.5009              3116.0024
 Red. masses --      1.1033                 1.1019                 1.1024
 Frc consts  --      6.2414                 6.2736                 6.3064
 IR Inten    --     31.3895                48.6619                44.6651

                     70                     71                     72
                      A                      A                      A
 Frequencies --   3119.2842              3119.6807              3500.1656
 Red. masses --      1.1023                 1.1021                 1.0733
 Frc consts  --      6.3192                 6.3196                 7.7472
 IR Inten    --     37.2055                58.2871                 0.8501

 - Thermochemistry -
 -------------------
 Temperature   298.150 Kelvin.  Pressure   1.00000 Atm.
 Atom     1 has atomic number  6 and mass  12.00000

 Molecular mass:   144.12626 amu.
 Principal axes and moments of inertia in atomic units:
                           1         2         3
     Eigenvalues --  1275.005802232.945503133.29740
           X            0.99838  -0.05672  -0.00426
           Y            0.05668   0.99836  -0.00750
           Z            0.00467   0.00724   0.99996
 This molecule is an asymmetric top.
 Rotational symmetry number  1.
 Warning -- assumption of classical behavior for rotation
           may cause significant error
 Rotational temperatures (Kelvin)      0.06793     0.03879     0.02764
 Rotational constants (GHZ):           1.41548     0.80823     0.57599
 Zero-point vibrational energy     612746.0 (Joules/Mol)
                                  146.44980 (Kcal/Mol)
 Warning -- explicit consideration of  16 degrees of freedom as
           vibrations may cause significant error
 Vibrational temperatures:     39.93    48.39   103.36   126.75   160.10
          (Kelvin)            207.41   268.72   289.28   336.56   402.32
                              429.07   473.20   527.23   629.09   663.99
                              716.53   976.67  1071.47  1092.73  1144.45
                             1191.00  1244.28  1275.16  1311.13  1364.46
                             1445.40  1493.60  1523.39  1568.60  1587.23
                             1614.90  1642.48  1709.04  1735.37  1802.82
                             1856.26  1860.31  1915.62  1950.84  1978.82
                             1998.09  2012.29  2018.31  2050.71  2064.37
                             2078.93  2168.93  2175.27  2182.53  2190.49
                             2198.96  2201.65  2209.21  2212.18  2218.51
                             2391.31  4255.95  4366.24  4375.88  4381.96
                             4386.59  4390.53  4402.78  4408.71  4416.82
                             4431.33  4458.24  4472.44  4483.23  4487.95
                             4488.52  5035.96

 Zero-point correction=                           0.233383 (Hartree/Particle)
 Thermal correction to Energy=                    0.245932
 Thermal correction to Enthalpy=                  0.246876
 Thermal correction to Gibbs Free Energy=         0.193050
 Sum of electronic and zero-point Energies=           -460.819155
 Sum of electronic and thermal Energies=              -460.806606
 Sum of electronic and thermal Enthalpies=            -460.805662
 Sum of electronic and thermal Free Energies=         -460.859487

                     E (Thermal)             CV                S
                      KCal/Mol        Cal/Mol-Kelvin    Cal/Mol-Kelvin
 Total                  154.324             43.932            113.285
 Electronic               0.000              0.000              0.000
 Translational            0.889              2.981             40.808
 Rotational               0.889              2.981             30.568
 Vibrational            152.547             37.970             41.909
 Vibration     1          0.593              1.984              5.984
 Vibration     2          0.594              1.983              5.603
 Vibration     3          0.598              1.967              4.102
 Vibration     4          0.601              1.958              3.702
 Vibration     5          0.607              1.940              3.246
 Vibration     6          0.616              1.909              2.748
 Vibration     7          0.632              1.858              2.260
 Vibration     8          0.638              1.838              2.123
 Vibration     9          0.654              1.789              1.849
 Vibration    10          0.680              1.711              1.536
 Vibration    11          0.691              1.677              1.427
 Vibration    12          0.712              1.618              1.266
 Vibration    13          0.739              1.541              1.095
 Vibration    14          0.798              1.389              0.835
 Vibration    15          0.819              1.335              0.762
 Vibration    16          0.853              1.254              0.663

 Optimization completed.
    -- Stationary point found.
 Normal termination of Gaussian 16 at Tue Dec  8 10:30:28 2020.

 ----------------------------------------------------------------------
 # B3LYP/6-311++G(d,p) empiricaldispersion=gd3bj scf=xqc pop=npa geom=c
 heck
 ----------------------------------------------------------------------

 --------------------------------------
 CID_150426484_JID_294_Energie_neutraal
 --------------------------------------
 Structure from the checkpoint file:  "JID_294.chk"
 Charge =  0 Multiplicity = 1

 SCF Done:  E(RB3LYP) =  -461.191227458     A.U. after   15 cycles
 Normal termination of Gaussian 16 at Tue Dec  8 10:33:18 2020.

 ----------------------------------------------------------------------
 # B3LYP/6-311++G(d,p) empiricaldispersion=gd3bj scf=xqc pop=npa geom=c
 heck
 ----------------------------------------------------------------------

 ------------------------------------
 CID_150426484_JID_294_Energie_kation
 ------------------------------------
 Structure from the checkpoint file:  "JID_294.chk"
 Charge =  1 Multiplicity = 2

 SCF Done:  E(UB3LYP) =  -460.896195470     A.U. after   25 cycles
 Normal termination of Gaussian 16 at Tue Dec  8 10:44:24 2020.
 Gaussian 16:  ES64L-G16RevA.03 25-Dec-2016

 ----------------------------------------------------------------------
 # B3LYP/6-311++G(d,p) empiricaldispersion=gd3bj scf=xqc pop=npa geom=c
 heck
 ----------------------------------------------------------------------

 -----------------------------------
 CID_150426484_JID_294_Energie_anion
 -----------------------------------
 Structure from the checkpoint file:  "JID_294.chk"
 Charge = -1 Multiplicity = 2

                         Standard orientation:
 ---------------------------------------------------------------------
 Center     Atomic      Atomic             Coordinates (Angstroms)
 Number     Number       Type             X           Y           Z
 ---------------------------------------------------------------------
      1          6           0       -2.091847    2.321885   -0.614067
      2          6           0       -1.339652    1.802531    0.614456
      3          6           0       -1.445818    0.283731    0.819287
      4          6           0       -0.864052   -0.551163   -0.335141
      5          6           0        0.618867   -0.296697   -0.624248
      6          7           0        1.427272   -0.313329    0.585686
      7          6           0        2.866890   -0.433928    0.362684
      8          6           0        3.527935    0.713504   -0.414221
      9          7           0       -1.031490   -1.997177    0.045086
     10          8           0       -2.127863   -2.425632   -0.247161
     11          1           0       -1.662562    1.938684   -1.546342
     12          1           0       -2.057948    3.415681   -0.661155
     13          1           0       -3.145380    2.019196   -0.585385
     14          1           0       -0.284745    2.102304    0.548436
     15          1           0       -1.734832    2.290776    1.514434
     16          1           0       -0.939662   -0.007109    1.747158
     17          1           0       -2.500377    0.002748    0.930308
     18          1           0       -1.460431   -0.390934   -1.241535
     19          1           0        0.983456   -1.101263   -1.276013
     20          1           0        0.698137    0.635212   -1.212389
     21          1           0        1.240820    0.520399    1.138872
     22          1           0        3.342316   -0.531669    1.346254
     23          1           0        3.038224   -1.383385   -0.160516
     24          1           0        3.372963    1.671810    0.097841
     25          1           0        4.608677    0.552820   -0.503620
     26          1           0        3.119831    0.804152   -1.426958
 ---------------------------------------------------------------------

 SCF Done:  E(UB3LYP) =  -461.200993494     A.U. after   32 cycles

 The electronic state is 2-A.
 Alpha  occ. eigenvalues --  -18.93534 -14.17221 -14.16926 -10.08132 -10.05888
 Alpha  occ. eigenvalues --  -10.05426 -10.05241 -10.05160 -10.03276 -10.03210
 Alpha  occ. eigenvalues --   -0.92885  -0.78516  -0.68238  -0.64182  -0.61211
 Alpha  occ. eigenvalues --   -0.55698  -0.52292  -0.48677  -0.46330  -0.41328
 Alpha  occ. eigenvalues --   -0.36329  -0.35081  -0.34020  -0.32497  -0.31665
 Alpha  occ. eigenvalues --   -0.30117  -0.29508  -0.28257  -0.27293  -0.26137
 Alpha  occ. eigenvalues --   -0.25394  -0.24075  -0.23360  -0.23178  -0.21540
 Alpha  occ. eigenvalues --   -0.21079  -0.18715  -0.17652  -0.10317  -0.01344
 Alpha  occ. eigenvalues --    0.04975
 Alpha virt. eigenvalues --    0.06653   0.07664   0.08998   0.09504   0.10439
 Alpha virt. eigenvalues --    0.10868   0.11395   0.12599   0.13439   0.13670
 Alpha virt. eigenvalues --    0.13809   0.14486   0.14894   0.15661   0.16769

  Beta  occ. eigenvalues --  -18.92741 -14.17212 -14.15988 -10.08125 -10.05863
  Beta  occ. eigenvalues --  -10.05402 -10.05220 -10.05153 -10.03320 -10.03174
  Beta  occ. eigenvalues --   -0.91281  -0.78491  -0.68129  -0.64086  -0.60997
  Beta  occ. eigenvalues --   -0.55611  -0.51836  -0.48533  -0.45547  -0.40849
  Beta  occ. eigenvalues --   -0.36211  -0.34952  -0.33740  -0.32303  -0.31620
  Beta  occ. eigenvalues --   -0.29965  -0.29378  -0.27871  -0.26892  -0.25590
  Beta  occ. eigenvalues --   -0.25308  -0.23834  -0.23125  -0.21858  -0.21140
  Beta  occ. eigenvalues --   -0.20394  -0.17616  -0.16226  -0.10228  -0.00410
  Beta virt. eigenvalues --    0.06964   0.07859   0.09023   0.09689   0.10470
  Beta virt. eigenvalues --    0.10894   0.11332   0.12631   0.13411   0.13581
  Beta virt. eigenvalues --    0.13694   0.14387   0.14864   0.15149   0.15948

 Mulliken charges and spin densities:
               1          2
     1  C   -0.329192  -0.219536
     2  C    0.026367  -0.169272
     3  C   -0.505931   0.123814
     4  C    0.520062  -0.330434
     5  C   -0.716530  -0.077834
     6  N    0.018316   0.033002
     7  C   -0.454427   0.261159
     8  C    0.326438  -0.752816
     9  N   -0.248540   0.447930
    10  O   -0.218729   0.257620
    11  H    0.067475   0.074478
    12  H   -0.034754   0.149509
    13  H    0.135935  -0.017786
    14  H   -0.008564   0.090130
    15  H   -0.076523   0.216782
    16  H    0.151398  -0.006302
    17  H    0.084244   0.042265
    18  H    0.093608  -0.029589
    19  H    0.097649   0.034042
    20  H    0.084178   0.017556
    21  H    0.247752  -0.057320
    22  H   -0.009180   0.149765
    23  H    0.138948  -0.018392
    24  H   -0.088566   0.206696
    25  H   -0.189152   0.315356
    26  H   -0.112282   0.259176
 Sum of Mulliken charges =  -1.00000   1.00000

 Dipole moment (field-independent basis, Debye):
    X=              2.0312    Y=              4.8188    Z=             -0.1059  Tot=              5.2305
 Quadrupole moment (field-independent basis, Debye-Ang):
   XX=           -104.6363   YY=           -104.4351   ZZ=            -76.5906
   XY=            -13.8872   XZ=              0.5334   YZ=              0.8105

 Summary of Natural Population Analysis:

                                       Natural Population
                Natural  -----------------------------------------------
    Atom  No    Charge         Core      Valence    Rydberg      Total
 -----------------------------------------------------------------------
      C    1   -0.28800      0.99967     2.28224    0.00610     3.28800
      C    2   -0.19262      0.99964     2.18422    0.00877     3.19262
      C    3   -0.19402      0.99960     2.18223    0.01219     3.19402
      C    4   -0.06800      0.99960     2.04853    0.01987     3.06800
      C    5   -0.09595      0.99959     2.08075    0.01560     3.09595
      N    6   -0.33295      0.99975     2.82130    0.01191     3.83295
      C    7   -0.08599      0.99965     2.07413    0.01221     3.08599
      C    8   -0.29802      0.99967     2.29361    0.00474     3.29802
      N    9    0.13422      0.99979     2.33640    0.02959     3.36578
      O   10   -0.12687      0.99990     3.11564    0.01133     4.12687
      H   11    0.09768      0.00000     0.40118    0.00114     0.40232
      H   12    0.09258      0.00000     0.40658    0.00084     0.40742
      H   13    0.09447      0.00000     0.40398    0.00155     0.40553
      H   14    0.08903      0.00000     0.40942    0.00155     0.41097
      H   15    0.09019      0.00000     0.40830    0.00151     0.40981
      H   16    0.10000      0.00000     0.39837    0.00163     0.40000
      H   17    0.10078      0.00000     0.39725    0.00197     0.39922
      H   18    0.08630      0.00000     0.40985    0.00385     0.41370
      H   19    0.09464      0.00000     0.40311    0.00225     0.40536
      H   20    0.07591      0.00000     0.42222    0.00187     0.42409
      H   21    0.16515      0.00000     0.33160    0.00325     0.33485
      H   22    0.08662      0.00000     0.41226    0.00112     0.41338
      H   23    0.08840      0.00000     0.40985    0.00174     0.41160
      H   24    0.09386      0.00000     0.40466    0.00148     0.40614
      H   25    0.09458      0.00000     0.40412    0.00131     0.40542
      H   26    0.09799      0.00000     0.40108    0.00092     0.40201
 =======================================================================
   * Total *    0.00000      9.99685    29.84287    0.16028    40.00000

 Normal termination of Gaussian 16 at Tue Dec  8 10:56:06 2020.
