 Gaussian 16, Revision A.03,

 -----------------------------------------------------------
 # opt freq B3LYP/6-31G(d) empiricaldispersion=gd3bj scf=xqc
 -----------------------------------------------------------

 ------------------------------
 CID_54932845_JID_8920_neutraal
 ------------------------------
 Symbolic Z-matrix:
 Charge =  0 Multiplicity = 1

 SCF Done:  E(RB3LYP) =  -1092.62923749     A.U. after   14 cycles
 SCF Done:  E(RB3LYP) =  -1092.63584127     A.U. after   13 cycles
 SCF Done:  E(RB3LYP) =  -1092.63743587     A.U. after   12 cycles
 SCF Done:  E(RB3LYP) =  -1092.63813670     A.U. after   13 cycles
 SCF Done:  E(RB3LYP) =  -1092.63872936     A.U. after   13 cycles
 SCF Done:  E(RB3LYP) =  -1092.63887907     A.U. after   11 cycles
 SCF Done:  E(RB3LYP) =  -1092.63893637     A.U. after   11 cycles
 SCF Done:  E(RB3LYP) =  -1092.63898501     A.U. after   11 cycles
 SCF Done:  E(RB3LYP) =  -1092.63903460     A.U. after   11 cycles
 SCF Done:  E(RB3LYP) =  -1092.63906774     A.U. after   11 cycles
 SCF Done:  E(RB3LYP) =  -1092.63927736     A.U. after    6 cycles
 SCF Done:  E(RB3LYP) =  -1092.63927738     A.U. after    7 cycles
 SCF Done:  E(RB3LYP) =  -1092.63927739     A.U. after    6 cycles
 SCF Done:  E(RB3LYP) =  -1092.63927741     A.U. after    6 cycles
 SCF Done:  E(RB3LYP) =  -1092.63927741     A.U. after    7 cycles
 Optimization completed.
    -- Stationary point found.
 Normal termination of Gaussian 16 at Fri Dec 11 23:29:04 2020.

 --------------------------------------------------------------------
 #N Geom=AllCheck Guess=TCheck SCRF=Check GenChk RB3LYP/6-31G(d) Freq
 --------------------------------------------------------------------

 Structure from the checkpoint file:  "JID_8920.chk"
 ------------------------------
 CID_54932845_JID_8920_neutraal
 ------------------------------
 Charge =  0 Multiplicity = 1

 SCF Done:  E(RB3LYP) =  -1092.63927741     A.U. after    1 cycles

  Exact polarizability: 300.644   2.823 182.878 -29.769 -14.693 127.519
 Approx polarizability: 391.395  10.470 306.865 -61.305 -41.984 205.810

                      1                      2                      3
                      A                      A                      A
 Frequencies --     10.9044                20.2052                41.6633
 Red. masses --      4.1421                 2.4943                 4.1723
 Frc consts  --      0.0003                 0.0006                 0.0043
 IR Inten    --      0.8773                 0.1376                 2.8497

                      4                      5                      6
                      A                      A                      A
 Frequencies --     58.6976                63.8370                77.9315
 Red. masses --      4.3236                 3.4575                 2.1597
 Frc consts  --      0.0088                 0.0083                 0.0077
 IR Inten    --      2.3853                 4.8307                 2.8676

                      7                      8                      9
                      A                      A                      A
 Frequencies --    110.3372               132.1350               159.3076
 Red. masses --      4.7494                 5.4376                 2.3459
 Frc consts  --      0.0341                 0.0559                 0.0351
 IR Inten    --      1.5089                 6.5065                 3.5458

                     10                     11                     12
                      A                      A                      A
 Frequencies --    186.9436               194.2294               204.4683
 Red. masses --      3.9796                 2.7039                 1.2314
 Frc consts  --      0.0819                 0.0601                 0.0303
 IR Inten    --      0.8868                 0.1872                 7.3783

                     13                     14                     15
                      A                      A                      A
 Frequencies --    214.7858               252.7387               285.6771
 Red. masses --      3.1518                 2.2544                 4.1363
 Frc consts  --      0.0857                 0.0848                 0.1989
 IR Inten    --      2.9817                11.9490                13.9930

                     16                     17                     18
                      A                      A                      A
 Frequencies --    299.1033               332.0887               354.6541
 Red. masses --      2.6340                 2.5991                 1.5799
 Frc consts  --      0.1388                 0.1689                 0.1171
 IR Inten    --     28.2901                 4.8226                34.6130

                     19                     20                     21
                      A                      A                      A
 Frequencies --    400.0681               414.4331               419.4013
 Red. masses --      1.2079                 3.9329                 1.7648
 Frc consts  --      0.1139                 0.3980                 0.1829
 IR Inten    --    198.7036                 1.9026                 0.9223

                     22                     23                     24
                      A                      A                      A
 Frequencies --    452.3193               461.0420               511.1916
 Red. masses --      3.2942                 3.2158                 3.8721
 Frc consts  --      0.3971                 0.4027                 0.5962
 IR Inten    --      4.6972                 1.6715                 3.6678

                     25                     26                     27
                      A                      A                      A
 Frequencies --    532.3707               557.8550               560.6562
 Red. masses --      3.1741                 2.3680                 4.1279
 Frc consts  --      0.5300                 0.4342                 0.7645
 IR Inten    --      5.3234                 1.7536                 1.8588

                     28                     29                     30
                      A                      A                      A
 Frequencies --    565.7220               605.6487               632.7472
 Red. masses --      3.9019                 1.1805                 2.6802
 Frc consts  --      0.7358                 0.2551                 0.6322
 IR Inten    --      5.3807                30.2149                 0.4799

                     31                     32                     33
                      A                      A                      A
 Frequencies --    658.9978               699.3799               745.3901
 Red. masses --      4.7194                 6.0804                 4.3841
 Frc consts  --      1.2075                 1.7523                 1.4351
 IR Inten    --      4.7204                 5.8973                 2.4095

                     34                     35                     36
                      A                      A                      A
 Frequencies --    773.7577               807.7634               830.8327
 Red. masses --      1.2834                 2.6392                 1.5728
 Frc consts  --      0.4527                 1.0146                 0.6396
 IR Inten    --      0.3455                 4.0879                16.3969

                     37                     38                     39
                      A                      A                      A
 Frequencies --    836.2030               844.1110               869.0084
 Red. masses --      1.5796                 2.8895                 3.3458
 Frc consts  --      0.6508                 1.2130                 1.4887
 IR Inten    --      8.9677                30.7249                 8.7435

                     40                     41                     42
                      A                      A                      A
 Frequencies --    901.1281               907.6929               914.0622
 Red. masses --      2.7518                 2.1832                 1.3799
 Frc consts  --      1.3165                 1.0598                 0.6793
 IR Inten    --      0.2532                 5.5784                 8.4161

                     43                     44                     45
                      A                      A                      A
 Frequencies --    952.8503               970.2362               976.6210
 Red. masses --      1.6871                 1.4951                 1.8902
 Frc consts  --      0.9025                 0.8292                 1.0622
 IR Inten    --      0.6571                17.9433                 6.8917

                     46                     47                     48
                      A                      A                      A
 Frequencies --    978.3744               987.4396               997.1712
 Red. masses --      1.9531                 2.0210                 1.3661
 Frc consts  --      1.1015                 1.1610                 0.8004
 IR Inten    --     18.6445                 1.2435                 0.4738

                     49                     50                     51
                      A                      A                      A
 Frequencies --   1029.1316              1054.9826              1068.8886
 Red. masses --      1.5554                 2.4954                 1.5122
 Frc consts  --      0.9706                 1.6364                 1.0179
 IR Inten    --      2.2661                 1.7469                 1.5505

                     52                     53                     54
                      A                      A                      A
 Frequencies --   1075.3694              1090.3865              1125.0692
 Red. masses --      1.4724                 2.5281                 2.2468
 Frc consts  --      1.0032                 1.7710                 1.6756
 IR Inten    --      1.5717                 0.5266                 3.8998

                     55                     56                     57
                      A                      A                      A
 Frequencies --   1136.5745              1165.9668              1184.8198
 Red. masses --      2.2095                 2.0329                 1.7603
 Frc consts  --      1.6817                 1.6283                 1.4559
 IR Inten    --     14.3480                47.4634                11.0739

                     58                     59                     60
                      A                      A                      A
 Frequencies --   1208.6751              1222.2649              1224.7787
 Red. masses --      1.4657                 1.9325                 1.4490
 Frc consts  --      1.2616                 1.7010                 1.2806
 IR Inten    --     16.0811                11.5288                 0.3936

                     61                     62                     63
                      A                      A                      A
 Frequencies --   1237.7349              1270.1532              1277.4401
 Red. masses --      1.3885                 1.2712                 1.4137
 Frc consts  --      1.2533                 1.2083                 1.3592
 IR Inten    --      2.0140                13.9091                 4.8419

                     64                     65                     66
                      A                      A                      A
 Frequencies --   1293.7154              1312.4384              1320.5041
 Red. masses --      1.3143                 1.7617                 1.4556
 Frc consts  --      1.2961                 1.7879                 1.4954
 IR Inten    --     21.7531                35.2162                34.1417

                     67                     68                     69
                      A                      A                      A
 Frequencies --   1331.9466              1338.1868              1346.5711
 Red. masses --      1.4113                 1.2483                 1.3076
 Frc consts  --      1.4752                 1.3171                 1.3970
 IR Inten    --     13.9451                 1.3056                49.7765

                     70                     71                     72
                      A                      A                      A
 Frequencies --   1350.2194              1358.2862              1373.4276
 Red. masses --      2.1761                 1.3540                 1.3523
 Frc consts  --      2.3374                 1.4718                 1.5029
 IR Inten    --    351.6618                16.6786                 0.3381

                     73                     74                     75
                      A                      A                      A
 Frequencies --   1380.3886              1391.5265              1397.2046
 Red. masses --      2.8194                 2.9785                 1.8366
 Frc consts  --      3.1653                 3.3981                 2.1124
 IR Inten    --     92.5706               218.0090                57.2880

                     76                     77                     78
                      A                      A                      A
 Frequencies --   1417.3730              1421.8632              1443.7839
 Red. masses --      1.5443                 1.6327                 1.3024
 Frc consts  --      1.8279                 1.9448                 1.5996
 IR Inten    --     13.4919                 0.8108                 8.4623

                     79                     80                     81
                      A                      A                      A
 Frequencies --   1476.4088              1504.5899              1512.2981
 Red. masses --      3.6463                 1.3692                 1.1749
 Frc consts  --      4.6829                 1.8262                 1.5831
 IR Inten    --      6.2844                31.8087                 2.3342

                     82                     83                     84
                      A                      A                      A
 Frequencies --   1515.3696              1517.6593              1524.8557
 Red. masses --      1.0654                 1.0771                 1.0904
 Frc consts  --      1.4415                 1.4616                 1.4938
 IR Inten    --      8.2970                 0.9220                 2.8133

                     85                     86                     87
                      A                      A                      A
 Frequencies --   1530.4477              1544.1209              1551.4966
 Red. masses --      1.0878                 1.2034                 1.1026
 Frc consts  --      1.5012                 1.6906                 1.5637
 IR Inten    --      3.7267                 9.1539                 0.7470

                     88                     89                     90
                      A                      A                      A
 Frequencies --   1553.6716              1578.5934              1630.6997
 Red. masses --      1.1067                 2.8354                 3.7303
 Frc consts  --      1.5740                 4.1631                 5.8444
 IR Inten    --     91.4140               179.9009                64.0403

                     91                     92                     93
                      A                      A                      A
 Frequencies --   1657.8558              1670.1095              2992.1391
 Red. masses --      1.2536                 5.4539                 1.0685
 Frc consts  --      2.0300                 8.9628                 5.6362
 IR Inten    --    214.6159               276.9935                33.7226

                     94                     95                     96
                      A                      A                      A
 Frequencies --   3004.9339              3015.9759              3020.9223
 Red. masses --      1.0798                 1.0704                 1.0423
 Frc consts  --      5.7446                 5.7365                 5.6041
 IR Inten    --      9.1937                52.8843                31.8436

                     97                     98                     99
                      A                      A                      A
 Frequencies --   3025.6421              3034.7636              3043.7216
 Red. masses --      1.0672                 1.0733                 1.0873
 Frc consts  --      5.7563                 5.8240                 5.9347
 IR Inten    --      5.5752                25.2460                88.3061

                    100                    101                    102
                      A                      A                      A
 Frequencies --   3058.8207              3063.9365              3072.8618
 Red. masses --      1.0646                 1.1000                 1.0645
 Frc consts  --      5.8689                 6.0844                 5.9219
 IR Inten    --     23.1449                24.5726                40.0283

                    103                    104                    105
                      A                      A                      A
 Frequencies --   3076.9670              3092.1509              3097.7003
 Red. masses --      1.0976                 1.0947                 1.0990
 Frc consts  --      6.1229                 6.1668                 6.2134
 IR Inten    --     35.3975                61.2212                14.9854

                    106                    107                    108
                      A                      A                      A
 Frequencies --   3104.6132              3119.9325              3129.8545
 Red. masses --      1.0977                 1.1053                 1.0964
 Frc consts  --      6.2340                 6.3390                 6.3282
 IR Inten    --     11.6469                75.5634                14.1578

                    109                    110                    111
                      A                      A                      A
 Frequencies --   3181.6396              3215.4091              3229.6784
 Red. masses --      1.0889                 1.0872                 1.0938
 Frc consts  --      6.4946                 6.6224                 6.7218
 IR Inten    --     13.9640                 7.9038                 7.7390

                    112                    113                    114
                      A                      A                      A
 Frequencies --   3566.2199              3664.3842              3689.7305
 Red. masses --      1.0452                 1.0757                 1.1034
 Frc consts  --      7.8315                 8.5099                 8.8507
 IR Inten    --     43.0307                74.0936                31.6831

 - Thermochemistry -
 -------------------
 Temperature   298.150 Kelvin.  Pressure   1.00000 Atm.
 Atom     1 has atomic number  6 and mass  12.00000

 Molecular mass:   262.15037 amu.
 Principal axes and moments of inertia in atomic units:
                           1         2         3
     Eigenvalues --  1823.52451********************
           X            0.99997  -0.00462   0.00682
           Y            0.00456   0.99996   0.00818
           Z           -0.00686  -0.00815   0.99994
 This molecule is an asymmetric top.
 Rotational symmetry number  1.
 Warning -- assumption of classical behavior for rotation
           may cause significant error
 Rotational temperatures (Kelvin)      0.04750     0.00616     0.00587
 Rotational constants (GHZ):           0.98970     0.12840     0.12232
 Zero-point vibrational energy     920430.9 (Joules/Mol)
                                  219.98826 (Kcal/Mol)
 Warning -- explicit consideration of  29 degrees of freedom as
           vibrations may cause significant error
 Vibrational temperatures:     15.69    29.07    59.94    84.45    91.85
          (Kelvin)            112.13   158.75   190.11   229.21   268.97
                              279.45   294.18   309.03   363.63   411.03
                              430.34   477.80   510.27   575.61   596.28
                              603.42   650.79   663.34   735.49   765.96
                              802.63   806.66   813.95   871.39   910.38
                              948.15  1006.25  1072.45  1113.26  1162.19
                             1195.38  1203.11  1214.49  1250.31  1296.52
                             1305.97  1315.13  1370.94  1395.95  1405.14
                             1407.66  1420.71  1434.71  1480.69  1517.88
                             1537.89  1547.22  1568.82  1618.72  1635.28
                             1677.57  1704.69  1739.01  1758.57  1762.18
                             1780.82  1827.47  1837.95  1861.37  1888.31
                             1899.91  1916.37  1925.35  1937.42  1942.66
                             1954.27  1976.06  1986.07  2002.10  2010.27
                             2039.28  2045.74  2077.28  2124.22  2164.77
                             2175.86  2180.28  2183.57  2193.93  2201.97
                             2221.65  2232.26  2235.39  2271.24  2346.21
                             2385.28  2402.92  4305.02  4323.43  4339.32
                             4346.43  4353.22  4366.35  4379.24  4400.96
                             4408.32  4421.16  4427.07  4448.92  4456.90
                             4466.85  4488.89  4503.16  4577.67  4626.26
                             4646.79  5131.00  5272.23  5308.70

 Zero-point correction=                           0.350574 (Hartree/Particle)
 Thermal correction to Energy=                    0.369159
 Thermal correction to Enthalpy=                  0.370103
 Thermal correction to Gibbs Free Energy=         0.300818
 Sum of electronic and zero-point Energies=          -1092.288704
 Sum of electronic and thermal Energies=             -1092.270118
 Sum of electronic and thermal Enthalpies=           -1092.269174
 Sum of electronic and thermal Free Energies=        -1092.338460

                     E (Thermal)             CV                S
                      KCal/Mol        Cal/Mol-Kelvin    Cal/Mol-Kelvin
 Total                  231.651             70.319            145.824
 Electronic               0.000              0.000              0.000
 Translational            0.889              2.981             42.591
 Rotational               0.889              2.981             34.291
 Vibrational            229.873             64.357             68.942
 Vibration     1          0.593              1.987              7.839
 Vibration     2          0.593              1.986              6.614
 Vibration     3          0.594              1.981              5.178
 Vibration     4          0.596              1.974              4.501
 Vibration     5          0.597              1.972              4.335
 Vibration     6          0.599              1.964              3.942
 Vibration     7          0.606              1.941              3.263
 Vibration     8          0.612              1.921              2.915
 Vibration     9          0.621              1.892              2.558
 Vibration    10          0.632              1.858              2.258
 Vibration    11          0.635              1.848              2.187
 Vibration    12          0.640              1.834              2.093
 Vibration    13          0.645              1.818              2.003
 Vibration    14          0.664              1.758              1.711
 Vibration    15          0.683              1.700              1.499
 Vibration    16          0.692              1.675              1.422
 Vibration    17          0.714              1.611              1.250
 Vibration    18          0.731              1.566              1.145
 Vibration    19          0.766              1.470              0.962
 Vibration    20          0.778              1.439              0.911
 Vibration    21          0.782              1.428              0.894
 Vibration    22          0.811              1.356              0.789
 Vibration    23          0.819              1.336              0.763
 Vibration    24          0.866              1.225              0.631
 Vibration    25          0.887              1.178              0.582
 Vibration    26          0.913              1.123              0.528
 Vibration    27          0.916              1.116              0.523
 Vibration    28          0.922              1.105              0.513
 Vibration    29          0.964              1.020              0.440

 Optimization completed.
    -- Stationary point found.
 Normal termination of Gaussian 16 at Fri Dec 11 23:48:06 2020.

 ----------------------------------------------------------------------
 # B3LYP/6-311++G(d,p) empiricaldispersion=gd3bj scf=xqc pop=npa geom=c
 heck
 ----------------------------------------------------------------------

 --------------------------------------
 CID_54932845_JID_8920_Energie_neutraal
 --------------------------------------
 Structure from the checkpoint file:  "JID_8920.chk"
 Charge =  0 Multiplicity = 1

 SCF Done:  E(RB3LYP) =  -1092.85569229     A.U. after   17 cycles
 Normal termination of Gaussian 16 at Fri Dec 11 23:58:58 2020.

 ----------------------------------------------------------------------
 # B3LYP/6-311++G(d,p) empiricaldispersion=gd3bj scf=xqc pop=npa geom=c
 heck
 ----------------------------------------------------------------------

 ------------------------------------
 CID_54932845_JID_8920_Energie_kation
 ------------------------------------
 Structure from the checkpoint file:  "JID_8920.chk"
 Charge =  1 Multiplicity = 2

 SCF Done:  E(UB3LYP) =  -1092.59837415     A.U. after   25 cycles
 Normal termination of Gaussian 16 at Sat Dec 12 00:22:30 2020.
 Gaussian 16:  ES64L-G16RevA.03 25-Dec-2016

 ----------------------------------------------------------------------
 # B3LYP/6-311++G(d,p) empiricaldispersion=gd3bj scf=xqc pop=npa geom=c
 heck
 ----------------------------------------------------------------------

 -----------------------------------
 CID_54932845_JID_8920_Energie_anion
 -----------------------------------
 Structure from the checkpoint file:  "JID_8920.chk"
 Charge = -1 Multiplicity = 2

                         Standard orientation:
 ---------------------------------------------------------------------
 Center     Atomic      Atomic             Coordinates (Angstroms)
 Number     Number       Type             X           Y           Z
 ---------------------------------------------------------------------
      1          6           0       -0.145091    2.286351   -0.891855
      2          6           0       -0.984170    1.066489   -0.609741
      3          6           0       -0.388488   -0.223723   -0.613080
      4          6           0       -1.189835   -1.345469   -0.318846
      5          6           0       -2.537327   -1.200039   -0.032278
      6          6           0       -3.148992    0.061664   -0.042050
      7          6           0       -2.338894    1.177445   -0.332309
      8          6           0       -4.587491    0.202101    0.246422
      9         16           0       -5.478930   -0.898429    1.140022
     10          7           0       -5.175180    1.327309   -0.240632
     11          7           0        0.946037   -0.354874   -0.913892
     12          6           0        1.692104   -1.588642   -0.732798
     13          6           0        3.193668   -1.374930   -0.941926
     14          6           0        3.929854   -0.676748    0.206677
     15          6           0        5.452950   -0.610432    0.002883
     16          6           0        5.935173    0.373114    1.083184
     17          6           0        4.763787    1.379476    1.274009
     18          6           0        3.572699    0.802517    0.465702
     19          1           0        0.661200    2.412512   -0.154860
     20          1           0        0.328350    2.234329   -1.882265
     21          1           0       -0.753583    3.194390   -0.864091
     22          1           0       -0.750953   -2.336541   -0.317878
     23          1           0       -3.144289   -2.068138    0.199861
     24          1           0       -2.765901    2.176162   -0.290017
     25          1           0       -4.755539    1.828644   -1.011650
     26          1           0       -6.174539    1.414522   -0.116216
     27          1           0        1.491015    0.491759   -0.926534
     28          1           0        1.516255   -2.004786    0.272476
     29          1           0        1.326425   -2.335324   -1.450719
     30          1           0        3.649350   -2.361174   -1.094003
     31          1           0        3.350303   -0.818280   -1.877644
     32          1           0        3.733944   -1.241305    1.131485
     33          1           0        5.934357   -1.592427    0.068003
     34          1           0        5.662368   -0.210569   -0.999633
     35          1           0        6.872906    0.866925    0.810409
     36          1           0        6.121270   -0.168091    2.017907
     37          1           0        5.027371    2.381922    0.922580
     38          1           0        4.505451    1.477307    2.333212
     39          1           0        3.493444    1.325254   -0.499246
     40          1           0        2.618002    0.925683    0.986174
 ---------------------------------------------------------------------

 SCF Done:  E(UB3LYP) =  -1092.86006707     A.U. after   33 cycles
 SCF Done:  E(UB3LYP) =  -1092.86006707     a.u. after    1 cycles

 The electronic state is 2-A.
 Alpha  occ. eigenvalues --  -88.64861 -14.22176 -14.20867 -10.11595 -10.10120
 Alpha  occ. eigenvalues --  -10.09611 -10.09404 -10.09153 -10.08683 -10.08649
 Alpha  occ. eigenvalues --  -10.08622 -10.08593 -10.07620 -10.06704 -10.05441
 Alpha  occ. eigenvalues --  -10.05271 -10.04886 -10.04825  -7.73628  -5.69981
 Alpha  occ. eigenvalues --   -5.69529  -5.69189  -0.84168  -0.81112  -0.76418
 Alpha  occ. eigenvalues --   -0.73511  -0.68851  -0.66747  -0.63655  -0.63138
 Alpha  occ. eigenvalues --   -0.61395  -0.59510  -0.57189  -0.54073  -0.50488
 Alpha  occ. eigenvalues --   -0.49101  -0.48487  -0.47918  -0.44451  -0.42049
 Alpha  occ. eigenvalues --   -0.41376  -0.40977  -0.39553  -0.39007  -0.35949
 Alpha  occ. eigenvalues --   -0.35230  -0.34832  -0.34069  -0.32893  -0.32829
 Alpha  occ. eigenvalues --   -0.32356  -0.30615  -0.30071  -0.28943  -0.28582
 Alpha  occ. eigenvalues --   -0.26609  -0.26451  -0.26319  -0.26086  -0.25200
 Alpha  occ. eigenvalues --   -0.24540  -0.24137  -0.23839  -0.23673  -0.22812
 Alpha  occ. eigenvalues --   -0.21246  -0.18618  -0.13884  -0.10925  -0.08688
 Alpha  occ. eigenvalues --   -0.07245   0.03447
 Alpha virt. eigenvalues --    0.04722   0.06019   0.06530   0.06879   0.07679
 Alpha virt. eigenvalues --    0.08328   0.08825   0.09158   0.09469   0.09786
 Alpha virt. eigenvalues --    0.10368   0.10745   0.11299   0.11736   0.12004

  Beta  occ. eigenvalues --  -88.64823 -14.22129 -14.20772 -10.11593 -10.09677
  Beta  occ. eigenvalues --  -10.09423 -10.09398 -10.09144 -10.08668 -10.08637
  Beta  occ. eigenvalues --  -10.08614 -10.08580 -10.07608 -10.06774 -10.05325
  Beta  occ. eigenvalues --  -10.05304 -10.04877 -10.04730  -7.73594  -5.69974
  Beta  occ. eigenvalues --   -5.69396  -5.69169  -0.84024  -0.80721  -0.76394
  Beta  occ. eigenvalues --   -0.73389  -0.68777  -0.66690  -0.63485  -0.63051
  Beta  occ. eigenvalues --   -0.61235  -0.59270  -0.56956  -0.54020  -0.50254
  Beta  occ. eigenvalues --   -0.49051  -0.48370  -0.47849  -0.44212  -0.41963
  Beta  occ. eigenvalues --   -0.41320  -0.40852  -0.39511  -0.38952  -0.35794
  Beta  occ. eigenvalues --   -0.35156  -0.34756  -0.34032  -0.32856  -0.32770
  Beta  occ. eigenvalues --   -0.32310  -0.30556  -0.30010  -0.28846  -0.28488
  Beta  occ. eigenvalues --   -0.26373  -0.26319  -0.26035  -0.25845  -0.24841
  Beta  occ. eigenvalues --   -0.24506  -0.24106  -0.23743  -0.23110  -0.22560
  Beta  occ. eigenvalues --   -0.20959  -0.18093  -0.13498  -0.10129  -0.08196
  Beta  occ. eigenvalues --   -0.07036
  Beta virt. eigenvalues --    0.05132   0.06227   0.06568   0.06893   0.07669
  Beta virt. eigenvalues --    0.08082   0.08393   0.08894   0.09150   0.09436
  Beta virt. eigenvalues --    0.09853   0.10485   0.10735   0.11304   0.11735

 Mulliken charges and spin densities:
               1          2
     1  C   -0.639605  -0.080922
     2  C    0.295872   0.006719
     3  C   -0.492456   0.298412
     4  C   -0.156522  -0.153726
     5  C   -0.554496   0.043920
     6  C    1.295001  -0.150884
     7  C   -0.316927   0.051524
     8  C   -0.310929   0.123296
     9  S   -0.833232   0.142011
    10  N   -0.146797   0.049262
    11  N    0.082677   0.051115
    12  C   -0.138515  -0.175152
    13  C   -0.592358  -0.107478
    14  C    0.418578   0.390723
    15  C   -0.180873  -0.320056
    16  C   -0.039519  -0.324989
    17  C   -0.172111  -0.470888
    18  C   -0.320304  -0.059032
    19  H    0.067007   0.049890
    20  H    0.080451   0.076794
    21  H    0.043253   0.118655
    22  H    0.131897   0.001651
    23  H    0.077960   0.017531
    24  H    0.166845  -0.082412
    25  H    0.142673   0.068239
    26  H    0.252699  -0.004040
    27  H    0.326328  -0.012127
    28  H    0.092069   0.050896
    29  H    0.147470   0.020978
    30  H    0.133890   0.017267
    31  H    0.026202   0.150539
    32  H    0.029968   0.124388
    33  H   -0.100695   0.246918
    34  H    0.048653   0.084443
    35  H   -0.151319   0.308322
    36  H    0.083531   0.054906
    37  H   -0.018353   0.161690
    38  H    0.007224   0.140337
    39  H   -0.016769   0.151103
    40  H    0.231532  -0.059825
 Sum of Mulliken charges =  -1.00000   1.00000

 Dipole moment (field-independent basis, Debye):
    X=              7.6852    Y=              1.6763    Z=             -2.8959  Tot=              8.3821
 Quadrupole moment (field-independent basis, Debye-Ang):
   XX=           -256.1578   YY=           -136.7267   ZZ=           -142.7254
   XY=            -21.4809   XZ=             15.0074   YZ=              1.5974

 Summary of Natural Population Analysis:

                                       Natural Population
                Natural  -----------------------------------------------
    Atom  No    Charge         Core      Valence    Rydberg      Total
 -----------------------------------------------------------------------
      C    1   -0.29454      0.99964     2.29012    0.00479     3.29454
      C    2   -0.05991      0.99950     2.05107    0.00934     3.05991
      C    3    0.12624      0.99947     1.86271    0.01158     2.87376
      C    4   -0.15084      0.99954     2.14391    0.00739     3.15084
      C    5   -0.04548      0.99954     2.03762    0.00832     3.04548
      C    6   -0.08409      0.99946     2.07189    0.01274     3.08409
      C    7   -0.05822      0.99949     2.04987    0.00886     3.05822
      C    8    0.13308      0.99951     1.84753    0.01988     2.86692
      S    9   -0.13875      4.99957     3.12529    0.01389     8.13875
      N   10   -0.38220      0.99969     2.87079    0.01172     3.88220
      N   11   -0.30949      0.99966     2.80082    0.00900     3.80949
      C   12   -0.08336      0.99963     2.07427    0.00946     3.08336
      C   13   -0.18891      0.99960     2.18150    0.00780     3.18891
      C   14   -0.11095      0.99959     2.10159    0.00976     3.11095
      C   15   -0.18706      0.99962     2.18037    0.00707     3.18706
      C   16   -0.19141      0.99965     2.18484    0.00692     3.19141
      C   17   -0.19134      0.99965     2.18482    0.00687     3.19134
      C   18   -0.19741      0.99962     2.19021    0.00758     3.19741
      H   19    0.09696      0.00000     0.40155    0.00149     0.40304
      H   20    0.09857      0.00000     0.40000    0.00143     0.40143
      H   21    0.10314      0.00000     0.39611    0.00076     0.39686
      H   22    0.09670      0.00000     0.40191    0.00140     0.40330
      H   23    0.10997      0.00000     0.38897    0.00105     0.39003
      H   24    0.09229      0.00000     0.40605    0.00167     0.40771
      H   25    0.18611      0.00000     0.31183    0.00206     0.31389
      H   26    0.19123      0.00000     0.30659    0.00218     0.30877
      H   27    0.19030      0.00000     0.30603    0.00367     0.30970
      H   28    0.08796      0.00000     0.41012    0.00192     0.41204
      H   29    0.09096      0.00000     0.40739    0.00165     0.40904
      H   30    0.10040      0.00000     0.39848    0.00112     0.39960
      H   31    0.09719      0.00000     0.40134    0.00147     0.40281
      H   32    0.09421      0.00000     0.40453    0.00125     0.40579
      H   33    0.09922      0.00000     0.39946    0.00131     0.40078
      H   34    0.09359      0.00000     0.40486    0.00155     0.40641
      H   35    0.09869      0.00000     0.39995    0.00135     0.40131
      H   36    0.09427      0.00000     0.40429    0.00144     0.40573
      H   37    0.09812      0.00000     0.40051    0.00137     0.40188
      H   38    0.09677      0.00000     0.40196    0.00127     0.40323
      H   39    0.09296      0.00000     0.40538    0.00166     0.40704
      H   40    0.10507      0.00000     0.39355    0.00138     0.39493
 =======================================================================
   * Total *    0.00005     21.99243    48.80011    0.20741    70.99995

 Normal termination of Gaussian 16 at Sat Dec 12 00:52:15 2020.
