 Gaussian 16, Revision A.03,

 -----------------------------------------------------------
 # opt freq B3LYP/6-31G(d) empiricaldispersion=gd3bj scf=xqc
 -----------------------------------------------------------

 ------------------------------
 CID_79304244_JID_3058_neutraal
 ------------------------------
 Symbolic Z-matrix:
 Charge =  0 Multiplicity = 1

 SCF Done:  E(RB3LYP) =  -559.188559168     A.U. after   13 cycles
 SCF Done:  E(RB3LYP) =  -559.187177926     A.U. after   11 cycles
 SCF Done:  E(RB3LYP) =  -559.193799291     A.U. after   11 cycles
 SCF Done:  E(RB3LYP) =  -559.193837485     A.U. after   11 cycles
 SCF Done:  E(RB3LYP) =  -559.194308292     A.U. after   11 cycles
 SCF Done:  E(RB3LYP) =  -559.194593477     A.U. after   11 cycles
 SCF Done:  E(RB3LYP) =  -559.194933637     A.U. after   10 cycles
 SCF Done:  E(RB3LYP) =  -559.195030197     A.U. after   10 cycles
 SCF Done:  E(RB3LYP) =  -559.195068084     A.U. after   10 cycles
 SCF Done:  E(RB3LYP) =  -559.195105121     A.U. after    9 cycles
 SCF Done:  E(RB3LYP) =  -559.195131721     A.U. after   10 cycles
 SCF Done:  E(RB3LYP) =  -559.195136470     A.U. after    7 cycles
 SCF Done:  E(RB3LYP) =  -559.195137498     A.U. after    7 cycles
 SCF Done:  E(RB3LYP) =  -559.195137812     A.U. after    7 cycles
 SCF Done:  E(RB3LYP) =  -559.195138022     A.U. after    7 cycles
 SCF Done:  E(RB3LYP) =  -559.195138137     A.U. after    6 cycles
 Optimization completed.
    -- Stationary point found.
 Normal termination of Gaussian 16 at Wed Dec  9 22:27:37 2020.

 --------------------------------------------------------------------
 #N Geom=AllCheck Guess=TCheck SCRF=Check GenChk RB3LYP/6-31G(d) Freq
 --------------------------------------------------------------------

 Structure from the checkpoint file:  "JID_3058.chk"
 ------------------------------
 CID_79304244_JID_3058_neutraal
 ------------------------------
 Charge =  0 Multiplicity = 1

 SCF Done:  E(RB3LYP) =  -559.195138137     A.U. after    1 cycles

  Exact polarizability: 137.545  -2.870 121.904   0.198   0.495 114.790
 Approx polarizability: 173.967  -1.678 171.152  -1.403   0.982 166.629

                      1                      2                      3
                      A                      A                      A
 Frequencies --     41.7287                45.7896                76.9290
 Red. masses --      2.8875                 3.2643                 3.3471
 Frc consts  --      0.0030                 0.0040                 0.0117
 IR Inten    --      0.1881                 0.7945                 0.2438

                      4                      5                      6
                      A                      A                      A
 Frequencies --    115.3148               140.5507               148.0728
 Red. masses --      3.1604                 2.5789                 2.7401
 Frc consts  --      0.0248                 0.0300                 0.0354
 IR Inten    --      0.4011                 0.7311                 0.5608

                      7                      8                      9
                      A                      A                      A
 Frequencies --    208.7221               222.5274               247.6128
 Red. masses --      2.2650                 2.1798                 1.3297
 Frc consts  --      0.0581                 0.0636                 0.0480
 IR Inten    --      4.1915                 2.9270                 0.6076

                     10                     11                     12
                      A                      A                      A
 Frequencies --    252.2961               270.0836               289.7854
 Red. masses --      1.3666                 2.1302                 2.2019
 Frc consts  --      0.0513                 0.0916                 0.1089
 IR Inten    --      1.0328                 0.5005                 5.5812

                     13                     14                     15
                      A                      A                      A
 Frequencies --    306.8356               324.9447               355.6451
 Red. masses --      2.2236                 1.9772                 2.4016
 Frc consts  --      0.1233                 0.1230                 0.1790
 IR Inten    --      0.5377                 1.2860                 3.9404

                     16                     17                     18
                      A                      A                      A
 Frequencies --    390.7159               420.6870               439.0980
 Red. masses --      2.2689                 1.2864                 1.9180
 Frc consts  --      0.2041                 0.1341                 0.2179
 IR Inten    --      8.6937                65.8242                 1.4237

                     19                     20                     21
                      A                      A                      A
 Frequencies --    484.5952               506.8988               566.8610
 Red. masses --      1.7630                 2.0632                 2.7517
 Frc consts  --      0.2439                 0.3124                 0.5210
 IR Inten    --      4.8377                 7.2101                 5.6705

                     22                     23                     24
                      A                      A                      A
 Frequencies --    581.6466               630.9855               754.5029
 Red. masses --      2.2661                 3.1421                 2.1377
 Frc consts  --      0.4517                 0.7371                 0.7170
 IR Inten    --      7.5585                 2.4465                 2.1708

                     25                     26                     27
                      A                      A                      A
 Frequencies --    797.0773               829.0638               856.3643
 Red. masses --      3.0255                 2.2289                 1.7053
 Frc consts  --      1.1325                 0.9027                 0.7368
 IR Inten    --      5.4250                 2.1285                12.7598

                     28                     29                     30
                      A                      A                      A
 Frequencies --    873.2676               892.7734               908.1815
 Red. masses --      2.2017                 1.9614                 1.3258
 Frc consts  --      0.9892                 0.9211                 0.6443
 IR Inten    --      6.8082                 5.8687                97.3753

                     31                     32                     33
                      A                      A                      A
 Frequencies --    939.3742               972.0493               976.6609
 Red. masses --      2.4759                 1.7763                 1.7842
 Frc consts  --      1.2872                 0.9889                 1.0027
 IR Inten    --      2.8767                17.4664                 4.0082

                     34                     35                     36
                      A                      A                      A
 Frequencies --    999.5928              1006.1742              1039.9258
 Red. masses --      1.6684                 2.3911                 1.8708
 Frc consts  --      0.9822                 1.4263                 1.1920
 IR Inten    --      6.2249                 1.0500                 4.7938

                     37                     38                     39
                      A                      A                      A
 Frequencies --   1061.4379              1068.4535              1077.3099
 Red. masses --      1.9969                 2.0303                 1.9892
 Frc consts  --      1.3256                 1.3656                 1.3602
 IR Inten    --     10.7146                29.1551                14.2122

                     40                     41                     42
                      A                      A                      A
 Frequencies --   1102.1623              1134.3599              1140.7325
 Red. masses --      2.0576                 2.0581                 1.7062
 Frc consts  --      1.4726                 1.5603                 1.3081
 IR Inten    --     30.7612                 6.3833                12.6235

                     43                     44                     45
                      A                      A                      A
 Frequencies --   1150.9564              1161.1735              1169.3926
 Red. masses --      1.4021                 1.4721                 1.5087
 Frc consts  --      1.0943                 1.1694                 1.2156
 IR Inten    --     21.8539                11.0595                12.6303

                     46                     47                     48
                      A                      A                      A
 Frequencies --   1185.3675              1203.8050              1223.1861
 Red. masses --      2.4776                 1.3832                 1.4404
 Frc consts  --      2.0511                 1.1810                 1.2697
 IR Inten    --     20.2678                 8.7439                 4.7390

                     49                     50                     51
                      A                      A                      A
 Frequencies --   1236.3869              1250.8455              1263.0826
 Red. masses --      1.9622                 1.5193                 1.7521
 Frc consts  --      1.7673                 1.4005                 1.6469
 IR Inten    --     12.8952                16.0821                 2.1076

                     52                     53                     54
                      A                      A                      A
 Frequencies --   1284.6905              1286.7171              1320.0361
 Red. masses --      1.5892                 1.3735                 1.4380
 Frc consts  --      1.5454                 1.3398                 1.4763
 IR Inten    --     15.3402                 4.7072                21.0276

                     55                     56                     57
                      A                      A                      A
 Frequencies --   1336.0840              1355.9637              1362.4758
 Red. masses --      1.3801                 1.4448                 1.2893
 Frc consts  --      1.4516                 1.5651                 1.4102
 IR Inten    --      4.5697                 3.0750                 2.0091

                     58                     59                     60
                      A                      A                      A
 Frequencies --   1365.4154              1380.1018              1393.0259
 Red. masses --      1.3065                 1.3779                 1.3930
 Frc consts  --      1.4351                 1.5463                 1.5927
 IR Inten    --      4.3199                 2.1261                 5.0415

                     61                     62                     63
                      A                      A                      A
 Frequencies --   1404.6767              1420.3902              1427.1379
 Red. masses --      1.2890                 1.2943                 1.3335
 Frc consts  --      1.4984                 1.5385                 1.6003
 IR Inten    --      9.8389                 9.7219                 9.1646

                     64                     65                     66
                      A                      A                      A
 Frequencies --   1434.3187              1451.5661              1481.8039
 Red. masses --      1.4057                 1.3872                 1.1703
 Frc consts  --      1.7039                 1.7221                 1.5140
 IR Inten    --     18.4174                 6.4104                 1.7976

                     67                     68                     69
                      A                      A                      A
 Frequencies --   1483.5521              1500.5179              1512.6988
 Red. masses --      1.1684                 1.0863                 1.0800
 Frc consts  --      1.5151                 1.4410                 1.4561
 IR Inten    --      0.4361                 4.0056                 0.6907

                     70                     71                     72
                      A                      A                      A
 Frequencies --   1516.3295              1520.6149              1524.3047
 Red. masses --      1.0842                 1.0638                 1.0712
 Frc consts  --      1.4688                 1.4493                 1.4664
 IR Inten    --      7.0356                 8.4809                 8.5756

                     73                     74                     75
                      A                      A                      A
 Frequencies --   1527.3585              1529.4869              1539.3791
 Red. masses --      1.0968                 1.0887                 1.0536
 Frc consts  --      1.5075                 1.5005                 1.4710
 IR Inten    --      9.2820                 0.2863                 3.1890

                     76                     77                     78
                      A                      A                      A
 Frequencies --   1546.6396              1554.9301              1556.4867
 Red. masses --      1.0547                 1.0974                 1.0869
 Frc consts  --      1.4865                 1.5632                 1.5514
 IR Inten    --      5.1765                 3.5132                 2.0997

                     79                     80                     81
                      A                      A                      A
 Frequencies --   1730.9458              2936.1071              2950.0976
 Red. masses --      1.0800                 1.0733                 1.0698
 Frc consts  --      1.9065                 5.4514                 5.4857
 IR Inten    --     21.4030                64.0510               102.2064

                     82                     83                     84
                      A                      A                      A
 Frequencies --   2950.4854              2951.3066              3007.0132
 Red. masses --      1.0629                 1.0638                 1.0788
 Frc consts  --      5.4516                 5.4592                 5.7471
 IR Inten    --    141.9719                37.1903                17.1350

                     85                     86                     87
                      A                      A                      A
 Frequencies --   3018.5235              3032.2530              3044.0701
 Red. masses --      1.0682                 1.0683                 1.0752
 Frc consts  --      5.7345                 5.7875                 5.8699
 IR Inten    --     87.1197                 2.9159                46.4553

                     88                     89                     90
                      A                      A                      A
 Frequencies --   3055.6203              3061.3486              3063.9934
 Red. masses --      1.0787                 1.0692                 1.0723
 Frc consts  --      5.9343                 5.9036                 5.9314
 IR Inten    --    100.4030                14.8376                16.3776

                     91                     92                     93
                      A                      A                      A
 Frequencies --   3066.3324              3071.9798              3076.0867
 Red. masses --      1.0702                 1.0864                 1.0848
 Frc consts  --      5.9286                 6.0404                 6.0478
 IR Inten    --     27.3236                72.1112                46.9888

                     94                     95                     96
                      A                      A                      A
 Frequencies --   3080.2310              3084.9105              3105.8104
 Red. masses --      1.1031                 1.0756                 1.1016
 Frc consts  --      6.1665                 6.0309                 6.2607
 IR Inten    --     33.5610                40.7272                23.2662

                     97                     98                     99
                      A                      A                      A
 Frequencies --   3111.1961              3122.3329              3149.2912
 Red. masses --      1.1033                 1.1041                 1.0999
 Frc consts  --      6.2921                 6.3419                 6.4276
 IR Inten    --     40.9786                51.1150                16.4129

                    100                    101                    102
                      A                      A                      A
 Frequencies --   3174.3299              3419.7745              3533.7973
 Red. masses --      1.0880                 1.0552                 1.0885
 Frc consts  --      6.4592                 7.2706                 8.0090
 IR Inten    --      9.7987                81.7504                20.7350

 - Thermochemistry -
 -------------------
 Temperature   298.150 Kelvin.  Pressure   1.00000 Atm.
 Atom     1 has atomic number  6 and mass  12.00000

 Molecular mass:   185.18920 amu.
 Principal axes and moments of inertia in atomic units:
                           1         2         3
     Eigenvalues --  1797.679913038.465193550.00623
           X            0.99995  -0.00811  -0.00575
           Y            0.00807   0.99994  -0.00769
           Z            0.00582   0.00765   0.99995
 This molecule is an asymmetric top.
 Rotational symmetry number  1.
 Warning -- assumption of classical behavior for rotation
           may cause significant error
 Rotational temperatures (Kelvin)      0.04818     0.02851     0.02440
 Rotational constants (GHZ):           1.00393     0.59396     0.50838
 Zero-point vibrational energy     886172.8 (Joules/Mol)
                                  211.80039 (Kcal/Mol)
 Warning -- explicit consideration of  22 degrees of freedom as
           vibrations may cause significant error
 Vibrational temperatures:     60.04    65.88   110.68   165.91   202.22
          (Kelvin)            213.04   300.30   320.17   356.26   363.00
                              388.59   416.94   441.47   467.52   511.69
                              562.15   605.27   631.76   697.22   729.31
                              815.59   836.86   907.85  1085.56  1146.82
                             1192.84  1232.12  1256.44  1284.50  1306.67
                             1351.55  1398.56  1405.20  1438.19  1447.66
                             1496.22  1527.17  1537.27  1550.01  1585.77
                             1632.09  1641.26  1655.97  1670.67  1682.50
                             1705.48  1732.01  1759.89  1778.88  1799.69
                             1817.29  1848.38  1851.30  1899.24  1922.33
                             1950.93  1960.30  1964.53  1985.66  2004.25
                             2021.02  2043.62  2053.33  2063.66  2088.48
                             2131.99  2134.50  2158.91  2176.44  2181.66
                             2187.83  2193.13  2197.53  2200.59  2214.82
                             2225.27  2237.20  2239.44  2490.44  4224.40
                             4244.53  4245.09  4246.27  4326.42  4342.98
                             4362.74  4379.74  4396.36  4404.60  4408.40
                             4411.77  4419.89  4425.80  4431.77  4438.50
                             4468.57  4476.32  4492.34  4531.13  4567.15
                             4920.29  5084.35

 Zero-point correction=                           0.337525 (Hartree/Particle)
 Thermal correction to Energy=                    0.351957
 Thermal correction to Enthalpy=                  0.352902
 Thermal correction to Gibbs Free Energy=         0.296601
 Sum of electronic and zero-point Energies=           -558.857613
 Sum of electronic and thermal Energies=              -558.843181
 Sum of electronic and thermal Enthalpies=            -558.842237
 Sum of electronic and thermal Free Energies=         -558.898537

                     E (Thermal)             CV                S
                      KCal/Mol        Cal/Mol-Kelvin    Cal/Mol-Kelvin
 Total                  220.857             55.573            118.495
 Electronic               0.000              0.000              0.000
 Translational            0.889              2.981             41.555
 Rotational               0.889              2.981             31.339
 Vibrational            219.079             49.612             45.600
 Vibration     1          0.594              1.981              5.175
 Vibration     2          0.595              1.979              4.991
 Vibration     3          0.599              1.965              3.968
 Vibration     4          0.608              1.937              3.177
 Vibration     5          0.615              1.913              2.796
 Vibration     6          0.617              1.905              2.697
 Vibration     7          0.642              1.827              2.055
 Vibration     8          0.648              1.807              1.938
 Vibration     9          0.661              1.767              1.748
 Vibration    10          0.664              1.759              1.714
 Vibration    11          0.674              1.728              1.596
 Vibration    12          0.686              1.693              1.475
 Vibration    13          0.697              1.661              1.379
 Vibration    14          0.709              1.626              1.285
 Vibration    15          0.731              1.564              1.141
 Vibration    16          0.758              1.490              0.997
 Vibration    17          0.783              1.425              0.890
 Vibration    18          0.799              1.385              0.829
 Vibration    19          0.841              1.284              0.698
 Vibration    20          0.862              1.235              0.641
 Vibration    21          0.923              1.103              0.510
 Vibration    22          0.938              1.071              0.482

 Optimization completed.
    -- Stationary point found.
 Normal termination of Gaussian 16 at Wed Dec  9 22:38:59 2020.

 ----------------------------------------------------------------------
 # B3LYP/6-311++G(d,p) empiricaldispersion=gd3bj scf=xqc pop=npa geom=c
 heck
 ----------------------------------------------------------------------

 --------------------------------------
 CID_79304244_JID_3058_Energie_neutraal
 --------------------------------------
 Structure from the checkpoint file:  "JID_3058.chk"
 Charge =  0 Multiplicity = 1

 SCF Done:  E(RB3LYP) =  -559.357972583     A.U. after   13 cycles
 Normal termination of Gaussian 16 at Wed Dec  9 22:43:24 2020.

 ----------------------------------------------------------------------
 # B3LYP/6-311++G(d,p) empiricaldispersion=gd3bj scf=xqc pop=npa geom=c
 heck
 ----------------------------------------------------------------------

 ------------------------------------
 CID_79304244_JID_3058_Energie_kation
 ------------------------------------
 Structure from the checkpoint file:  "JID_3058.chk"
 Charge =  1 Multiplicity = 2

 SCF Done:  E(UB3LYP) =  -559.090218603     A.U. after   24 cycles
 Normal termination of Gaussian 16 at Wed Dec  9 22:54:54 2020.
 Gaussian 16:  ES64L-G16RevA.03 25-Dec-2016

 ----------------------------------------------------------------------
 # B3LYP/6-311++G(d,p) empiricaldispersion=gd3bj scf=xqc pop=npa geom=c
 heck
 ----------------------------------------------------------------------

 -----------------------------------
 CID_79304244_JID_3058_Energie_anion
 -----------------------------------
 Structure from the checkpoint file:  "JID_3058.chk"
 Charge = -1 Multiplicity = 2

                         Standard orientation:
 ---------------------------------------------------------------------
 Center     Atomic      Atomic             Coordinates (Angstroms)
 Number     Number       Type             X           Y           Z
 ---------------------------------------------------------------------
      1          6           0       -1.353014   -0.519929    2.156868
      2          7           0       -1.370276   -0.027280    0.788302
      3          6           0       -2.593202    0.711016    0.456207
      4          6           0       -2.632884    0.663072   -1.068075
      5          6           0       -2.197755   -0.785107   -1.341245
      6          6           0       -1.150209   -1.078687   -0.238256
      7          6           0        0.267685   -1.057184   -0.828214
      8          7           0        1.356619   -1.286096    0.121027
      9          6           0        2.459498   -2.028149   -0.471290
     10          6           0        1.819440   -0.138647    0.913265
     11          6           0        2.618570    0.990697    0.226215
     12          6           0        1.818337    1.924726   -0.691843
     13          7           0        0.635174    2.444125   -0.002604
     14          1           0       -1.378404    0.324168    2.854944
     15          1           0       -2.216711   -1.175616    2.377780
     16          1           0       -0.438531   -1.089811    2.334848
     17          1           0       -3.493409    0.220570    0.874569
     18          1           0       -2.548679    1.726501    0.867408
     19          1           0       -1.903925    1.369642   -1.481890
     20          1           0       -3.616924    0.906029   -1.479398
     21          1           0       -1.792284   -0.928211   -2.348253
     22          1           0       -3.056783   -1.456548   -1.234553
     23          1           0       -1.317801   -2.071127    0.205073
     24          1           0        0.304088   -1.874127   -1.559118
     25          1           0        0.388592   -0.129167   -1.407634
     26          1           0        2.956675   -1.513592   -1.314838
     27          1           0        3.219803   -2.219320    0.294424
     28          1           0        2.100224   -2.996349   -0.837872
     29          1           0        0.958642    0.305808    1.410333
     30          1           0        2.455142   -0.555070    1.706044
     31          1           0        3.041703    1.599926    1.035531
     32          1           0        3.466719    0.576360   -0.333875
     33          1           0        2.455559    2.779210   -0.954362
     34          1           0        1.600522    1.407745   -1.643530
     35          1           0        0.142994    3.101807   -0.604081
     36          1           0       -0.016622    1.685080    0.209576
 ---------------------------------------------------------------------

 SCF Done:  E(UB3LYP) =  -559.341786100     A.U. after   28 cycles

 The electronic state is 2-A.
 Alpha  occ. eigenvalues --  -14.20597 -14.19993 -14.18083 -10.09503 -10.09133
 Alpha  occ. eigenvalues --  -10.08951 -10.08656 -10.08539 -10.08431 -10.08403
 Alpha  occ. eigenvalues --  -10.06584 -10.06539 -10.06087  -0.83776  -0.81291
 Alpha  occ. eigenvalues --   -0.77304  -0.68896  -0.66080  -0.64570  -0.58765
 Alpha  occ. eigenvalues --   -0.58253  -0.56795  -0.51196  -0.48749  -0.46827
 Alpha  occ. eigenvalues --   -0.45154  -0.40239  -0.39605  -0.38586  -0.38128
 Alpha  occ. eigenvalues --   -0.36337  -0.35021  -0.34022  -0.33154  -0.32578
 Alpha  occ. eigenvalues --   -0.30929  -0.30108  -0.29712  -0.29493  -0.28070
 Alpha  occ. eigenvalues --   -0.27576  -0.25835  -0.25077  -0.24367  -0.24284
 Alpha  occ. eigenvalues --   -0.23857  -0.23240  -0.22812  -0.22570  -0.13763
 Alpha  occ. eigenvalues --   -0.12413  -0.10492   0.04518
 Alpha virt. eigenvalues --    0.06456   0.07012   0.07373   0.08538   0.08660
 Alpha virt. eigenvalues --    0.09073   0.09569   0.09951   0.10855   0.11347
 Alpha virt. eigenvalues --    0.11562   0.11773   0.11971   0.12948   0.13491

  Beta  occ. eigenvalues --  -14.20589 -14.19986 -14.18067 -10.09497 -10.09116
  Beta  occ. eigenvalues --  -10.08940 -10.08641 -10.08524 -10.08402 -10.08398
  Beta  occ. eigenvalues --  -10.06557 -10.06515 -10.06077  -0.83757  -0.81272
  Beta  occ. eigenvalues --   -0.77278  -0.68864  -0.66053  -0.64540  -0.58719
  Beta  occ. eigenvalues --   -0.58215  -0.56756  -0.51151  -0.48675  -0.46787
  Beta  occ. eigenvalues --   -0.45115  -0.40201  -0.39568  -0.38551  -0.38102
  Beta  occ. eigenvalues --   -0.36301  -0.34992  -0.33993  -0.33127  -0.32555
  Beta  occ. eigenvalues --   -0.30901  -0.30075  -0.29682  -0.29464  -0.28035
  Beta  occ. eigenvalues --   -0.27546  -0.25805  -0.25044  -0.24342  -0.24247
  Beta  occ. eigenvalues --   -0.23831  -0.23210  -0.22784  -0.22534  -0.13736
  Beta  occ. eigenvalues --   -0.12372  -0.10457
  Beta virt. eigenvalues --    0.06583   0.07316   0.07622   0.07944   0.09073
  Beta virt. eigenvalues --    0.09222   0.09474   0.09999   0.10254   0.11412
  Beta virt. eigenvalues --    0.11694   0.11891   0.12029   0.12403   0.13248

 Mulliken charges and spin densities:
               1          2
     1  C   -0.020160  -0.264462
     2  N    0.063152   0.041835
     3  C    0.071263  -0.357628
     4  C    0.403587  -0.862695
     5  C    0.321815  -0.750930
     6  C   -1.135130   1.293295
     7  C    0.342171  -1.265803
     8  N    0.150407   0.125429
     9  C    0.888868  -1.145939
    10  C   -0.818880   0.521542
    11  C    0.412715  -0.861412
    12  C   -0.010096  -0.307709
    13  N   -0.420347  -0.004864
    14  H    0.033364   0.121051
    15  H   -0.073704   0.187168
    16  H    0.062854   0.098076
    17  H   -0.097895   0.212041
    18  H   -0.103641   0.272956
    19  H   -0.029094   0.164604
    20  H   -0.651663   0.838367
    21  H   -0.496385   0.663669
    22  H   -0.309551   0.462132
    23  H   -0.025598   0.217774
    24  H   -0.073020   0.226825
    25  H    0.841720  -0.721978
    26  H   -0.214844   0.347118
    27  H   -0.067992   0.197817
    28  H   -0.287537   0.428516
    29  H   -0.028427   0.118501
    30  H   -0.061433   0.217679
    31  H    0.053530   0.095316
    32  H    0.013027   0.120338
    33  H   -0.167986   0.322093
    34  H   -0.321748   0.444815
    35  H   -0.023805   0.260232
    36  H    0.780464  -0.455770
 Sum of Mulliken charges =  -1.00000   1.00000

 Dipole moment (field-independent basis, Debye):
    X=              1.9940    Y=              0.4405    Z=              3.1158  Tot=              3.7253
 Quadrupole moment (field-independent basis, Debye-Ang):
   XX=           -153.2637   YY=           -134.7965   ZZ=           -123.7359
   XY=              2.0860   XZ=             -5.5546   YZ=             -2.4929

 Summary of Natural Population Analysis:

                                       Natural Population
                Natural  -----------------------------------------------
    Atom  No    Charge         Core      Valence    Rydberg      Total
 -----------------------------------------------------------------------
      C    1   -0.17474      0.99964     2.16842    0.00668     3.17474
      N    2   -0.29948      0.99971     2.78785    0.01191     3.79948
      C    3   -0.08020      0.99962     2.06952    0.01107     3.08020
      C    4   -0.19565      0.99963     2.18686    0.00916     3.19565
      C    5   -0.19385      0.99961     2.18520    0.00904     3.19385
      C    6   -0.00154      0.99958     1.98807    0.01389     3.00154
      C    7   -0.08506      0.99955     2.07278    0.01273     3.08506
      N    8   -0.28519      0.99972     2.77188    0.01359     3.78519
      C    9   -0.17423      0.99964     2.16605    0.00854     3.17423
      C   10   -0.08942      0.99959     2.07758    0.01226     3.08942
      C   11   -0.20275      0.99962     2.19492    0.00822     3.20275
      C   12   -0.08984      0.99963     2.07962    0.01059     3.08984
      N   13   -0.43527      0.99976     2.92497    0.01054     3.93527
      H   14    0.09371      0.00000     0.40536    0.00093     0.40629
      H   15    0.08172      0.00000     0.41677    0.00150     0.41828
      H   16    0.10167      0.00000     0.39702    0.00130     0.39833
      H   17    0.08179      0.00000     0.41670    0.00151     0.41821
      H   18    0.09570      0.00000     0.40322    0.00108     0.40430
      H   19    0.09672      0.00000     0.40123    0.00205     0.40328
      H   20    0.10390      0.00000     0.39429    0.00181     0.39610
      H   21    0.10258      0.00000     0.39606    0.00136     0.39742
      H   22    0.10075      0.00000     0.39745    0.00179     0.39925
      H   23    0.08931      0.00000     0.40837    0.00232     0.41069
      H   24    0.09618      0.00000     0.40224    0.00157     0.40382
      H   25    0.08451      0.00000     0.41267    0.00282     0.41549
      H   26    0.08036      0.00000     0.41820    0.00144     0.41964
      H   27    0.09347      0.00000     0.40549    0.00104     0.40653
      H   28    0.09483      0.00000     0.40397    0.00120     0.40517
      H   29    0.10304      0.00000     0.39450    0.00246     0.39696
      H   30    0.09175      0.00000     0.40726    0.00099     0.40825
      H   31    0.09726      0.00000     0.40153    0.00121     0.40274
      H   32    0.09660      0.00000     0.40229    0.00111     0.40340
      H   33    0.08825      0.00000     0.41064    0.00110     0.41175
      H   34    0.07500      0.00000     0.42295    0.00205     0.42500
      H   35    0.17333      0.00000     0.32486    0.00180     0.32667
      H   36    0.18478      0.00000     0.31142    0.00381     0.31522
 =======================================================================
   * Total *    0.00000     12.99532    38.82821    0.17647    52.00000

 Normal termination of Gaussian 16 at Wed Dec  9 23:07:13 2020.
