 Gaussian 16, Revision A.03,

 -----------------------------------------------------------
 # opt freq B3LYP/6-31G(d) empiricaldispersion=gd3bj scf=xqc
 -----------------------------------------------------------

 -------------------------------
 CID_110783391_JID_8469_neutraal
 -------------------------------
 Symbolic Z-matrix:
 Charge =  0 Multiplicity = 1

 SCF Done:  E(RB3LYP) =  -862.526396138     A.U. after   14 cycles
 SCF Done:  E(RB3LYP) =  -862.532332318     A.U. after   12 cycles
 SCF Done:  E(RB3LYP) =  -862.534124529     A.U. after   12 cycles
 SCF Done:  E(RB3LYP) =  -862.535542299     A.U. after   14 cycles
 SCF Done:  E(RB3LYP) =  -862.536073881     A.U. after   12 cycles
 SCF Done:  E(RB3LYP) =  -862.536464884     A.U. after   12 cycles
 SCF Done:  E(RB3LYP) =  -862.536864823     A.U. after   11 cycles
 SCF Done:  E(RB3LYP) =  -862.537204717     A.U. after   12 cycles
 SCF Done:  E(RB3LYP) =  -862.537212837     A.U. after   11 cycles
 SCF Done:  E(RB3LYP) =  -862.537364603     A.U. after   11 cycles
 SCF Done:  E(RB3LYP) =  -862.537593936     A.U. after    9 cycles
 SCF Done:  E(RB3LYP) =  -862.537593939     A.U. after    8 cycles
 SCF Done:  E(RB3LYP) =  -862.537593935     A.U. after    7 cycles
 SCF Done:  E(RB3LYP) =  -862.537593913     A.U. after    7 cycles
 SCF Done:  E(RB3LYP) =  -862.537593899     A.U. after    7 cycles
 SCF Done:  E(RB3LYP) =  -862.537593890     A.U. after    6 cycles
 Optimization completed.
    -- Stationary point found.
 Normal termination of Gaussian 16 at Fri Dec 11 20:55:37 2020.

 --------------------------------------------------------------------
 #N Geom=AllCheck Guess=TCheck SCRF=Check GenChk RB3LYP/6-31G(d) Freq
 --------------------------------------------------------------------

 Structure from the checkpoint file:  "JID_8469.chk"
 -------------------------------
 CID_110783391_JID_8469_neutraal
 -------------------------------
 Charge =  0 Multiplicity = 1

 SCF Done:  E(RB3LYP) =  -862.537593890     A.U. after    1 cycles

  Exact polarizability: 174.568 -13.580 165.175  13.628   8.991 122.454
 Approx polarizability: 237.827 -26.044 248.547  24.366  19.686 192.005

                      1                      2                      3
                      A                      A                      A
 Frequencies --     11.1212                31.7767                51.8748
 Red. masses --      4.1616                 4.4322                 3.8464
 Frc consts  --      0.0003                 0.0026                 0.0061
 IR Inten    --      0.3607                 0.0967                 0.8677

                      4                      5                      6
                      A                      A                      A
 Frequencies --     62.3812                74.5690                85.2690
 Red. masses --      3.1140                 2.2939                 3.9490
 Frc consts  --      0.0071                 0.0075                 0.0169
 IR Inten    --      1.1032                 2.5230                 0.9834

                      7                      8                      9
                      A                      A                      A
 Frequencies --     99.8921               108.6230               142.1299
 Red. masses --      3.0911                 4.2402                 1.4675
 Frc consts  --      0.0182                 0.0295                 0.0175
 IR Inten    --      3.3356                 1.8964                 0.8924

                     10                     11                     12
                      A                      A                      A
 Frequencies --    153.3206               163.0548               180.4357
 Red. masses --      1.1968                 3.9388                 2.6101
 Frc consts  --      0.0166                 0.0617                 0.0501
 IR Inten    --      0.1448                 1.4063                 2.7070

                     13                     14                     15
                      A                      A                      A
 Frequencies --    210.9195               220.2551               234.9136
 Red. masses --      2.4447                 2.0972                 1.7333
 Frc consts  --      0.0641                 0.0599                 0.0564
 IR Inten    --      0.8333                 1.0740                 4.2435

                     16                     17                     18
                      A                      A                      A
 Frequencies --    252.7172               288.4450               310.0977
 Red. masses --      1.7446                 1.7934                 4.4498
 Frc consts  --      0.0656                 0.0879                 0.2521
 IR Inten    --      0.4913                 0.3791                 2.2675

                     19                     20                     21
                      A                      A                      A
 Frequencies --    326.9163               349.2563               356.6978
 Red. masses --      2.3986                 4.2580                 2.3432
 Frc consts  --      0.1510                 0.3060                 0.1757
 IR Inten    --      1.7351                 5.9422                 0.8663

                     22                     23                     24
                      A                      A                      A
 Frequencies --    392.6249               422.6087               440.5056
 Red. masses --      3.4707                 3.1234                 4.3074
 Frc consts  --      0.3152                 0.3287                 0.4925
 IR Inten    --      2.6134                 9.1943                 1.8629

                     25                     26                     27
                      A                      A                      A
 Frequencies --    458.5866               514.7145               520.6681
 Red. masses --      4.1382                 2.2093                 3.9177
 Frc consts  --      0.5127                 0.3449                 0.6258
 IR Inten    --      5.3236                36.5218                 1.0815

                     28                     29                     30
                      A                      A                      A
 Frequencies --    547.0426               591.7819               610.3057
 Red. masses --      3.2977                 2.7369                 3.7834
 Frc consts  --      0.5814                 0.5647                 0.8303
 IR Inten    --     75.9509                40.4849                 4.4317

                     31                     32                     33
                      A                      A                      A
 Frequencies --    661.9298               666.4140               735.7424
 Red. masses --      5.4879                 2.4407                 4.3341
 Frc consts  --      1.4167                 0.6386                 1.3823
 IR Inten    --      0.0684                28.0183                 2.9747

                     34                     35                     36
                      A                      A                      A
 Frequencies --    737.6239               765.8331               783.7363
 Red. masses --      4.9717                 6.4091                 8.1522
 Frc consts  --      1.5938                 2.2147                 2.9503
 IR Inten    --      9.1066                 6.3240                51.3606

                     37                     38                     39
                      A                      A                      A
 Frequencies --    802.7985               839.0515               854.4655
 Red. masses --      1.3491                 3.1770                 1.3781
 Frc consts  --      0.5123                 1.3178                 0.5928
 IR Inten    --      2.7058                 5.2269                10.5334

                     40                     41                     42
                      A                      A                      A
 Frequencies --    871.7330               907.9224               934.0011
 Red. masses --      2.7860                 1.4712                 2.1676
 Frc consts  --      1.2474                 0.7145                 1.1141
 IR Inten    --      2.0512                11.2482                 0.4037

                     43                     44                     45
                      A                      A                      A
 Frequencies --    991.8722              1024.9600              1038.8663
 Red. masses --      2.0412                 5.5283                 1.5468
 Frc consts  --      1.1832                 3.4218                 0.9835
 IR Inten    --      5.3180                44.2779                 3.2996

                     46                     47                     48
                      A                      A                      A
 Frequencies --   1069.1203              1074.3695              1092.2183
 Red. masses --      1.5535                 4.3708                 3.5904
 Frc consts  --      1.0462                 2.9724                 2.5236
 IR Inten    --      1.8415                71.4923                58.4139

                     49                     50                     51
                      A                      A                      A
 Frequencies --   1120.0370              1140.3164              1147.5474
 Red. masses --      2.8620                 2.8013                 3.9502
 Frc consts  --      2.1154                 2.1461                 3.0648
 IR Inten    --     39.7455               108.5804                51.4732

                     52                     53                     54
                      A                      A                      A
 Frequencies --   1185.7005              1186.6268              1210.4714
 Red. masses --      1.2564                 1.2671                 1.7537
 Frc consts  --      1.0407                 1.0512                 1.5139
 IR Inten    --      3.6630                 1.5325                55.4179

                     55                     56                     57
                      A                      A                      A
 Frequencies --   1213.1105              1222.8345              1230.3913
 Red. masses --      1.7354                 1.4167                 1.6368
 Frc consts  --      1.5047                 1.2481                 1.4599
 IR Inten    --      3.0352                 3.0498                12.0441

                     58                     59                     60
                      A                      A                      A
 Frequencies --   1249.4747              1275.8456              1310.4984
 Red. masses --      2.6089                 1.8796                 1.4384
 Frc consts  --      2.3997                 1.8027                 1.4555
 IR Inten    --    143.6280                62.1640                20.6514

                     61                     62                     63
                      A                      A                      A
 Frequencies --   1339.0475              1342.4771              1350.5594
 Red. masses --      4.2072                 1.1549                 2.0637
 Frc consts  --      4.4446                 1.2264                 2.2178
 IR Inten    --    200.5298                19.2775               184.2938

                     64                     65                     66
                      A                      A                      A
 Frequencies --   1369.1711              1404.4343              1430.9599
 Red. masses --      4.4087                 1.3519                 1.5335
 Frc consts  --      4.8694                 1.5711                 1.8500
 IR Inten    --     77.8138                37.4884                46.3213

                     67                     68                     69
                      A                      A                      A
 Frequencies --   1442.7931              1448.5356              1452.8929
 Red. masses --      1.3355                 2.0417                 1.6358
 Frc consts  --      1.6379                 2.5240                 2.0345
 IR Inten    --     21.6217                15.8552                47.0081

                     70                     71                     72
                      A                      A                      A
 Frequencies --   1475.3384              1494.6771              1507.3732
 Red. masses --      1.4050                 1.2150                 1.2462
 Frc consts  --      1.8018                 1.5993                 1.6683
 IR Inten    --     19.5596                13.3801                 3.2928

                     73                     74                     75
                      A                      A                      A
 Frequencies --   1510.8513              1515.3823              1516.6247
 Red. masses --      1.1147                 1.0746                 1.0537
 Frc consts  --      1.4992                 1.4539                 1.4280
 IR Inten    --      5.6305                 4.6068                 6.5673

                     76                     77                     78
                      A                      A                      A
 Frequencies --   1520.6986              1521.6167              1527.8499
 Red. masses --      1.0490                 1.0782                 1.0799
 Frc consts  --      1.4293                 1.4708                 1.4852
 IR Inten    --      6.6093                15.0084                27.1814

                     79                     80                     81
                      A                      A                      A
 Frequencies --   1531.7399              1535.4353              1537.7578
 Red. masses --      1.1406                 1.0715                 1.0713
 Frc consts  --      1.5767                 1.4883                 1.4926
 IR Inten    --      8.4145                51.4952                23.8733

                     82                     83                     84
                      A                      A                      A
 Frequencies --   1541.8228              1568.2420              1630.1198
 Red. masses --      1.0505                 2.9085                 7.8577
 Frc consts  --      1.4713                 4.2145                12.3023
 IR Inten    --      5.8609               141.3683                13.8691

                     85                     86                     87
                      A                      A                      A
 Frequencies --   1671.4717              1823.6769              3027.3267
 Red. masses --      6.1569                 8.8246                 1.0348
 Frc consts  --     10.1346                17.2918                 5.5874
 IR Inten    --     23.8578               426.8795                56.9591

                     88                     89                     90
                      A                      A                      A
 Frequencies --   3033.5374              3039.8415              3060.9420
 Red. masses --      1.0395                 1.0396                 1.0366
 Frc consts  --      5.6361                 5.6601                 5.7224
 IR Inten    --     75.3051                28.4904                13.6197

                     91                     92                     93
                      A                      A                      A
 Frequencies --   3078.1744              3087.1190              3091.2127
 Red. masses --      1.0648                 1.1065                 1.0985
 Frc consts  --      5.9443                 6.2129                 6.1845
 IR Inten    --     33.8655                38.4429                27.5690

                     94                     95                     96
                      A                      A                      A
 Frequencies --   3094.1506              3113.5193              3125.3955
 Red. masses --      1.0596                 1.0952                 1.0997
 Frc consts  --      5.9766                 6.2555                 6.3291
 IR Inten    --     32.4155                36.0250                24.0590

                     97                     98                     99
                      A                      A                      A
 Frequencies --   3131.1694              3133.4521              3137.0695
 Red. masses --      1.0989                 1.1011                 1.1054
 Frc consts  --      6.3476                 6.3695                 6.4094
 IR Inten    --     35.2986                 8.8432                 1.5052

                    100                    101                    102
                      A                      A                      A
 Frequencies --   3153.7386              3158.9134              3160.4587
 Red. masses --      1.1054                 1.1079                 1.1000
 Frc consts  --      6.4778                 6.5138                 6.4735
 IR Inten    --     27.2930                22.4676                25.1322

                    103                    104                    105
                      A                      A                      A
 Frequencies --   3213.8529              3215.7883              3634.1442
 Red. masses --      1.0895                 1.0900                 1.0763
 Frc consts  --      6.6302                 6.6414                 8.3752
 IR Inten    --     15.8309                 1.6601                22.4201

 - Thermochemistry -
 -------------------
 Temperature   298.150 Kelvin.  Pressure   1.00000 Atm.
 Atom     1 has atomic number  6 and mass  12.00000

 Molecular mass:   253.13141 amu.
 Principal axes and moments of inertia in atomic units:
                           1         2         3
     Eigenvalues --  3079.483986347.536377654.18327
           X            0.99996   0.00800   0.00488
           Y           -0.00801   0.99996   0.00294
           Z           -0.00486  -0.00298   0.99998
 This molecule is an asymmetric top.
 Rotational symmetry number  1.
 Warning -- assumption of classical behavior for rotation
           may cause significant error
 Rotational temperatures (Kelvin)      0.02813     0.01365     0.01132
 Rotational constants (GHZ):           0.58605     0.28432     0.23578
 Zero-point vibrational energy     820999.4 (Joules/Mol)
                                  196.22355 (Kcal/Mol)
 Warning -- explicit consideration of  30 degrees of freedom as
           vibrations may cause significant error
 Vibrational temperatures:     16.00    45.72    74.64    89.75   107.29
          (Kelvin)            122.68   143.72   156.28   204.49   220.59
                              234.60   259.61   303.47   316.90   337.99
                              363.60   415.01   446.16   470.36   502.50
                              513.21   564.90   608.04   633.79   659.80
                              740.56   749.13   787.07   851.44   878.09
                              952.37   958.82  1058.57  1061.28  1101.86
                             1127.62  1155.05  1207.21  1229.39  1254.23
                             1306.30  1343.82  1427.08  1474.69  1494.70
                             1538.23  1545.78  1571.46  1611.48  1640.66
                             1651.06  1705.96  1707.29  1741.60  1745.40
                             1759.39  1770.26  1797.72  1835.66  1885.51
                             1926.59  1931.53  1943.15  1969.93  2020.67
                             2058.83  2075.86  2084.12  2090.39  2122.68
                             2150.51  2168.77  2173.78  2180.30  2182.08
                             2187.95  2189.27  2198.24  2203.83  2209.15
                             2212.49  2218.34  2256.35  2345.38  2404.88
                             2623.86  4355.65  4364.58  4373.65  4404.01
                             4428.81  4441.68  4447.57  4451.79  4479.66
                             4496.75  4505.05  4508.34  4513.54  4537.53
                             4544.97  4547.20  4624.02  4626.80  5228.72

 Zero-point correction=                           0.312702 (Hartree/Particle)
 Thermal correction to Energy=                    0.332070
 Thermal correction to Enthalpy=                  0.333014
 Thermal correction to Gibbs Free Energy=         0.263004
 Sum of electronic and zero-point Energies=           -862.224892
 Sum of electronic and thermal Energies=              -862.205524
 Sum of electronic and thermal Enthalpies=            -862.204580
 Sum of electronic and thermal Free Energies=         -862.274589

                     E (Thermal)             CV                S
                      KCal/Mol        Cal/Mol-Kelvin    Cal/Mol-Kelvin
 Total                  208.377             70.257            147.347
 Electronic               0.000              0.000              0.000
 Translational            0.889              2.981             42.486
 Rotational               0.889              2.981             33.370
 Vibrational            206.599             64.295             71.491
 Vibration     1          0.593              1.987              7.800
 Vibration     2          0.594              1.983              5.715
 Vibration     3          0.596              1.977              4.745
 Vibration     4          0.597              1.972              4.380
 Vibration     5          0.599              1.966              4.029
 Vibration     6          0.601              1.959              3.766
 Vibration     7          0.604              1.949              3.456
 Vibration     8          0.606              1.942              3.293
 Vibration     9          0.616              1.911              2.775
 Vibration    10          0.619              1.899              2.631
 Vibration    11          0.623              1.888              2.514
 Vibration    12          0.629              1.866              2.324
 Vibration    13          0.643              1.824              2.036
 Vibration    14          0.647              1.810              1.957
 Vibration    15          0.655              1.787              1.841
 Vibration    16          0.664              1.758              1.712
 Vibration    17          0.685              1.695              1.483
 Vibration    18          0.699              1.654              1.362
 Vibration    19          0.711              1.622              1.275
 Vibration    20          0.727              1.577              1.170
 Vibration    21          0.732              1.561              1.136
 Vibration    22          0.760              1.486              0.990
 Vibration    23          0.785              1.421              0.883
 Vibration    24          0.800              1.382              0.825
 Vibration    25          0.817              1.342              0.770
 Vibration    26          0.870              1.217              0.622
 Vibration    27          0.876              1.204              0.608
 Vibration    28          0.902              1.146              0.550
 Vibration    29          0.949              1.049              0.464
 Vibration    30          0.969              1.010              0.432

                           ! Non-Optimized Parameters !
 Normal termination of Gaussian 16 at Fri Dec 11 21:12:14 2020.

 ----------------------------------------------------------------------
 # B3LYP/6-311++G(d,p) empiricaldispersion=gd3bj scf=xqc pop=npa geom=c
 heck
 ----------------------------------------------------------------------

 ---------------------------------------
 CID_110783391_JID_8469_Energie_neutraal
 ---------------------------------------
 Structure from the checkpoint file:  "JID_8469.chk"
 Charge =  0 Multiplicity = 1

 SCF Done:  E(RB3LYP) =  -862.785436629     A.U. after   16 cycles
 Normal termination of Gaussian 16 at Fri Dec 11 21:18:52 2020.

 ----------------------------------------------------------------------
 # B3LYP/6-311++G(d,p) empiricaldispersion=gd3bj scf=xqc pop=npa geom=c
 heck
 ----------------------------------------------------------------------

 -------------------------------------
 CID_110783391_JID_8469_Energie_kation
 -------------------------------------
 Structure from the checkpoint file:  "JID_8469.chk"
 Charge =  1 Multiplicity = 2

 SCF Done:  E(UB3LYP) =  -862.501276238     A.U. after   24 cycles
 Normal termination of Gaussian 16 at Fri Dec 11 21:32:24 2020.
 Gaussian 16:  ES64L-G16RevA.03 25-Dec-2016

 ----------------------------------------------------------------------
 # B3LYP/6-311++G(d,p) empiricaldispersion=gd3bj scf=xqc pop=npa geom=c
 heck
 ----------------------------------------------------------------------

 ------------------------------------
 CID_110783391_JID_8469_Energie_anion
 ------------------------------------
 Structure from the checkpoint file:  "JID_8469.chk"
 Charge = -1 Multiplicity = 2

                         Standard orientation:
 ---------------------------------------------------------------------
 Center     Atomic      Atomic             Coordinates (Angstroms)
 Number     Number       Type             X           Y           Z
 ---------------------------------------------------------------------
      1          6           0       -1.599073   -2.288630    1.521364
      2          6           0       -2.777866   -2.196683    0.565256
      3          8           0       -2.652728   -1.045544   -0.295856
      4          6           0       -3.080621    0.130691    0.227397
      5          8           0       -3.693869    0.248187    1.273390
      6          7           0       -2.764891    1.174301   -0.605347
      7          6           0       -1.672182    1.109291   -1.582521
      8          6           0       -0.307749    0.871378   -0.967332
      9          6           0        0.298680   -0.379791   -1.121488
     10          6           0        1.513874   -0.688030   -0.525803
     11          6           0        2.168009    0.291225    0.247116
     12          6           0        1.579050    1.549613    0.385588
     13          6           0        0.344268    1.852434   -0.204015
     14          6           0       -0.265759    3.214407    0.030296
     15          8           0        3.349600   -0.080477    0.821424
     16          6           0        4.011788    0.863082    1.646678
     17          8           0        2.007283   -1.965560   -0.642788
     18          6           0        3.211912   -2.086337   -1.400608
     19          1           0       -0.652281   -2.325070    0.974290
     20          1           0       -1.684649   -3.193546    2.134019
     21          1           0       -1.587408   -1.422099    2.188883
     22          1           0       -2.806893   -3.046294   -0.121348
     23          1           0       -3.725826   -2.131448    1.103745
     24          1           0       -2.951887    2.069439   -0.176251
     25          1           0       -1.700174    2.052439   -2.137678
     26          1           0       -1.899137    0.312221   -2.293453
     27          1           0       -0.195811   -1.158833   -1.692183
     28          1           0        2.071973    2.314668    0.974798
     29          1           0       -1.083959    3.167167    0.760740
     30          1           0        0.476751    3.915859    0.422063
     31          1           0       -0.675270    3.647712   -0.889884
     32          1           0        4.304574    1.758159    1.082106
     33          1           0        3.383670    1.162471    2.495484
     34          1           0        4.906424    0.360010    2.017082
     35          1           0        3.068543   -1.704023   -2.420228
     36          1           0        4.039459   -1.553515   -0.922708
     37          1           0        3.437849   -3.154173   -1.442987
 ---------------------------------------------------------------------

 SCF Done:  E(UB3LYP) =  -862.774583236     A.U. after   32 cycles

 The electronic state is 2-A.
 Alpha  occ. eigenvalues --  -19.07617 -19.06192 -19.04854 -19.00860 -14.24642
 Alpha  occ. eigenvalues --  -10.23001 -10.14655 -10.14007 -10.12973 -10.12493
 Alpha  occ. eigenvalues --  -10.12464 -10.12141 -10.09013 -10.08162 -10.08069
 Alpha  occ. eigenvalues --  -10.07887 -10.07664 -10.07163  -1.02182  -0.98243
 Alpha  occ. eigenvalues --   -0.95807  -0.92942  -0.84123  -0.76534  -0.69034
 Alpha  occ. eigenvalues --   -0.68351  -0.67213  -0.63030  -0.61816  -0.59731
 Alpha  occ. eigenvalues --   -0.57651  -0.55793  -0.51496  -0.49394  -0.48184
 Alpha  occ. eigenvalues --   -0.44985  -0.43753  -0.41926  -0.41140  -0.40214
 Alpha  occ. eigenvalues --   -0.39354  -0.38124  -0.37237  -0.36519  -0.35994
 Alpha  occ. eigenvalues --   -0.35290  -0.35041  -0.34711  -0.33659  -0.32612
 Alpha  occ. eigenvalues --   -0.32302  -0.30836  -0.29914  -0.29713  -0.29409
 Alpha  occ. eigenvalues --   -0.28492  -0.28108  -0.26623  -0.26113  -0.26001
 Alpha  occ. eigenvalues --   -0.23646  -0.22429  -0.21607  -0.19852  -0.19222
 Alpha  occ. eigenvalues --   -0.17353  -0.15072  -0.12418   0.04060
 Alpha virt. eigenvalues --    0.05976   0.06387   0.06961   0.07664   0.08128
 Alpha virt. eigenvalues --    0.08659   0.08709   0.09082   0.09476   0.09993
 Alpha virt. eigenvalues --    0.10387   0.10680   0.10935   0.11284   0.11474

  Beta  occ. eigenvalues --  -19.07613 -19.06183 -19.04852 -19.00858 -14.24626
  Beta  occ. eigenvalues --  -10.23002 -10.14653 -10.13990 -10.12976 -10.12447
  Beta  occ. eigenvalues --  -10.12439 -10.12125 -10.09006 -10.08153 -10.08066
  Beta  occ. eigenvalues --  -10.07884 -10.07651 -10.07115  -1.02176  -0.98222
  Beta  occ. eigenvalues --   -0.95798  -0.92937  -0.84097  -0.76513  -0.69014
  Beta  occ. eigenvalues --   -0.68330  -0.67183  -0.62980  -0.61767  -0.59692
  Beta  occ. eigenvalues --   -0.57632  -0.55738  -0.51459  -0.49364  -0.48152
  Beta  occ. eigenvalues --   -0.44969  -0.43720  -0.41891  -0.41117  -0.40181
  Beta  occ. eigenvalues --   -0.39335  -0.38088  -0.37223  -0.36496  -0.35978
  Beta  occ. eigenvalues --   -0.35260  -0.35009  -0.34689  -0.33608  -0.32589
  Beta  occ. eigenvalues --   -0.32264  -0.30820  -0.29885  -0.29690  -0.29390
  Beta  occ. eigenvalues --   -0.28454  -0.28071  -0.26592  -0.26095  -0.25974
  Beta  occ. eigenvalues --   -0.23608  -0.22401  -0.21595  -0.19845  -0.19209
  Beta  occ. eigenvalues --   -0.17336  -0.15045  -0.12366
  Beta virt. eigenvalues --    0.06105   0.06764   0.06951   0.07329   0.07850
  Beta virt. eigenvalues --    0.08599   0.08763   0.09155   0.09326   0.09582
  Beta virt. eigenvalues --    0.10263   0.10677   0.11285   0.11332   0.11424

 Mulliken charges and spin densities:
               1          2
     1  C   -0.347811  -0.066398
     2  C   -0.290862   0.006609
     3  O   -0.037789  -0.004820
     4  C    0.185340  -0.193444
     5  O   -0.332692   0.022902
     6  N   -0.312405   0.117508
     7  C    1.050385  -1.668674
     8  C   -0.294718   1.119969
     9  C    0.428323  -0.466178
    10  C   -0.322105  -0.390038
    11  C   -0.996007   0.320088
    12  C    0.378631  -0.363317
    13  C   -0.762142   1.434846
    14  C    1.146809  -1.869297
    15  O   -0.239268   0.076154
    16  C    0.988058  -1.317897
    17  O   -0.124898   0.013343
    18  C    0.255902  -0.513797
    19  H    0.293484  -0.044329
    20  H    0.094536   0.028659
    21  H    0.120362   0.048270
    22  H    0.101153   0.035843
    23  H    0.173650  -0.001944
    24  H    0.085361   0.234061
    25  H   -0.344583   0.568485
    26  H    0.104448   0.098067
    27  H    0.125543   0.047044
    28  H    0.330436  -0.148817
    29  H    0.058171   0.125424
    30  H   -0.829928   0.990148
    31  H   -0.262115   0.414644
    32  H   -0.469156   0.639805
    33  H   -0.300892   0.455163
    34  H   -0.567767   0.750087
    35  H   -0.079869   0.195173
    36  H   -0.008109   0.185888
    37  H    0.002523   0.120767
 Sum of Mulliken charges =  -1.00000   1.00000

 Dipole moment (field-independent basis, Debye):
    X=             -4.8820    Y=             -7.5613    Z=             -2.2707  Tot=              9.2824
 Quadrupole moment (field-independent basis, Debye-Ang):
   XX=           -193.7988   YY=           -162.5881   ZZ=           -146.3677
   XY=              1.0353   XZ=             -8.4259   YZ=             -1.1338

 Summary of Natural Population Analysis:

                                       Natural Population
                Natural  -----------------------------------------------
    Atom  No    Charge         Core      Valence    Rydberg      Total
 -----------------------------------------------------------------------
      C    1   -0.30173      0.99966     2.29765    0.00442     3.30173
      C    2   -0.01412      0.99959     2.00424    0.01029     3.01412
      O    3   -0.28992      0.99986     3.28213    0.00792     4.28992
      C    4    0.46181      0.99970     1.51192    0.02657     2.53819
      O    5   -0.33263      0.99987     3.32780    0.00496     4.33263
      N    6   -0.32489      0.99967     2.81527    0.00994     3.82489
      C    7   -0.09553      0.99958     2.08296    0.01299     3.09553
      C    8   -0.04048      0.99945     2.03068    0.01035     3.04048
      C    9   -0.10335      0.99947     2.09413    0.00975     3.10335
      C   10    0.12650      0.99933     1.85872    0.01545     2.87350
      C   11    0.15098      0.99934     1.83653    0.01315     2.84902
      C   12   -0.13554      0.99948     2.12724    0.00882     3.13554
      C   13   -0.00345      0.99948     1.99397    0.01000     3.00345
      C   14   -0.29630      0.99964     2.29033    0.00632     3.29630
      O   15   -0.27295      0.99986     3.26241    0.01069     4.27295
      C   16   -0.10026      0.99960     2.09149    0.00917     3.10026
      O   17   -0.28783      0.99986     3.27815    0.00982     4.28783
      C   18   -0.09623      0.99959     2.08886    0.00778     3.09623
      H   19    0.10863      0.00000     0.39017    0.00120     0.39137
      H   20    0.09761      0.00000     0.40162    0.00078     0.40239
      H   21    0.10712      0.00000     0.39188    0.00100     0.39288
      H   22    0.08665      0.00000     0.41229    0.00106     0.41335
      H   23    0.09490      0.00000     0.40376    0.00134     0.40510
      H   24    0.19773      0.00000     0.29993    0.00234     0.30227
      H   25    0.10590      0.00000     0.39259    0.00151     0.39410
      H   26    0.10272      0.00000     0.39587    0.00141     0.39728
      H   27    0.10464      0.00000     0.39369    0.00167     0.39536
      H   28    0.10797      0.00000     0.39043    0.00160     0.39203
      H   29    0.10399      0.00000     0.39453    0.00148     0.39601
      H   30    0.10764      0.00000     0.39088    0.00148     0.39236
      H   31    0.10424      0.00000     0.39407    0.00169     0.39576
      H   32    0.08710      0.00000     0.41059    0.00231     0.41290
      H   33    0.08668      0.00000     0.41147    0.00185     0.41332
      H   34    0.09530      0.00000     0.40312    0.00159     0.40470
      H   35    0.07928      0.00000     0.41915    0.00158     0.42072
      H   36    0.09183      0.00000     0.40607    0.00210     0.40817
      H   37    0.08599      0.00000     0.41286    0.00115     0.41401
 =======================================================================
   * Total *   -0.00000     17.99304    49.78943    0.21753    68.00000

 Normal termination of Gaussian 16 at Fri Dec 11 21:50:38 2020.
