 Gaussian 16, Revision A.03,

 -----------------------------------------------------------
 # opt freq B3LYP/6-31G(d) empiricaldispersion=gd3bj scf=xqc
 -----------------------------------------------------------

 -------------------------------
 CID_123554297_JID_3995_neutraal
 -------------------------------
 Symbolic Z-matrix:
 Charge =  0 Multiplicity = 1

 SCF Done:  E(RB3LYP) =  -652.307252450     A.U. after   14 cycles
 SCF Done:  E(RB3LYP) =  -652.315105366     A.U. after   12 cycles
 SCF Done:  E(RB3LYP) =  -652.316639024     A.U. after   13 cycles
 SCF Done:  E(RB3LYP) =  -652.316800195     A.U. after   12 cycles
 SCF Done:  E(RB3LYP) =  -652.317602352     A.U. after   11 cycles
 SCF Done:  E(RB3LYP) =  -652.318007869     A.U. after   11 cycles
 SCF Done:  E(RB3LYP) =  -652.318361535     A.U. after   11 cycles
 SCF Done:  E(RB3LYP) =  -652.318581351     A.U. after   11 cycles
 SCF Done:  E(RB3LYP) =  -652.318654080     A.U. after   12 cycles
 SCF Done:  E(RB3LYP) =  -652.318754209     A.U. after   11 cycles
 SCF Done:  E(RB3LYP) =  -652.318805929     A.U. after    9 cycles
 SCF Done:  E(RB3LYP) =  -652.318808741     A.U. after    9 cycles
 SCF Done:  E(RB3LYP) =  -652.318809850     A.U. after    8 cycles
 SCF Done:  E(RB3LYP) =  -652.318810406     A.U. after    9 cycles
 SCF Done:  E(RB3LYP) =  -652.318810500     A.U. after    7 cycles
 Optimization completed.
    -- Stationary point found.

 1\1\GINC-NODE304\FOpt\RB3LYP\6-31G(d)\C9H14O4\VSC10255\14-Dec-2020\0\\
 # opt freq B3LYP/6-31G(d) empiricaldispersion=gd3bj scf=xqc\\CID_12355
 4297_JID_3995_neutraal\\0,1\C,1.2892599584,-0.4454123445,0.0295517481\
 C,0.4651036393,-0.2795308616,1.309045466\C,1.2467308892,-0.178031424,2
 .6128981915\C,2.7366452977,-0.4881273365,2.7536609393\C,2.2339123124,0
 .9062235988,2.8821710559\O,2.4620084741,1.8447530004,1.8609818414\C,3.
 7587520405,2.25536118,1.6734641393\O,4.6938329645,1.8503275692,2.31630
 07007\C,3.8122977348,3.2655230505,0.5556557672\O,2.2953406198,1.489004

 Normal termination of Gaussian 16 at Mon Dec 14 13:12:02 2020.

 --------------------------------------------------------------------
 #N Geom=AllCheck Guess=TCheck SCRF=Check GenChk RB3LYP/6-31G(d) Freq
 --------------------------------------------------------------------

 Structure from the checkpoint file:  "JID_3995.chk"
 -------------------------------
 CID_123554297_JID_3995_neutraal
 -------------------------------
 Charge =  0 Multiplicity = 1

 SCF Done:  E(RB3LYP) =  -652.318810500     A.U. after    1 cycles

  Exact polarizability: 106.615  -0.960 100.814  -2.595   3.390  94.765
 Approx polarizability: 130.044  -0.615 135.859  -4.020  16.452 154.696

                      1                      2                      3
                      A                      A                      A
 Frequencies --     51.6071                56.4307                59.5177
 Red. masses --      5.7156                 2.2063                 2.1648
 Frc consts  --      0.0090                 0.0041                 0.0045
 IR Inten    --      0.0730                 3.6645                 3.9423

                      4                      5                      6
                      A                      A                      A
 Frequencies --     67.5328                81.4882                95.1931
 Red. masses --      2.1238                 3.3126                 1.4272
 Frc consts  --      0.0057                 0.0130                 0.0076
 IR Inten    --      0.8828                 0.1634                 0.5379

                      7                      8                      9
                      A                      A                      A
 Frequencies --     98.1028               108.8490               155.9153
 Red. masses --      1.4526                 2.9086                 3.7785
 Frc consts  --      0.0082                 0.0203                 0.0541
 IR Inten    --      0.7653                 2.5385                 1.8913

                     10                     11                     12
                      A                      A                      A
 Frequencies --    203.1902               234.4133               256.8618
 Red. masses --      5.3587                 3.5850                 1.4572
 Frc consts  --      0.1304                 0.1161                 0.0566
 IR Inten    --      2.8010                 0.6483                 0.4633

                     13                     14                     15
                      A                      A                      A
 Frequencies --    299.8921               341.5040               345.5059
 Red. masses --      2.5365                 2.8097                 3.2883
 Frc consts  --      0.1344                 0.1931                 0.2313
 IR Inten    --      2.0767                 1.9718                 0.1575

                     16                     17                     18
                      A                      A                      A
 Frequencies --    454.9728               481.0358               494.1901
 Red. masses --      4.0954                 4.0146                 2.6732
 Frc consts  --      0.4995                 0.5473                 0.3847
 IR Inten    --     13.0448                18.6737                 1.1225

                     19                     20                     21
                      A                      A                      A
 Frequencies --    550.0614               597.8775               606.1108
 Red. masses --      2.9137                 2.8366                 3.7937
 Frc consts  --      0.5194                 0.5974                 0.8211
 IR Inten    --      2.0515                 8.2762                 8.6916

                     22                     23                     24
                      A                      A                      A
 Frequencies --    616.0855               670.1432               764.4284
 Red. masses --      3.1510                 4.1690                 1.7353
 Frc consts  --      0.7047                 1.1031                 0.5975
 IR Inten    --     12.8368                 5.1374                 5.4298

                     25                     26                     27
                      A                      A                      A
 Frequencies --    789.3185               814.0453               887.7431
 Red. masses --      3.2481                 1.6907                 2.8576
 Frc consts  --      1.1923                 0.6601                 1.3269
 IR Inten    --      0.4833                 2.4907                13.9456

                     28                     29                     30
                      A                      A                      A
 Frequencies --    903.9550               946.3150               960.3656
 Red. masses --      3.6663                 1.9793                 2.2867
 Frc consts  --      1.7651                 1.0443                 1.2426
 IR Inten    --      9.6052                 2.7709                22.8609

                     31                     32                     33
                      A                      A                      A
 Frequencies --    986.3638              1020.9498              1041.3047
 Red. masses --      2.2654                 1.9544                 1.7732
 Frc consts  --      1.2986                 1.2002                 1.1328
 IR Inten    --      9.7605               104.2828                46.0237

                     34                     35                     36
                      A                      A                      A
 Frequencies --   1063.3109              1066.4808              1075.6827
 Red. masses --      1.6446                 1.4913                 1.7548
 Frc consts  --      1.0955                 0.9993                 1.1963
 IR Inten    --      8.2879                54.7584                 5.5350

                     37                     38                     39
                      A                      A                      A
 Frequencies --   1077.7604              1084.5039              1138.0365
 Red. masses --      1.7412                 2.6680                 1.7621
 Frc consts  --      1.1916                 1.8489                 1.3446
 IR Inten    --      5.8640                32.7023                 4.0849

                     40                     41                     42
                      A                      A                      A
 Frequencies --   1153.7876              1174.2356              1197.6101
 Red. masses --      2.3975                 1.8739                 2.6122
 Frc consts  --      1.8804                 1.5224                 2.2074
 IR Inten    --     16.1020                99.5966               487.1825

                     43                     44                     45
                      A                      A                      A
 Frequencies --   1265.9905              1272.0508              1322.4575
 Red. masses --      3.3219                 3.8220                 1.2703
 Frc consts  --      3.1368                 3.6438                 1.3089
 IR Inten    --    199.1233               190.4842                11.6174

                     46                     47                     48
                      A                      A                      A
 Frequencies --   1338.4789              1392.3918              1422.5292
 Red. masses --      1.6110                 1.6148                 1.3408
 Frc consts  --      1.7005                 1.8445                 1.5986
 IR Inten    --     19.6939                10.2383                49.2963

                     49                     50                     51
                      A                      A                      A
 Frequencies --   1423.8596              1428.2861              1448.1649
 Red. masses --      1.3309                 1.4062                 1.3427
 Frc consts  --      1.5898                 1.6901                 1.6590
 IR Inten    --     51.7115                 1.4623                 4.2386

                     52                     53                     54
                      A                      A                      A
 Frequencies --   1499.0455              1499.6484              1503.2687
 Red. masses --      1.0487                 1.0496                 1.0478
 Frc consts  --      1.3885                 1.3908                 1.3951
 IR Inten    --     14.6119                 8.4646                 7.4465

                     55                     56                     57
                      A                      A                      A
 Frequencies --   1503.3317              1515.6328              1524.2021
 Red. masses --      1.0472                 1.3684                 1.3081
 Frc consts  --      1.3943                 1.8520                 1.7905
 IR Inten    --      7.1010                14.6486                10.8525

                     58                     59                     60
                      A                      A                      A
 Frequencies --   1532.0560              1544.6247              1850.2906
 Red. masses --      1.0437                 1.0621                11.4630
 Frc consts  --      1.4433                 1.4930                23.1221
 IR Inten    --      4.6685                 3.4107                57.2698

                     61                     62                     63
                      A                      A                      A
 Frequencies --   1860.1373              3045.8945              3057.7321
 Red. masses --     11.5809                 1.0614                 1.0380
 Frc consts  --     23.6092                 5.8019                 5.7181
 IR Inten    --    329.9281                31.8761                23.4771

                     64                     65                     66
                      A                      A                      A
 Frequencies --   3071.7878              3072.9505              3080.5438
 Red. masses --      1.0374                 1.0369                 1.1012
 Frc consts  --      5.7673                 5.7692                 6.1569
 IR Inten    --      1.3869                 1.5954                13.5577

                     67                     68                     69
                      A                      A                      A
 Frequencies --   3118.4108              3134.3937              3135.4553
 Red. masses --      1.1018                 1.1000                 1.1003
 Frc consts  --      6.3127                 6.3670                 6.3735
 IR Inten    --     35.1859                 4.1196                 4.5145

                     70                     71                     72
                      A                      A                      A
 Frequencies --   3141.3962              3166.5804              3168.8104
 Red. masses --      1.1007                 1.0811                 1.0622
 Frc consts  --      6.3996                 6.3867                 6.2841
 IR Inten    --     35.5628                11.5069                 3.6345

                     73                     74                     75
                      A                      A                      A
 Frequencies --   3185.3272              3185.4014              3253.9229
 Red. masses --      1.1036                 1.1035                 1.1178
 Frc consts  --      6.5976                 6.5973                 6.9729
 IR Inten    --      8.7353                 6.5652                 4.2190

 - Thermochemistry -
 -------------------
 Temperature   298.150 Kelvin.  Pressure   1.00000 Atm.
 Atom     1 has atomic number  6 and mass  12.00000

 Molecular mass:   186.08921 amu.
 Principal axes and moments of inertia in atomic units:
                           1         2         3
     Eigenvalues --  1999.621052591.248433574.76972
           X            0.99814  -0.05747  -0.02030
           Y            0.05675   0.99780  -0.03436
           Z            0.02223   0.03315   0.99920
 This molecule is an asymmetric top.
 Rotational symmetry number  1.
 Warning -- assumption of classical behavior for rotation
           may cause significant error
 Rotational temperatures (Kelvin)      0.04332     0.03343     0.02423
 Rotational constants (GHZ):           0.90254     0.69648     0.50486
 Zero-point vibrational energy     586395.9 (Joules/Mol)
                                  140.15198 (Kcal/Mol)
 Warning -- explicit consideration of  22 degrees of freedom as
           vibrations may cause significant error
 Vibrational temperatures:     74.25    81.19    85.63    97.16   117.24
          (Kelvin)            136.96   141.15   156.61   224.33   292.35
                              337.27   369.57   431.48   491.35   497.11
                              654.60   692.10   711.03   791.42   860.21
                              872.06   886.41   964.19  1099.84  1135.65
                             1171.23  1277.26  1300.59  1361.54  1381.75
                             1419.16  1468.92  1498.21  1529.87  1534.43
                             1547.67  1550.66  1560.36  1637.38  1660.04
                             1689.46  1723.09  1821.48  1830.20  1902.72
                             1925.77  2003.34  2046.70  2048.62  2054.99
                             2083.59  2156.79  2157.66  2162.87  2162.96
                             2180.66  2192.99  2204.29  2222.37  2662.16
                             2676.32  4382.36  4399.39  4419.62  4421.29
                             4432.22  4486.70  4509.69  4511.22  4519.77
                             4556.00  4559.21  4582.98  4583.08  4681.67

 Zero-point correction=                           0.223346 (Hartree/Particle)
 Thermal correction to Energy=                    0.238140
 Thermal correction to Enthalpy=                  0.239084
 Thermal correction to Gibbs Free Energy=         0.180295
 Sum of electronic and zero-point Energies=           -652.095464
 Sum of electronic and thermal Energies=              -652.080671
 Sum of electronic and thermal Enthalpies=            -652.079726
 Sum of electronic and thermal Free Energies=         -652.138515

                     E (Thermal)             CV                S
                      KCal/Mol        Cal/Mol-Kelvin    Cal/Mol-Kelvin
 Total                  149.435             51.863            123.732
 Electronic               0.000              0.000              0.000
 Translational            0.889              2.981             41.569
 Rotational               0.889              2.981             31.294
 Vibrational            147.658             45.901             50.869
 Vibration     1          0.596              1.977              4.755
 Vibration     2          0.596              1.975              4.578
 Vibration     3          0.597              1.974              4.473
 Vibration     4          0.598              1.970              4.224
 Vibration     5          0.600              1.962              3.855
 Vibration     6          0.603              1.953              3.550
 Vibration     7          0.604              1.951              3.492
 Vibration     8          0.606              1.942              3.289
 Vibration     9          0.620              1.896              2.599
 Vibration    10          0.639              1.835              2.104
 Vibration    11          0.654              1.788              1.845
 Vibration    12          0.666              1.751              1.683
 Vibration    13          0.692              1.674              1.418
 Vibration    14          0.721              1.593              1.205
 Vibration    15          0.724              1.584              1.187
 Vibration    16          0.813              1.350              0.781
 Vibration    17          0.837              1.292              0.707
 Vibration    18          0.850              1.263              0.673
 Vibration    19          0.905              1.140              0.544
 Vibration    20          0.956              1.036              0.453
 Vibration    21          0.965              1.019              0.439
 Vibration    22          0.976              0.998              0.423

                           ! Non-Optimized Parameters !

 1\1\GINC-NODE304\Freq\RB3LYP\6-31G(d)\C9H14O4\VSC10255\14-Dec-2020\0\\
 #N Geom=AllCheck Guess=TCheck SCRF=Check GenChk RB3LYP/6-31G(d) Freq\\
 CID_123554297_JID_3995_neutraal\\0,1\C,1.2892599584,-0.4454123445,0.02
 95517481\C,0.4651036393,-0.2795308616,1.309045466\C,1.2467308892,-0.17
 8031424,2.6128981915\C,2.7366452977,-0.4881273365,2.7536609393\C,2.233
 9123124,0.9062235988,2.8821710559\O,2.4620084741,1.8447530004,1.860981
 8414\C,3.7587520405,2.25536118,1.6734641393\O,4.6938329645,1.850327569
 2,2.3163007007\C,3.8122977348,3.2655230505,0.5556557672\O,2.2953406198

 Normal termination of Gaussian 16 at Mon Dec 14 13:18:34 2020.

 ----------------------------------------------------------------------
 # B3LYP/6-311++G(d,p) empiricaldispersion=gd3bj scf=xqc pop=npa geom=c
 heck
 ----------------------------------------------------------------------

 ---------------------------------------
 CID_123554297_JID_3995_Energie_neutraal
 ---------------------------------------
 Structure from the checkpoint file:  "JID_3995.chk"
 Charge =  0 Multiplicity = 1

 SCF Done:  E(RB3LYP) =  -652.511149002     A.U. after   14 cycles
 Normal termination of Gaussian 16 at Mon Dec 14 13:20:45 2020.

 ----------------------------------------------------------------------
 # B3LYP/6-311++G(d,p) empiricaldispersion=gd3bj scf=xqc pop=npa geom=c
 heck
 ----------------------------------------------------------------------

 -------------------------------------
 CID_123554297_JID_3995_Energie_kation
 -------------------------------------
 Structure from the checkpoint file:  "JID_3995.chk"
 Charge =  1 Multiplicity = 2

 SCF Done:  E(UB3LYP) =  -652.167263274     A.U. after   24 cycles
 Normal termination of Gaussian 16 at Mon Dec 14 13:25:42 2020.
 Gaussian 16:  ES64L-G16RevA.03 25-Dec-2016

 ------------------------------------
 CID_123554297_JID_3995_Energie_anion
 ------------------------------------
 Structure from the checkpoint file:  "JID_3995.chk"
 Charge = -1 Multiplicity = 2

                         Standard orientation:
 ---------------------------------------------------------------------
 Center     Atomic      Atomic             Coordinates (Angstroms)
 Number     Number       Type             X           Y           Z
 ---------------------------------------------------------------------
      1          6           0        2.865379   -1.518987   -0.418726
      2          6           0        1.488580   -2.182806   -0.506037
      3          6           0        0.427246   -1.677083    0.463029
      4          6           0        0.711072   -0.766907    1.657533
      5          6           0       -0.045431   -0.263243    0.479613
      6          8           0        0.552778    0.631869   -0.424053
      7          6           0        0.813899    1.898349    0.037628
      8          8           0        0.574778    2.269974    1.158513
      9          6           0        1.437245    2.718830   -1.062845
     10          8           0       -1.413189    0.010912    0.671925
     11          6           0       -2.248480   -0.337586   -0.357877
     12          8           0       -1.880206   -0.878606   -1.371335
     13          6           0       -3.663594    0.060930   -0.024694
     14          1           0        2.811556   -0.446624   -0.625412
     15          1           0        3.545857   -1.966582   -1.150949
     16          1           0        3.311319   -1.654249    0.573058
     17          1           0        1.086282   -2.077397   -1.521064
     18          1           0        1.609661   -3.259137   -0.330581
     19          1           0       -0.382236   -2.385041    0.623915
     20          1           0        0.157906   -0.922297    2.578138
     21          1           0        1.716519   -0.381663    1.787993
     22          1           0        0.782066    2.728996   -1.939474
     23          1           0        1.607426    3.735325   -0.707467
     24          1           0        2.386487    2.268571   -1.372419
     25          1           0       -3.969283   -0.391220    0.924092
     26          1           0       -3.722031    1.147230    0.100131
     27          1           0       -4.330313   -0.258086   -0.826106
 ---------------------------------------------------------------------

 SCF Done:  E(UB3LYP) =  -652.496815493     A.U. after   33 cycles
 SCF Done:  E(UB3LYP) =  -652.496815493     a.u. after    1 cycles

 The electronic state is 2-A.
 Alpha  occ. eigenvalues --  -19.07739 -19.07658 -19.02235 -19.02087 -10.21347
 Alpha  occ. eigenvalues --  -10.21233 -10.19393 -10.08978 -10.08426 -10.08411
 Alpha  occ. eigenvalues --  -10.08294 -10.07455 -10.06031  -1.03793  -1.00221
 Alpha  occ. eigenvalues --   -0.94287  -0.92486  -0.77811  -0.67480  -0.66135
 Alpha  occ. eigenvalues --   -0.65614  -0.56433  -0.55698  -0.52879  -0.48293
 Alpha  occ. eigenvalues --   -0.42023  -0.40622  -0.40449  -0.39367  -0.38147
 Alpha  occ. eigenvalues --   -0.37844  -0.37422  -0.36202  -0.34669  -0.32196
 Alpha  occ. eigenvalues --   -0.32083  -0.31647  -0.30967  -0.30356  -0.29315
 Alpha  occ. eigenvalues --   -0.28566  -0.27276  -0.26256  -0.24756  -0.23976
 Alpha  occ. eigenvalues --   -0.22616  -0.21119  -0.19883  -0.18217  -0.17588
 Alpha  occ. eigenvalues --    0.04364
 Alpha virt. eigenvalues --    0.06252   0.06823   0.08213   0.08414   0.08759
 Alpha virt. eigenvalues --    0.08957   0.09740   0.10172   0.10331   0.11216
 Alpha virt. eigenvalues --    0.11553   0.11842   0.12140   0.13294   0.14122

  Beta  occ. eigenvalues --  -19.07728 -19.07650 -19.02228 -19.02080 -10.21344
  Beta  occ. eigenvalues --  -10.21231 -10.19391 -10.08969 -10.08375 -10.08363
  Beta  occ. eigenvalues --  -10.08277 -10.07442 -10.05997  -1.03779  -1.00205
  Beta  occ. eigenvalues --   -0.94272  -0.92470  -0.77791  -0.67439  -0.66079
  Beta  occ. eigenvalues --   -0.65568  -0.56387  -0.55648  -0.52843  -0.48244
  Beta  occ. eigenvalues --   -0.41985  -0.40590  -0.40409  -0.39344  -0.38114
  Beta  occ. eigenvalues --   -0.37809  -0.37394  -0.36165  -0.34642  -0.32155
  Beta  occ. eigenvalues --   -0.32043  -0.31612  -0.30928  -0.30319  -0.29285
  Beta  occ. eigenvalues --   -0.28529  -0.27235  -0.26224  -0.24720  -0.23958
  Beta  occ. eigenvalues --   -0.22604  -0.21101  -0.19867  -0.18200  -0.17573
  Beta virt. eigenvalues --    0.06554   0.07295   0.07582   0.08607   0.08873
  Beta virt. eigenvalues --    0.09027   0.09091   0.10344   0.10713   0.10817
  Beta virt. eigenvalues --    0.11524   0.11979   0.12243   0.12700   0.13545

 Mulliken charges and spin densities:
               1          2
     1  C    0.704411  -1.279668
     2  C   -0.843928   0.431949
     3  C   -0.267746   0.999746
     4  C    1.065212  -1.437863
     5  C   -0.315971  -0.625976
     6  O    0.115732   0.002791
     7  C   -0.493060   0.687168
     8  O   -0.222862   0.011977
     9  C    1.324224  -1.866647
    10  O    0.045574   0.079641
    11  C   -0.830164   1.055645
    12  O   -0.231073   0.039123
    13  C    1.211836  -1.776391
    14  H    0.219953  -0.048793
    15  H   -0.248994   0.381889
    16  H   -0.204151   0.342928
    17  H    0.093330   0.084093
    18  H   -0.180218   0.325100
    19  H   -0.286792   0.529992
    20  H   -0.007140   0.196738
    21  H    0.041945   0.141174
    22  H   -0.214947   0.396576
    23  H   -0.129064   0.296558
    24  H   -0.550594   0.713626
    25  H   -0.385987   0.564118
    26  H   -0.292849   0.471704
    27  H   -0.116676   0.282802
 Sum of Mulliken charges =  -1.00000   1.00000

 Dipole moment (field-independent basis, Debye):
    X=              0.0113    Y=             -0.4435    Z=              0.8731  Tot=              0.9794
 Quadrupole moment (field-independent basis, Debye-Ang):
   XX=           -140.7174   YY=           -125.7826   ZZ=           -114.0800
   XY=             -0.7421   XZ=              6.0887   YZ=              0.7988

 Summary of Natural Population Analysis:

                                       Natural Population
                Natural  -----------------------------------------------
    Atom  No    Charge         Core      Valence    Rydberg      Total
 -----------------------------------------------------------------------
      C    1   -0.28772      0.99966     2.28285    0.00520     3.28772
      C    2   -0.19085      0.99961     2.18351    0.00773     3.19085
      C    3   -0.11290      0.99954     2.10115    0.01221     3.11290
      C    4   -0.19926      0.99956     2.19091    0.00878     3.19926
      C    5    0.27499      0.99934     1.70488    0.02078     2.72501
      O    6   -0.28715      0.99984     3.27739    0.00992     4.28715
      C    7    0.41042      0.99970     1.56494    0.02493     2.58958
      O    8   -0.29080      0.99987     3.28519    0.00574     4.29080
      C    9   -0.33378      0.99962     2.32885    0.00531     3.33378
      O   10   -0.28562      0.99985     3.27587    0.00990     4.28562
      C   11    0.41039      0.99970     1.56482    0.02509     2.58961
      O   12   -0.29300      0.99987     3.28717    0.00597     4.29300
      C   13   -0.33182      0.99962     2.32733    0.00487     3.33182
      H   14    0.10056      0.00000     0.39783    0.00161     0.39944
      H   15    0.10066      0.00000     0.39826    0.00109     0.39934
      H   16    0.09496      0.00000     0.40371    0.00134     0.40504
      H   17    0.10522      0.00000     0.39329    0.00150     0.39478
      H   18    0.09744      0.00000     0.40122    0.00133     0.40256
      H   19    0.11128      0.00000     0.38718    0.00154     0.38872
      H   20    0.11186      0.00000     0.38681    0.00133     0.38814
      H   21    0.11005      0.00000     0.38874    0.00121     0.38995
      H   22    0.11650      0.00000     0.38222    0.00128     0.38350
      H   23    0.11021      0.00000     0.38874    0.00105     0.38979
      H   24    0.11689      0.00000     0.38125    0.00187     0.38311
      H   25    0.11550      0.00000     0.38241    0.00209     0.38450
      H   26    0.11626      0.00000     0.38206    0.00168     0.38374
      H   27    0.10971      0.00000     0.38910    0.00119     0.39029
 =======================================================================
   * Total *    0.00000     12.99578    36.83770    0.16652    50.00000

 Normal termination of Gaussian 16 at Mon Dec 14 13:32:33 2020.
