 Gaussian 16, Revision A.03,

 -----------------------------------------------------------
 # opt freq B3LYP/6-31G(d) empiricaldispersion=gd3bj scf=xqc
 -----------------------------------------------------------

 ------------------------------
 CID_64479730_JID_6505_neutraal
 ------------------------------
 Symbolic Z-matrix:
 Charge =  0 Multiplicity = 1

 SCF Done:  E(RB3LYP) =  -1091.78227532     A.U. after   14 cycles
 SCF Done:  E(RB3LYP) =  -1091.78708958     A.U. after   12 cycles
 SCF Done:  E(RB3LYP) =  -1091.78424740     A.U. after   12 cycles
 SCF Done:  E(RB3LYP) =  -1091.78763181     A.U. after   12 cycles
 SCF Done:  E(RB3LYP) =  -1091.78960124     A.U. after   12 cycles
 SCF Done:  E(RB3LYP) =  -1091.79056040     A.U. after   12 cycles
 SCF Done:  E(RB3LYP) =  -1091.79088476     A.U. after   12 cycles
 SCF Done:  E(RB3LYP) =  -1091.79103915     A.U. after   11 cycles
 SCF Done:  E(RB3LYP) =  -1091.79109672     A.U. after   11 cycles
 SCF Done:  E(RB3LYP) =  -1091.79111297     A.U. after   11 cycles
 SCF Done:  E(RB3LYP) =  -1091.79111657     A.U. after    9 cycles
 SCF Done:  E(RB3LYP) =  -1091.79111724     A.U. after    8 cycles
 SCF Done:  E(RB3LYP) =  -1091.79111733     A.U. after    7 cycles
 Optimization completed.
    -- Stationary point found.
 Normal termination of Gaussian 16 at Thu Dec 10 23:21:43 2020.

 --------------------------------------------------------------------
 #N Geom=AllCheck Guess=TCheck SCRF=Check GenChk RB3LYP/6-31G(d) Freq
 --------------------------------------------------------------------

 Structure from the checkpoint file:  "JID_6505.chk"
 ------------------------------
 CID_64479730_JID_6505_neutraal
 ------------------------------
 Charge =  0 Multiplicity = 1

 SCF Done:  E(RB3LYP) =  -1091.79111733     A.U. after    1 cycles

  Exact polarizability: 162.938  -5.490 149.581   1.664  -0.844 133.942
 Approx polarizability: 211.670  -1.673 208.160  -2.758  -0.090 216.505

                      1                      2                      3
                      A                      A                      A
 Frequencies --     34.8885                47.6933                65.6482
 Red. masses --      3.7115                 2.8973                 2.9633
 Frc consts  --      0.0027                 0.0039                 0.0075
 IR Inten    --      0.5068                 0.6378                 0.7351

                      4                      5                      6
                      A                      A                      A
 Frequencies --     67.8587                92.4328               130.9967
 Red. masses --      3.3265                 3.5994                 3.1400
 Frc consts  --      0.0090                 0.0181                 0.0317
 IR Inten    --      0.1745                 0.4882                 1.7463

                      7                      8                      9
                      A                      A                      A
 Frequencies --    156.6661               184.2825               192.3739
 Red. masses --      4.4317                 4.2101                 3.0885
 Frc consts  --      0.0641                 0.0842                 0.0673
 IR Inten    --      1.4314                 2.0360                 3.7185

                     10                     11                     12
                      A                      A                      A
 Frequencies --    234.1326               238.8284               258.5539
 Red. masses --      1.1968                 1.0658                 1.8279
 Frc consts  --      0.0387                 0.0358                 0.0720
 IR Inten    --      0.1393                 0.4316                13.2164

                     13                     14                     15
                      A                      A                      A
 Frequencies --    264.0571               272.0494               281.1362
 Red. masses --      1.7828                 1.5315                 2.0370
 Frc consts  --      0.0732                 0.0668                 0.0949
 IR Inten    --      0.5298                15.0001                 8.1907

                     16                     17                     18
                      A                      A                      A
 Frequencies --    287.5010               310.5711               326.0590
 Red. masses --      3.6594                 2.6039                 2.4950
 Frc consts  --      0.1782                 0.1480                 0.1563
 IR Inten    --      2.0655                 0.6548                 3.9184

                     19                     20                     21
                      A                      A                      A
 Frequencies --    344.6855               378.6825               415.4454
 Red. masses --      2.6036                 2.5784                 2.4032
 Frc consts  --      0.1822                 0.2178                 0.2444
 IR Inten    --      0.7864                 1.8051                 5.4046

                     22                     23                     24
                      A                      A                      A
 Frequencies --    427.1665               432.7688               439.6753
 Red. masses --      2.1970                 2.0755                 2.3839
 Frc consts  --      0.2362                 0.2290                 0.2715
 IR Inten    --      5.1930                 6.0167                 2.6935

                     25                     26                     27
                      A                      A                      A
 Frequencies --    449.0077               463.4964               511.9557
 Red. masses --      2.5921                 3.7832                 5.4781
 Frc consts  --      0.3079                 0.4788                 0.8460
 IR Inten    --      6.1077                 2.6636                30.8922

                     28                     29                     30
                      A                      A                      A
 Frequencies --    524.8013               573.2325               638.8061
 Red. masses --      2.5083                 6.8575                 3.8511
 Frc consts  --      0.4070                 1.3276                 0.9259
 IR Inten    --      0.3807                61.9973                23.3831

                     31                     32                     33
                      A                      A                      A
 Frequencies --    707.4733               768.0894               813.2366
 Red. masses --      2.7733                 4.6275                 2.1480
 Frc consts  --      0.8178                 1.6085                 0.8370
 IR Inten    --     10.9208                44.9741                 2.8390

                     34                     35                     36
                      A                      A                      A
 Frequencies --    835.3781               853.7494               887.1033
 Red. masses --      2.7435                 2.6168                 1.5484
 Frc consts  --      1.1280                 1.1238                 0.7179
 IR Inten    --      2.7419                 4.1298                 9.6842

                     37                     38                     39
                      A                      A                      A
 Frequencies --    894.6687               907.4046               925.7531
 Red. masses --      1.5086                 2.3627                 1.9056
 Frc consts  --      0.7115                 1.1462                 0.9622
 IR Inten    --      0.8316                53.3536                62.8192

                     40                     41                     42
                      A                      A                      A
 Frequencies --    933.5896               941.8223               948.1743
 Red. masses --      2.5077                 1.3201                 1.1908
 Frc consts  --      1.2878                 0.6899                 0.6308
 IR Inten    --    135.9233                19.3700                 1.6370

                     43                     44                     45
                      A                      A                      A
 Frequencies --    972.6725               979.5738               983.1862
 Red. masses --      1.9822                 1.7081                 1.4809
 Frc consts  --      1.1049                 0.9657                 0.8434
 IR Inten    --      0.5921                 5.2830                 1.1494

                     46                     47                     48
                      A                      A                      A
 Frequencies --   1023.7791              1047.7787              1063.0174
 Red. masses --      1.5809                 1.9609                 2.0467
 Frc consts  --      0.9763                 1.2684                 1.3627
 IR Inten    --      6.3428                 2.2359                15.7050

                     49                     50                     51
                      A                      A                      A
 Frequencies --   1090.4513              1101.2712              1115.1663
 Red. masses --      1.9922                 2.7568                 2.0707
 Frc consts  --      1.3957                 1.9699                 1.5172
 IR Inten    --      7.0575                80.8351                36.3067

                     52                     53                     54
                      A                      A                      A
 Frequencies --   1136.3037              1141.2984              1151.6379
 Red. masses --      1.9359                 1.7362                 2.3557
 Frc consts  --      1.4727                 1.3324                 1.8408
 IR Inten    --     25.7643                65.1140                 5.9662

                     55                     56                     57
                      A                      A                      A
 Frequencies --   1157.8674              1192.7530              1207.3479
 Red. masses --      2.1446                 1.8649                 1.5832
 Frc consts  --      1.6940                 1.5632                 1.3598
 IR Inten    --     50.6824                 4.1626                10.5800

                     58                     59                     60
                      A                      A                      A
 Frequencies --   1211.4173              1244.1957              1263.6646
 Red. masses --      1.7646                 1.5638                 1.6985
 Frc consts  --      1.5257                 1.4263                 1.5980
 IR Inten    --      4.5146                15.4940                 4.4252

                     61                     62                     63
                      A                      A                      A
 Frequencies --   1272.2162              1296.8239              1309.2867
 Red. masses --      1.3373                 3.1134                 1.2281
 Frc consts  --      1.2752                 3.0850                 1.2404
 IR Inten    --      6.2092               119.9322                 2.4928

                     64                     65                     66
                      A                      A                      A
 Frequencies --   1322.6938              1339.4306              1349.0125
 Red. masses --      1.6977                 1.3742                 1.4962
 Frc consts  --      1.7500                 1.4526                 1.6042
 IR Inten    --     53.7357                 4.0949                 5.7272

                     67                     68                     69
                      A                      A                      A
 Frequencies --   1359.8726              1375.0296              1379.0211
 Red. masses --      1.3820                 1.2989                 1.4153
 Frc consts  --      1.5057                 1.4469                 1.5857
 IR Inten    --      4.2479                 0.2016                 4.1271

                     70                     71                     72
                      A                      A                      A
 Frequencies --   1394.3850              1404.1585              1409.8055
 Red. masses --      1.4505                 1.3733                 1.3743
 Frc consts  --      1.6617                 1.5953                 1.6094
 IR Inten    --      3.9480                 2.1822                10.6649

                     73                     74                     75
                      A                      A                      A
 Frequencies --   1415.2856              1425.4875              1429.5058
 Red. masses --      1.3482                 1.3336                 1.2654
 Frc consts  --      1.5910                 1.5966                 1.5235
 IR Inten    --      2.3739                 6.4139                 2.8246

                     76                     77                     78
                      A                      A                      A
 Frequencies --   1436.1134              1446.8365              1448.4393
 Red. masses --      1.2689                 1.2892                 1.2376
 Frc consts  --      1.5418                 1.5900                 1.5298
 IR Inten    --      5.4044                 3.0198                 1.7971

                     79                     80                     81
                      A                      A                      A
 Frequencies --   1488.3791              1513.9147              1517.2473
 Red. masses --      1.0844                 1.0734                 1.0530
 Frc consts  --      1.4153                 1.4496                 1.4282
 IR Inten    --      2.2256                 2.8834                 5.6748

                     82                     83                     84
                      A                      A                      A
 Frequencies --   1520.1498              1521.0273              1524.0233
 Red. masses --      1.0827                 1.0691                 1.0645
 Frc consts  --      1.4741                 1.4573                 1.4567
 IR Inten    --      2.0642                 3.4386                13.2122

                     85                     86                     87
                      A                      A                      A
 Frequencies --   1524.9537              1534.3146              1535.5366
 Red. masses --      1.0680                 1.0572                 1.0682
 Frc consts  --      1.4633                 1.4664                 1.4840
 IR Inten    --      1.8807                 0.3004                11.7083

                     88                     89                     90
                      A                      A                      A
 Frequencies --   1539.2598              1543.8994              1691.6466
 Red. masses --      1.0494                 1.0831                 1.0881
 Frc consts  --      1.4649                 1.5211                 1.8346
 IR Inten    --     16.1069                 3.7779                35.4864

                     91                     92                     93
                      A                      A                      A
 Frequencies --   2989.6252              3005.1987              3017.7995
 Red. masses --      1.0734                 1.0804                 1.0755
 Frc consts  --      5.6528                 5.7490                 5.7711
 IR Inten    --     47.3581                17.9434                45.9051

                     94                     95                     96
                      A                      A                      A
 Frequencies --   3036.9405              3040.7203              3043.5458
 Red. masses --      1.0395                 1.0361                 1.0694
 Frc consts  --      5.6486                 5.6443                 5.8366
 IR Inten    --     22.3543                28.2922                52.0235

                     97                     98                     99
                      A                      A                      A
 Frequencies --   3054.3747              3055.1142              3061.8841
 Red. masses --      1.0402                 1.0604                 1.0682
 Frc consts  --      5.7178                 5.8317                 5.9002
 IR Inten    --     22.4241                21.1858                16.4111

                    100                    101                    102
                      A                      A                      A
 Frequencies --   3070.1478              3088.1110              3094.6693
 Red. masses --      1.0742                 1.0914                 1.0965
 Frc consts  --      5.9656                 6.1325                 6.1870
 IR Inten    --      2.2266                19.9822                26.7905

                    103                    104                    105
                      A                      A                      A
 Frequencies --   3099.0041              3105.8724              3108.5899
 Red. masses --      1.1008                 1.1013                 1.0960
 Frc consts  --      6.2286                 6.2593                 6.2402
 IR Inten    --     48.1813                11.5811                68.3021

                    106                    107                    108
                      A                      A                      A
 Frequencies --   3114.6114              3118.2612              3121.6654
 Red. masses --      1.1018                 1.1016                 1.0978
 Frc consts  --      6.2972                 6.3109                 6.3032
 IR Inten    --     27.4111                57.6296                33.6118

                    109                    110                    111
                      A                      A                      A
 Frequencies --   3129.8770              3153.6181              3154.4697
 Red. masses --      1.1055                 1.0928                 1.0961
 Frc consts  --      6.3806                 6.4032                 6.4260
 IR Inten    --      3.5077                 7.7686                14.5016

                    112                    113                    114
                      A                      A                      A
 Frequencies --   3170.7018              3441.0730              3529.0796
 Red. masses --      1.0898                 1.0507                 1.0906
 Frc consts  --      6.4553                 7.3301                 8.0029
 IR Inten    --      5.6372                 1.6813                 0.1583

 - Thermochemistry -
 -------------------
 Temperature   298.150 Kelvin.  Pressure   1.00000 Atm.
 Atom     1 has atomic number  6 and mass  12.00000

 Molecular mass:   248.15585 amu.
 Principal axes and moments of inertia in atomic units:
                           1         2         3
     Eigenvalues --  2983.295204600.777185898.45638
           X            0.99872  -0.05060  -0.00275
           Y            0.05057   0.99867  -0.01011
           Z            0.00326   0.00996   0.99995
 This molecule is an asymmetric top.
 Rotational symmetry number  1.
 Warning -- assumption of classical behavior for rotation
           may cause significant error
 Rotational temperatures (Kelvin)      0.02903     0.01883     0.01468
 Rotational constants (GHZ):           0.60495     0.39227     0.30597
 Zero-point vibrational energy     942764.9 (Joules/Mol)
                                  225.32623 (Kcal/Mol)
 Warning -- explicit consideration of  29 degrees of freedom as
           vibrations may cause significant error
 Vibrational temperatures:     50.20    68.62    94.45    97.63   132.99
          (Kelvin)            188.47   225.41   265.14   276.78   336.86
                              343.62   372.00   379.92   391.42   404.49
                              413.65   446.84   469.13   495.93   544.84
                              597.73   614.60   622.66   632.59   646.02
                              666.87   736.59   755.07   824.75   919.10
                             1017.90  1105.11  1170.07  1201.92  1228.35
                             1276.34  1287.23  1305.55  1331.95  1343.23
                             1355.07  1364.21  1399.46  1409.39  1414.59
                             1472.99  1507.52  1529.44  1568.92  1584.48
                             1604.48  1634.89  1642.07  1656.95  1665.91
                             1716.11  1737.10  1742.96  1790.12  1818.13
                             1830.44  1865.84  1883.77  1903.06  1927.14
                             1940.93  1956.55  1978.36  1984.10  2006.21
                             2020.27  2028.40  2036.28  2050.96  2056.74
                             2066.25  2081.68  2083.98  2141.45  2178.19
                             2182.98  2187.16  2188.42  2192.73  2194.07
                             2207.54  2209.29  2214.65  2221.33  2433.90
                             4301.40  4323.81  4341.94  4369.48  4374.92
                             4378.98  4394.56  4395.63  4405.37  4417.26
                             4443.10  4452.54  4458.78  4468.66  4472.57
                             4481.23  4486.48  4491.38  4503.19  4537.35
                             4538.58  4561.93  4950.94  5077.56

 Zero-point correction=                           0.359080 (Hartree/Particle)
 Thermal correction to Energy=                    0.377009
 Thermal correction to Enthalpy=                  0.377953
 Thermal correction to Gibbs Free Energy=         0.313864
 Sum of electronic and zero-point Energies=          -1091.432037
 Sum of electronic and thermal Energies=             -1091.414108
 Sum of electronic and thermal Enthalpies=           -1091.413164
 Sum of electronic and thermal Free Energies=        -1091.477254

                     E (Thermal)             CV                S
                      KCal/Mol        Cal/Mol-Kelvin    Cal/Mol-Kelvin
 Total                  236.577             69.156            134.888
 Electronic               0.000              0.000              0.000
 Translational            0.889              2.981             42.427
 Rotational               0.889              2.981             32.759
 Vibrational            234.799             63.194             59.701
 Vibration     1          0.594              1.983              5.530
 Vibration     2          0.595              1.978              4.911
 Vibration     3          0.597              1.971              4.280
 Vibration     4          0.598              1.970              4.215
 Vibration     5          0.602              1.955              3.608
 Vibration     6          0.612              1.922              2.931
 Vibration     7          0.620              1.895              2.590
 Vibration     8          0.631              1.861              2.285
 Vibration     9          0.634              1.850              2.205
 Vibration    10          0.654              1.789              1.847
 Vibration    11          0.657              1.781              1.812
 Vibration    12          0.667              1.748              1.672
 Vibration    13          0.671              1.739              1.635
 Vibration    14          0.675              1.725              1.583
 Vibration    15          0.681              1.709              1.527
 Vibration    16          0.685              1.697              1.489
 Vibration    17          0.699              1.654              1.359
 Vibration    18          0.710              1.623              1.280
 Vibration    19          0.723              1.586              1.190
 Vibration    20          0.749              1.516              1.044
 Vibration    21          0.779              1.437              0.908
 Vibration    22          0.789              1.411              0.868
 Vibration    23          0.794              1.399              0.850
 Vibration    24          0.800              1.384              0.828
 Vibration    25          0.808              1.363              0.799
 Vibration    26          0.821              1.331              0.756
 Vibration    27          0.867              1.224              0.629
 Vibration    28          0.880              1.195              0.599
 Vibration    29          0.929              1.089              0.498

                           ! Non-Optimized Parameters !
 Normal termination of Gaussian 16 at Thu Dec 10 23:38:10 2020.

 ----------------------------------------------------------------------
 # B3LYP/6-311++G(d,p) empiricaldispersion=gd3bj scf=xqc pop=npa geom=c
 heck
 ----------------------------------------------------------------------

 --------------------------------------
 CID_64479730_JID_6505_Energie_neutraal
 --------------------------------------
 Structure from the checkpoint file:  "JID_6505.chk"
 Charge =  0 Multiplicity = 1

 SCF Done:  E(RB3LYP) =  -1092.02086992     A.U. after   14 cycles
 Normal termination of Gaussian 16 at Thu Dec 10 23:45:36 2020.

 ----------------------------------------------------------------------
 # B3LYP/6-311++G(d,p) empiricaldispersion=gd3bj scf=xqc pop=npa geom=c
 heck
 ----------------------------------------------------------------------

 ------------------------------------
 CID_64479730_JID_6505_Energie_kation
 ------------------------------------
 Structure from the checkpoint file:  "JID_6505.chk"
 Charge =  1 Multiplicity = 2

 SCF Done:  E(UB3LYP) =  -1091.70534579     A.U. after   23 cycles
 Normal termination of Gaussian 16 at Fri Dec 11 00:01:50 2020.
 Gaussian 16:  ES64L-G16RevA.03 25-Dec-2016

 ----------------------------------------------------------------------
 # B3LYP/6-311++G(d,p) empiricaldispersion=gd3bj scf=xqc pop=npa geom=c
 heck
 ----------------------------------------------------------------------

 -----------------------------------
 CID_64479730_JID_6505_Energie_anion
 -----------------------------------
 Structure from the checkpoint file:  "JID_6505.chk"
 Charge = -1 Multiplicity = 2

                         Standard orientation:
 ---------------------------------------------------------------------
 Center     Atomic      Atomic             Coordinates (Angstroms)
 Number     Number       Type             X           Y           Z
 ---------------------------------------------------------------------
      1          6           0       -1.421026    1.460242    1.635417
      2          6           0       -2.519298    1.220895    0.594498
      3          6           0       -3.168858    2.546653    0.173250
      4          6           0       -2.011386    0.509264   -0.665314
      5         16           0       -1.475026   -1.206675   -0.399521
      6          8           0       -2.133343   -1.752759    0.795766
      7          8           0       -1.597667   -1.902251   -1.690318
      8          7           0        0.159378   -0.996013    0.002826
      9          6           0        0.713931   -1.913917    1.008784
     10          6           0        2.018948   -1.316744    1.542889
     11          6           0        2.991125   -0.979104    0.402368
     12          6           0        2.327849   -0.098404   -0.676155
     13          6           0        1.050287   -0.803494   -1.150583
     14          6           0        2.039303    1.344152   -0.204280
     15          6           0        3.323185    2.107522    0.148676
     16          7           0        1.225716    2.035819   -1.223635
     17          1           0       -0.618213    2.076940    1.214771
     18          1           0       -0.983526    0.521266    1.980797
     19          1           0       -1.831963    1.986535    2.504277
     20          1           0       -3.287488    0.582451    1.046249
     21          1           0       -2.434452    3.208289   -0.303408
     22          1           0       -3.988337    2.387088   -0.536704
     23          1           0       -3.574769    3.070952    1.045522
     24          1           0       -2.807962    0.413936   -1.409697
     25          1           0       -1.163066    1.036715   -1.117187
     26          1           0        0.907606   -2.904667    0.564871
     27          1           0       -0.021865   -2.040019    1.803508
     28          1           0        2.482365   -2.031989    2.232779
     29          1           0        1.784813   -0.416917    2.123890
     30          1           0        3.897469   -0.510649    0.799105
     31          1           0        3.311400   -1.914674   -0.075964
     32          1           0        3.007143   -0.036669   -1.540691
     33          1           0        0.541160   -0.200193   -1.899773
     34          1           0        1.298387   -1.772995   -1.608635
     35          1           0        1.407423    1.287517    0.686965
     36          1           0        4.003291    2.146209   -0.712596
     37          1           0        3.087312    3.138864    0.436775
     38          1           0        3.864596    1.651413    0.984064
     39          1           0        1.030516    2.984094   -0.904251
     40          1           0        1.776625    2.142350   -2.077536
 ---------------------------------------------------------------------

 SCF Done:  E(UB3LYP) =  -1092.01318631     A.U. after   27 cycles

 The electronic state is 2-A.
 Alpha  occ. eigenvalues --  -88.96207 -19.02298 -19.01944 -14.24679 -14.19452
 Alpha  occ. eigenvalues --  -10.11597 -10.10980 -10.10793 -10.10093 -10.09666
 Alpha  occ. eigenvalues --  -10.08419 -10.08353 -10.07853 -10.07512 -10.06578
 Alpha  occ. eigenvalues --  -10.05774  -8.02462  -5.98743  -5.98713  -5.98510
 Alpha  occ. eigenvalues --   -1.02075  -0.91150  -0.85041  -0.79255  -0.73528
 Alpha  occ. eigenvalues --   -0.71308  -0.67806  -0.64636  -0.62759  -0.59868
 Alpha  occ. eigenvalues --   -0.58193  -0.54937  -0.52536  -0.50150  -0.48122
 Alpha  occ. eigenvalues --   -0.44778  -0.44429  -0.40564  -0.39965  -0.38517
 Alpha  occ. eigenvalues --   -0.37868  -0.37555  -0.35956  -0.35760  -0.35005
 Alpha  occ. eigenvalues --   -0.34668  -0.32836  -0.32506  -0.31755  -0.31259
 Alpha  occ. eigenvalues --   -0.30322  -0.29743  -0.29581  -0.29278  -0.27012
 Alpha  occ. eigenvalues --   -0.26426  -0.25832  -0.25597  -0.25265  -0.24375
 Alpha  occ. eigenvalues --   -0.24177  -0.23152  -0.22559  -0.22212  -0.21404
 Alpha  occ. eigenvalues --   -0.20302  -0.16019  -0.15105   0.03906
 Alpha virt. eigenvalues --    0.06060   0.06643   0.07194   0.08250   0.08340
 Alpha virt. eigenvalues --    0.08894   0.09429   0.09861   0.10573   0.10869
 Alpha virt. eigenvalues --    0.11256   0.11380   0.11969   0.12546   0.12970

  Beta  occ. eigenvalues --  -88.96205 -19.02293 -19.01941 -14.24676 -14.19399
  Beta  occ. eigenvalues --  -10.11593 -10.10970 -10.10787 -10.10085 -10.09663
  Beta  occ. eigenvalues --  -10.08406 -10.08341 -10.07836 -10.07485 -10.06561
  Beta  occ. eigenvalues --  -10.05725  -8.02458  -5.98739  -5.98711  -5.98507
  Beta  occ. eigenvalues --   -1.02064  -0.91138  -0.85031  -0.79173  -0.73512
  Beta  occ. eigenvalues --   -0.71271  -0.67775  -0.64611  -0.62688  -0.59827
  Beta  occ. eigenvalues --   -0.58163  -0.54888  -0.52485  -0.50101  -0.48084
  Beta  occ. eigenvalues --   -0.44743  -0.44402  -0.40544  -0.39933  -0.38496
  Beta  occ. eigenvalues --   -0.37837  -0.37529  -0.35919  -0.35734  -0.34962
  Beta  occ. eigenvalues --   -0.34649  -0.32808  -0.32478  -0.31709  -0.31231
  Beta  occ. eigenvalues --   -0.30286  -0.29702  -0.29547  -0.29253  -0.26991
  Beta  occ. eigenvalues --   -0.26387  -0.25798  -0.25571  -0.25246  -0.24344
  Beta  occ. eigenvalues --   -0.24151  -0.23117  -0.22543  -0.22189  -0.21395
  Beta  occ. eigenvalues --   -0.20292  -0.16006  -0.15046
  Beta virt. eigenvalues --    0.06102   0.06613   0.07491   0.07658   0.08621
  Beta virt. eigenvalues --    0.08833   0.09158   0.09909   0.10069   0.10831
  Beta virt. eigenvalues --    0.11134   0.11547   0.11655   0.12335   0.12756

 Mulliken charges and spin densities:
               1          2
     1  C   -0.143402  -0.412294
     2  C   -0.366785   0.605225
     3  C    0.244836  -0.905230
     4  C   -0.640055  -0.013630
     5  S    0.544502  -0.313319
     6  O   -0.234797   0.001750
     7  O   -0.104731   0.001213
     8  N    0.018698   0.037875
     9  C   -0.290247  -0.012792
    10  C   -0.463272   0.140030
    11  C    0.666676  -1.288096
    12  C   -0.671305   1.252047
    13  C   -0.498764  -0.188144
    14  C   -0.975183   0.538660
    15  C    2.722197  -3.231108
    16  N   -0.591455   0.290418
    17  H   -0.165542   0.313935
    18  H    0.206434  -0.045696
    19  H   -0.198794   0.364240
    20  H    0.199210   0.011015
    21  H   -0.190885   0.342772
    22  H   -0.050818   0.172487
    23  H   -0.077147   0.216342
    24  H    0.201901   0.062981
    25  H    0.312350   0.007509
    26  H    0.180507  -0.016509
    27  H    0.100309   0.095338
    28  H   -0.149793   0.329315
    29  H   -0.016299   0.156810
    30  H   -0.146124   0.295973
    31  H    0.069996   0.065870
    32  H   -0.223882   0.464166
    33  H    0.156891   0.012597
    34  H    0.037579   0.160114
    35  H    0.752441  -0.642867
    36  H   -0.275114   0.426136
    37  H   -0.509040   0.650834
    38  H   -0.202955   0.344735
    39  H   -0.000577   0.236531
    40  H   -0.227562   0.472769
 Sum of Mulliken charges =  -1.00000   1.00000

 Dipole moment (field-independent basis, Debye):
    X=             -3.1787    Y=             -4.6597    Z=              1.0609  Tot=              5.7396
 Quadrupole moment (field-independent basis, Debye-Ang):
   XX=           -176.1303   YY=           -172.4951   ZZ=           -148.6766
   XY=            -15.1913   XZ=              1.5016   YZ=              0.2892

 Summary of Natural Population Analysis:

                                       Natural Population
                Natural  -----------------------------------------------
    Atom  No    Charge         Core      Valence    Rydberg      Total
 -----------------------------------------------------------------------
      C    1   -0.28464      0.99964     2.27858    0.00643     3.28464
      C    2   -0.12270      0.99961     2.11348    0.00961     3.12270
      C    3   -0.28265      0.99965     2.27719    0.00581     3.28265
      C    4   -0.29116      0.99954     2.27971    0.01192     3.29116
      S    5    1.10094      4.99925     1.80275    0.09707     6.89906
      O    6   -0.46914      0.99991     3.46409    0.00514     4.46914
      O    7   -0.46765      0.99991     3.46270    0.00504     4.46765
      N    8   -0.37911      0.99971     2.86632    0.01307     3.87911
      C    9   -0.08588      0.99960     2.07571    0.01057     3.08588
      C   10   -0.19464      0.99962     2.18639    0.00863     3.19464
      C   11   -0.18877      0.99961     2.18012    0.00903     3.18877
      C   12   -0.11403      0.99956     2.10094    0.01352     3.11403
      C   13   -0.08719      0.99958     2.07502    0.01259     3.08719
      C   14   -0.02199      0.99958     2.00909    0.01332     3.02199
      C   15   -0.29046      0.99964     2.28476    0.00606     3.29046
      N   16   -0.42835      0.99977     2.91703    0.01154     3.92835
      H   17    0.09955      0.00000     0.39869    0.00177     0.40045
      H   18    0.10420      0.00000     0.39426    0.00153     0.39580
      H   19    0.09787      0.00000     0.40129    0.00084     0.40213
      H   20    0.10140      0.00000     0.39673    0.00187     0.39860
      H   21    0.10197      0.00000     0.39679    0.00124     0.39803
      H   22    0.09704      0.00000     0.40215    0.00080     0.40296
      H   23    0.10085      0.00000     0.39832    0.00083     0.39915
      H   24    0.11348      0.00000     0.38549    0.00103     0.38652
      H   25    0.13213      0.00000     0.36585    0.00202     0.36787
      H   26    0.08555      0.00000     0.41328    0.00117     0.41445
      H   27    0.11288      0.00000     0.38606    0.00106     0.38712
      H   28    0.10115      0.00000     0.39797    0.00088     0.39885
      H   29    0.09898      0.00000     0.39937    0.00166     0.40102
      H   30    0.10558      0.00000     0.39330    0.00112     0.39442
      H   31    0.09545      0.00000     0.40343    0.00112     0.40455
      H   32    0.10253      0.00000     0.39600    0.00147     0.39747
      H   33    0.11524      0.00000     0.38322    0.00154     0.38476
      H   34    0.09203      0.00000     0.40682    0.00115     0.40797
      H   35    0.09332      0.00000     0.40309    0.00359     0.40668
      H   36    0.09837      0.00000     0.39971    0.00192     0.40163
      H   37    0.10238      0.00000     0.39596    0.00165     0.39762
      H   38    0.09938      0.00000     0.39931    0.00131     0.40062
      H   39    0.18072      0.00000     0.31584    0.00343     0.31928
      H   40    0.17537      0.00000     0.32165    0.00298     0.32463
 =======================================================================
   * Total *    0.00000     19.99417    47.72849    0.27734    68.00000

 Normal termination of Gaussian 16 at Fri Dec 11 00:20:55 2020.
