 Gaussian 16, Revision A.03,

 -----------------------------------------------------------
 # opt freq B3LYP/6-31G(d) empiricaldispersion=gd3bj scf=xqc
 -----------------------------------------------------------

 -------------------------------
 CID_152793520_JID_3302_neutraal
 -------------------------------
 Symbolic Z-matrix:
 Charge =  0 Multiplicity = 1

 SCF Done:  E(RB3LYP) =  -615.196999340     A.U. after   13 cycles
 SCF Done:  E(RB3LYP) =  -615.199910360     A.U. after   12 cycles
 SCF Done:  E(RB3LYP) =  -615.200384604     A.U. after   12 cycles
 SCF Done:  E(RB3LYP) =  -615.200680590     A.U. after   11 cycles
 SCF Done:  E(RB3LYP) =  -615.201068352     A.U. after   11 cycles
 SCF Done:  E(RB3LYP) =  -615.201194365     A.U. after   10 cycles
 SCF Done:  E(RB3LYP) =  -615.201231931     A.U. after   10 cycles
 SCF Done:  E(RB3LYP) =  -615.201249891     A.U. after   10 cycles
 SCF Done:  E(RB3LYP) =  -615.201258028     A.U. after    9 cycles
 SCF Done:  E(RB3LYP) =  -615.201263131     A.U. after    9 cycles
 SCF Done:  E(RB3LYP) =  -615.201263793     A.U. after    8 cycles
 SCF Done:  E(RB3LYP) =  -615.201263916     A.U. after    7 cycles
 Optimization completed.
    -- Stationary point found.
 Normal termination of Gaussian 16 at Wed Dec  9 22:50:37 2020.

 --------------------------------------------------------------------
 #N Geom=AllCheck Guess=TCheck SCRF=Check GenChk RB3LYP/6-31G(d) Freq
 --------------------------------------------------------------------

 Structure from the checkpoint file:  "JID_3302.chk"
 -------------------------------
 CID_152793520_JID_3302_neutraal
 -------------------------------
 Charge =  0 Multiplicity = 1

 SCF Done:  E(RB3LYP) =  -615.201263916     A.U. after    1 cycles

  Exact polarizability: 164.800   0.562 109.918   4.500   0.038  72.117
 Approx polarizability: 221.865   4.339 189.545  14.898  -0.936 102.908

                      1                      2                      3
                      A                      A                      A
 Frequencies --     41.5597                82.0593                93.0889
 Red. masses --      3.7277                 3.9565                 3.4560
 Frc consts  --      0.0038                 0.0157                 0.0176
 IR Inten    --      0.5855                 0.2479                 2.4449

                      4                      5                      6
                      A                      A                      A
 Frequencies --    131.1967               186.5252               216.3163
 Red. masses --      3.6032                 1.7301                 1.7329
 Frc consts  --      0.0365                 0.0355                 0.0478
 IR Inten    --      0.5270                 0.3555                 0.3849

                      7                      8                      9
                      A                      A                      A
 Frequencies --    230.2281               242.6159               262.5875
 Red. masses --      3.9960                 3.0202                 1.3064
 Frc consts  --      0.1248                 0.1047                 0.0531
 IR Inten    --      0.3594                 2.6523                 1.2046

                     10                     11                     12
                      A                      A                      A
 Frequencies --    285.8555               318.2936               360.3090
 Red. masses --      2.7461                 4.3731                 3.3039
 Frc consts  --      0.1322                 0.2610                 0.2527
 IR Inten    --      1.7036                10.7746                 3.8482

                     13                     14                     15
                      A                      A                      A
 Frequencies --    421.7728               443.4613               460.1585
 Red. masses --      3.0784                 2.6671                 1.5637
 Frc consts  --      0.3226                 0.3090                 0.1951
 IR Inten    --     13.1976                19.7010                96.1276

                     16                     17                     18
                      A                      A                      A
 Frequencies --    462.2898               501.4102               520.4807
 Red. masses --      3.2999                 3.2524                 3.4557
 Frc consts  --      0.4155                 0.4818                 0.5516
 IR Inten    --      4.7594                 7.1612                23.1048

                     19                     20                     21
                      A                      A                      A
 Frequencies --    576.4642               628.8295               652.7811
 Red. masses --      5.8956                 4.1561                 3.7579
 Frc consts  --      1.1543                 0.9683                 0.9435
 IR Inten    --      3.9589                21.3937                 6.0697

                     22                     23                     24
                      A                      A                      A
 Frequencies --    725.0323               733.0573               761.5141
 Red. masses --      3.9220                 3.5245                 4.2676
 Frc consts  --      1.2147                 1.1159                 1.4581
 IR Inten    --      5.6002                 0.2141                 4.0667

                     25                     26                     27
                      A                      A                      A
 Frequencies --    795.1903               803.3742               827.6760
 Red. masses --      1.3695                 1.1961                 1.1513
 Frc consts  --      0.5102                 0.4548                 0.4647
 IR Inten    --     18.4907               124.0906                 0.1550

                     28                     29                     30
                      A                      A                      A
 Frequencies --    864.0896               893.4019               912.5452
 Red. masses --      1.4329                 2.5614                 2.5048
 Frc consts  --      0.6303                 1.2045                 1.2289
 IR Inten    --     21.1319                 2.9938                14.5709

                     31                     32                     33
                      A                      A                      A
 Frequencies --    925.3052               986.1612              1008.2967
 Red. masses --      1.2849                 2.6602                 2.5209
 Frc consts  --      0.6482                 1.5243                 1.5100
 IR Inten    --      2.7534                28.6029                35.0985

                     34                     35                     36
                      A                      A                      A
 Frequencies --   1072.7418              1081.2289              1108.0945
 Red. masses --      3.0585                 1.6105                 2.0041
 Frc consts  --      2.0737                 1.1093                 1.4499
 IR Inten    --     50.1941                26.2991                22.5926

                     37                     38                     39
                      A                      A                      A
 Frequencies --   1129.0029              1168.7524              1195.2145
 Red. masses --      1.8858                 1.6129                 1.8776
 Frc consts  --      1.4163                 1.2981                 1.5803
 IR Inten    --      2.7582               108.9030               130.3168

                     40                     41                     42
                      A                      A                      A
 Frequencies --   1212.4927              1230.2706              1277.6498
 Red. masses --      1.7114                 2.4007                 1.5004
 Frc consts  --      1.4824                 2.1408                 1.4430
 IR Inten    --     81.8657                83.2361                27.4186

                     43                     44                     45
                      A                      A                      A
 Frequencies --   1292.7550              1320.5783              1339.0065
 Red. masses --      1.3025                 1.6945                 2.6542
 Frc consts  --      1.2825                 1.7411                 2.8039
 IR Inten    --     84.7150                29.3901                38.3961

                     46                     47                     48
                      A                      A                      A
 Frequencies --   1351.0113              1391.7308              1397.5279
 Red. masses --      1.7953                 1.5003                 1.5364
 Frc consts  --      1.9306                 1.7121                 1.7680
 IR Inten    --     61.9268                43.4112                 2.7146

                     49                     50                     51
                      A                      A                      A
 Frequencies --   1422.0532              1424.4189              1440.2963
 Red. masses --      1.3139                 1.7523                 1.3536
 Frc consts  --      1.5655                 2.0948                 1.6544
 IR Inten    --     18.3306                94.9768                31.0642

                     52                     53                     54
                      A                      A                      A
 Frequencies --   1443.2208              1513.6330              1516.3776
 Red. masses --      1.3061                 1.5142                 1.0529
 Frc consts  --      1.6029                 2.0439                 1.4264
 IR Inten    --     24.3780                14.6834                10.0961

                     55                     56                     57
                      A                      A                      A
 Frequencies --   1521.7218              1530.5236              1532.4473
 Red. masses --      1.2908                 1.2484                 1.0521
 Frc consts  --      1.7611                 1.7230                 1.4557
 IR Inten    --      1.2142                 2.9674                 2.6212

                     58                     59                     60
                      A                      A                      A
 Frequencies --   1546.8050              1561.5585              1635.3704
 Red. masses --      1.1311                 2.3642                 5.5807
 Frc consts  --      1.5945                 3.3967                 8.7937
 IR Inten    --     10.0363               174.9007                88.9133

                     61                     62                     63
                      A                      A                      A
 Frequencies --   1692.6885              3025.3636              3048.7201
 Red. masses --      5.6781                 1.0859                 1.0671
 Frc consts  --      9.5853                 5.8558                 5.8436
 IR Inten    --    200.1213                40.9574                42.4103

                     64                     65                     66
                      A                      A                      A
 Frequencies --   3060.9924              3064.4409              3111.5604
 Red. masses --      1.0364                 1.0344                 1.0986
 Frc consts  --      5.7216                 5.7234                 6.2671
 IR Inten    --     18.0064                18.4573                17.9019

                     67                     68                     69
                      A                      A                      A
 Frequencies --   3130.1008              3139.9738              3144.9967
 Red. masses --      1.1010                 1.1038                 1.1029
 Frc consts  --      6.3555                 6.4122                 6.4274
 IR Inten    --     31.5492                26.6538                14.4023

                     70                     71                     72
                      A                      A                      A
 Frequencies --   3146.0556              3171.3145              3231.2385
 Red. masses --      1.1033                 1.0891                 1.0912
 Frc consts  --      6.4341                 6.4536                 6.7129
 IR Inten    --     40.9558                16.8581                 1.0876

                     73                     74                     75
                      A                      A                      A
 Frequencies --   3237.2338              3521.1098              3722.0611
 Red. masses --      1.0909                 1.0659                 1.0659
 Frc consts  --      6.7357                 7.7862                 8.7004
 IR Inten    --     12.1176               305.8217                17.2431

 - Thermochemistry -
 -------------------
 Temperature   298.150 Kelvin.  Pressure   1.00000 Atm.
 Atom     1 has atomic number  6 and mass  12.00000

 Molecular mass:   182.09429 amu.
 Principal axes and moments of inertia in atomic units:
                           1         2         3
     Eigenvalues --   921.234234568.119024966.56243
           X            0.99993   0.00178  -0.01210
           Y           -0.00168   0.99997   0.00789
           Z            0.01212  -0.00787   0.99990
 This molecule is an asymmetric top.
 Rotational symmetry number  1.
 Warning -- assumption of classical behavior for rotation
           may cause significant error
 Rotational temperatures (Kelvin)      0.09402     0.01896     0.01744
 Rotational constants (GHZ):           1.95905     0.39507     0.36338
 Zero-point vibrational energy     600873.8 (Joules/Mol)
                                  143.61230 (Kcal/Mol)
 Warning -- explicit consideration of  19 degrees of freedom as
           vibrations may cause significant error
 Vibrational temperatures:     59.80   118.07   133.93   188.76   268.37
          (Kelvin)            311.23   331.25   349.07   377.80   411.28
                              457.95   518.40   606.84   638.04   662.07
                              665.13   721.42   748.86   829.40   904.75
                              939.21  1043.16  1054.71  1095.65  1144.10
                             1155.88  1190.84  1243.23  1285.41  1312.95
                             1331.31  1418.87  1450.71  1543.44  1555.65
                             1594.30  1624.38  1681.57  1719.65  1744.51
                             1770.09  1838.25  1859.99  1900.02  1926.53
                             1943.80  2002.39  2010.73  2046.02  2049.42
                             2072.27  2076.47  2177.78  2181.73  2189.42
                             2202.08  2204.85  2225.51  2246.73  2352.93
                             2435.40  4352.82  4386.43  4404.09  4409.05
                             4476.84  4503.52  4517.72  4524.95  4526.47
                             4562.81  4649.03  4657.66  5066.09  5355.22

 Zero-point correction=                           0.228861 (Hartree/Particle)
 Thermal correction to Energy=                    0.241586
 Thermal correction to Enthalpy=                  0.242530
 Thermal correction to Gibbs Free Energy=         0.189988
 Sum of electronic and zero-point Energies=           -614.972403
 Sum of electronic and thermal Energies=              -614.959678
 Sum of electronic and thermal Enthalpies=            -614.958734
 Sum of electronic and thermal Free Energies=         -615.011276

                     E (Thermal)             CV                S
                      KCal/Mol        Cal/Mol-Kelvin    Cal/Mol-Kelvin
 Total                  151.597             49.302            110.585
 Electronic               0.000              0.000              0.000
 Translational            0.889              2.981             41.505
 Rotational               0.889              2.981             31.414
 Vibrational            149.820             43.340             37.666
 Vibration     1          0.594              1.981              5.183
 Vibration     2          0.600              1.961              3.841
 Vibration     3          0.602              1.954              3.594
 Vibration     4          0.612              1.922              2.928
 Vibration     5          0.632              1.858              2.262
 Vibration     6          0.645              1.816              1.990
 Vibration     7          0.652              1.795              1.877
 Vibration     8          0.659              1.775              1.784
 Vibration     9          0.670              1.741              1.645
 Vibration    10          0.684              1.700              1.498
 Vibration    11          0.705              1.639              1.319
 Vibration    12          0.735              1.554              1.121
 Vibration    13          0.784              1.423              0.886
 Vibration    14          0.803              1.375              0.816
 Vibration    15          0.818              1.338              0.766
 Vibration    16          0.820              1.334              0.759
 Vibration    17          0.857              1.247              0.655
 Vibration    18          0.875              1.205              0.609
 Vibration    19          0.933              1.082              0.492

 Optimization completed.
    -- Stationary point found.
 Normal termination of Gaussian 16 at Wed Dec  9 22:57:01 2020.

 ----------------------------------------------------------------------
 # B3LYP/6-311++G(d,p) empiricaldispersion=gd3bj scf=xqc pop=npa geom=c
 heck
 ----------------------------------------------------------------------

 ---------------------------------------
 CID_152793520_JID_3302_Energie_neutraal
 ---------------------------------------
 Structure from the checkpoint file:  "JID_3302.chk"
 Charge =  0 Multiplicity = 1

 SCF Done:  E(RB3LYP) =  -615.388933169     A.U. after   15 cycles
 Normal termination of Gaussian 16 at Wed Dec  9 22:59:32 2020.

 ----------------------------------------------------------------------
 # B3LYP/6-311++G(d,p) empiricaldispersion=gd3bj scf=xqc pop=npa geom=c
 heck
 ----------------------------------------------------------------------

 -------------------------------------
 CID_152793520_JID_3302_Energie_kation
 -------------------------------------
 Structure from the checkpoint file:  "JID_3302.chk"
 Charge =  1 Multiplicity = 2

 SCF Done:  E(UB3LYP) =  -615.101386895     A.U. after   23 cycles
 Normal termination of Gaussian 16 at Wed Dec  9 23:04:29 2020.
 Gaussian 16:  ES64L-G16RevA.03 25-Dec-2016

 ----------------------------------------------------------------------
 # B3LYP/6-311++G(d,p) empiricaldispersion=gd3bj scf=xqc pop=npa geom=c
 heck
 ----------------------------------------------------------------------

 ------------------------------------
 CID_152793520_JID_3302_Energie_anion
 ------------------------------------
 Structure from the checkpoint file:  "JID_3302.chk"
 Charge = -1 Multiplicity = 2

                         Standard orientation:
 ---------------------------------------------------------------------
 Center     Atomic      Atomic             Coordinates (Angstroms)
 Number     Number       Type             X           Y           Z
 ---------------------------------------------------------------------
      1          6           0       -4.233922   -0.550899    0.912573
      2          6           0       -3.817645   -0.096890   -0.481668
      3          8           0       -2.714697    0.809360   -0.451527
      4          6           0       -1.453122    0.324735   -0.261323
      5          6           0       -0.455719    1.299597   -0.153011
      6          6           0        0.874495    0.929611    0.019707
      7          6           0        1.235620   -0.436017    0.088217
      8          6           0        0.220014   -1.385219   -0.001004
      9          6           0       -1.118930   -1.033983   -0.175751
     10          6           0        2.688532   -0.843452    0.173349
     11          6           0        3.429692   -0.686635   -1.151824
     12          8           0        3.408918   -0.020158    1.129067
     13          8           0        1.803643    1.920647    0.116865
     14          1           0       -3.433813   -1.108106    1.408280
     15          1           0       -5.117677   -1.196223    0.851550
     16          1           0       -4.479856    0.316982    1.532302
     17          1           0       -3.591092   -0.948961   -1.135214
     18          1           0       -4.622808    0.473376   -0.953010
     19          1           0       -0.721690    2.349268   -0.201128
     20          1           0        0.482757   -2.439499    0.058787
     21          1           0       -1.871188   -1.809510   -0.239197
     22          1           0        2.750565   -1.892175    0.496198
     23          1           0        3.355760    0.344541   -1.510403
     24          1           0        4.486508   -0.944587   -1.029920
     25          1           0        2.984978   -1.344163   -1.904398
     26          1           0        2.957013   -0.117534    1.983959
     27          1           0        2.623537    1.512709    0.471369
 ---------------------------------------------------------------------

 SCF Done:  E(UB3LYP) =  -615.376557932     A.U. after   33 cycles
 SCF Done:  E(UB3LYP) =  -615.376557932     a.u. after    1 cycles

 The electronic state is 2-A.
 Alpha  occ. eigenvalues --  -19.05429 -19.04354 -19.04228 -10.13858 -10.13690
 Alpha  occ. eigenvalues --  -10.13657 -10.13135 -10.07916 -10.07405 -10.06980
 Alpha  occ. eigenvalues --  -10.06897 -10.06785 -10.06578  -0.97073  -0.96308
 Alpha  occ. eigenvalues --   -0.93460  -0.75549  -0.69247  -0.66821  -0.64452
 Alpha  occ. eigenvalues --   -0.62441  -0.56101  -0.52263  -0.51282  -0.49872
 Alpha  occ. eigenvalues --   -0.45268  -0.42905  -0.41123  -0.39636  -0.37745
 Alpha  occ. eigenvalues --   -0.35749  -0.34317  -0.33651  -0.33332  -0.32440
 Alpha  occ. eigenvalues --   -0.31446  -0.30533  -0.29659  -0.29165  -0.28025
 Alpha  occ. eigenvalues --   -0.27196  -0.26559  -0.25494  -0.24641  -0.22952
 Alpha  occ. eigenvalues --   -0.21193  -0.19539  -0.13679  -0.11950   0.04297
 Alpha virt. eigenvalues --    0.05926   0.07500   0.07936   0.08456   0.08625
 Alpha virt. eigenvalues --    0.08995   0.09299   0.10470   0.11057   0.11257
 Alpha virt. eigenvalues --    0.11705   0.12344   0.12704   0.13500   0.14330

  Beta  occ. eigenvalues --  -19.05425 -19.04348 -19.04187 -10.13859 -10.13683
  Beta  occ. eigenvalues --  -10.13633 -10.13114 -10.07900 -10.07404 -10.06962
  Beta  occ. eigenvalues --  -10.06862 -10.06771 -10.06575  -0.97062  -0.96286
  Beta  occ. eigenvalues --   -0.93384  -0.75529  -0.69209  -0.66775  -0.64427
  Beta  occ. eigenvalues --   -0.62408  -0.56052  -0.52208  -0.51237  -0.49837
  Beta  occ. eigenvalues --   -0.45205  -0.42846  -0.41092  -0.39617  -0.37697
  Beta  occ. eigenvalues --   -0.35704  -0.34289  -0.33617  -0.33291  -0.32414
  Beta  occ. eigenvalues --   -0.31423  -0.30507  -0.29622  -0.29127  -0.27997
  Beta  occ. eigenvalues --   -0.27169  -0.26525  -0.25462  -0.24602  -0.22927
  Beta  occ. eigenvalues --   -0.21168  -0.19498  -0.13666  -0.11935
  Beta virt. eigenvalues --    0.06715   0.07130   0.08222   0.08372   0.08706
  Beta virt. eigenvalues --    0.08841   0.09599   0.09738   0.10558   0.11360
  Beta virt. eigenvalues --    0.11676   0.12018   0.12513   0.12971   0.13669

 Mulliken charges and spin densities:
               1          2
     1  C    0.839032  -1.215192
     2  C   -0.274870   0.048105
     3  O   -0.114256   0.015840
     4  C    0.020204  -0.291568
     5  C   -1.053637   0.499190
     6  C   -0.782603   0.683136
     7  C   -0.359260   1.374350
     8  C    0.321093  -1.065045
     9  C    1.607917  -1.503714
    10  C    1.281014  -1.485047
    11  C    0.434149  -1.037517
    12  O   -0.207026  -0.015472
    13  O   -0.265594   0.006182
    14  H   -0.173837   0.312282
    15  H   -0.440996   0.571635
    16  H    0.041984   0.102928
    17  H   -0.035377   0.167060
    18  H   -0.362360   0.543974
    19  H    0.109233   0.074451
    20  H   -0.746352   0.911191
    21  H   -0.248053   0.448065
    22  H   -0.749215   0.982772
    23  H    0.089629   0.070122
    24  H   -0.045063   0.184941
    25  H   -0.001491   0.158048
    26  H   -0.180909   0.459585
    27  H    0.296645  -0.000302
 Sum of Mulliken charges =  -1.00000   1.00000

 Dipole moment (field-independent basis, Debye):
    X=              1.2174    Y=              4.4757    Z=             -2.2506  Tot=              5.1555
 Quadrupole moment (field-independent basis, Debye-Ang):
   XX=           -161.8994   YY=           -122.2076   ZZ=           -107.5242
   XY=             -0.5975   XZ=             -5.8736   YZ=              3.6660

 Summary of Natural Population Analysis:

                                       Natural Population
                Natural  -----------------------------------------------
    Atom  No    Charge         Core      Valence    Rydberg      Total
 -----------------------------------------------------------------------
      C    1   -0.30064      0.99966     2.29617    0.00481     3.30064
      C    2   -0.01165      0.99958     1.99982    0.01224     3.01165
      O    3   -0.27763      0.99986     3.26841    0.00936     4.27763
      C    4    0.16941      0.99939     1.81682    0.01438     2.83059
      C    5   -0.14683      0.99949     2.13834    0.00900     3.14683
      C    6    0.17144      0.99936     1.81420    0.01500     2.82856
      C    7   -0.08717      0.99944     2.07550    0.01223     3.08717
      C    8   -0.07475      0.99953     2.06478    0.01044     3.07475
      C    9   -0.15797      0.99952     2.14920    0.00926     3.15797
      C   10    0.05531      0.99954     1.92972    0.01543     2.94469
      C   11   -0.29036      0.99964     2.28404    0.00669     3.29036
      O   12   -0.38270      0.99990     3.37550    0.00730     4.38270
      O   13   -0.35355      0.99987     3.34732    0.00635     4.35355
      H   14    0.10383      0.00000     0.39473    0.00144     0.39617
      H   15    0.10369      0.00000     0.39442    0.00189     0.39631
      H   16    0.09971      0.00000     0.39931    0.00098     0.40029
      H   17    0.08461      0.00000     0.41368    0.00171     0.41539
      H   18    0.09058      0.00000     0.40810    0.00132     0.40942
      H   19    0.10854      0.00000     0.39011    0.00135     0.39146
      H   20    0.10387      0.00000     0.39393    0.00220     0.39613
      H   21    0.10653      0.00000     0.39138    0.00209     0.39347
      H   22    0.09135      0.00000     0.40350    0.00515     0.40865
      H   23    0.10039      0.00000     0.39852    0.00109     0.39961
      H   24    0.10237      0.00000     0.39668    0.00094     0.39763
      H   25    0.10448      0.00000     0.39467    0.00085     0.39552
      H   26    0.23970      0.00000     0.25374    0.00657     0.26030
      H   27    0.24743      0.00000     0.24907    0.00350     0.25257
 =======================================================================
   * Total *   -0.00000     12.99477    35.84166    0.16357    49.00000

 Normal termination of Gaussian 16 at Wed Dec  9 23:11:29 2020.
