 Gaussian 16, Revision A.03,

 -----------------------------------------------------------
 # opt freq B3LYP/6-31G(d) empiricaldispersion=gd3bj scf=xqc
 -----------------------------------------------------------

 -------------------------------
 CID_130659864_JID_3586_neutraal
 -------------------------------
 Symbolic Z-matrix:
 Charge =  0 Multiplicity = 1

 SCF Done:  E(RB3LYP) =  -606.305423958     A.U. after   15 cycles
 SCF Done:  E(RB3LYP) =  -606.311560790     A.U. after   13 cycles
 SCF Done:  E(RB3LYP) =  -606.311437151     A.U. after   12 cycles
 SCF Done:  E(RB3LYP) =  -606.312629828     A.U. after   11 cycles
 SCF Done:  E(RB3LYP) =  -606.312536694     A.U. after   12 cycles
 SCF Done:  E(RB3LYP) =  -606.312825435     A.U. after   11 cycles
 SCF Done:  E(RB3LYP) =  -606.312968250     A.U. after   11 cycles
 SCF Done:  E(RB3LYP) =  -606.313025082     A.U. after   12 cycles
 SCF Done:  E(RB3LYP) =  -606.313100873     A.U. after   14 cycles
 SCF Done:  E(RB3LYP) =  -606.313199384     A.U. after   12 cycles
 SCF Done:  E(RB3LYP) =  -606.313341813     A.U. after    8 cycles
 SCF Done:  E(RB3LYP) =  -606.313341968     A.U. after    8 cycles
 SCF Done:  E(RB3LYP) =  -606.313342033     A.U. after    7 cycles
 SCF Done:  E(RB3LYP) =  -606.313342057     A.U. after    7 cycles
 Optimization completed.
    -- Stationary point found.
 Normal termination of Gaussian 16 at Wed Dec  9 23:47:43 2020.

 --------------------------------------------------------------------
 #N Geom=AllCheck Guess=TCheck SCRF=Check GenChk RB3LYP/6-31G(d) Freq
 --------------------------------------------------------------------

 Structure from the checkpoint file:  "JID_3586.chk"
 -------------------------------
 CID_130659864_JID_3586_neutraal
 -------------------------------
 Charge =  0 Multiplicity = 1

 SCF Done:  E(RB3LYP) =  -606.313342057     A.U. after    1 cycles

  Exact polarizability: 132.511   2.860 109.427  -5.895   5.531  77.542
 Approx polarizability: 179.193  -0.843 170.519 -14.373  15.064 120.578

                      1                      2                      3
                      A                      A                      A
 Frequencies --     21.7861                61.4698                80.6294
 Red. masses --      4.5989                 4.6012                 2.1835
 Frc consts  --      0.0013                 0.0102                 0.0084
 IR Inten    --      1.3358                 1.8827                 0.2992

                      4                      5                      6
                      A                      A                      A
 Frequencies --     91.8288               119.0284               152.4015
 Red. masses --      1.2820                 3.6858                 3.0592
 Frc consts  --      0.0064                 0.0308                 0.0419
 IR Inten    --      0.0200                 3.4701                 2.1305

                      7                      8                      9
                      A                      A                      A
 Frequencies --    161.6664               207.4897               275.7840
 Red. masses --      4.3311                 3.1781                 4.2741
 Frc consts  --      0.0667                 0.0806                 0.1915
 IR Inten    --      3.7009                 1.5154                 1.5362

                     10                     11                     12
                      A                      A                      A
 Frequencies --    321.7964               372.1734               385.6127
 Red. masses --      3.7738                 3.7901                 4.1412
 Frc consts  --      0.2302                 0.3093                 0.3628
 IR Inten    --      4.2784                 3.7580                 2.8788

                     13                     14                     15
                      A                      A                      A
 Frequencies --    474.7709               527.0102               579.8022
 Red. masses --      3.7960                 4.8449                 1.4314
 Frc consts  --      0.5041                 0.7928                 0.2835
 IR Inten    --      0.6452                 2.1458                34.6649

                     16                     17                     18
                      A                      A                      A
 Frequencies --    604.2946               648.9891               705.2839
 Red. masses --      2.6578                 4.2349                 4.2194
 Frc consts  --      0.5718                 1.0509                 1.2366
 IR Inten    --     19.2156                 5.1019                24.6385

                     19                     20                     21
                      A                      A                      A
 Frequencies --    729.1122               740.8502               794.0287
 Red. masses --      2.7562                 2.5888                 2.1848
 Frc consts  --      0.8633                 0.8372                 0.8116
 IR Inten    --     20.4364                33.0748                11.8202

                     22                     23                     24
                      A                      A                      A
 Frequencies --    800.9466               815.9697               833.3173
 Red. masses --      1.3430                 7.3964                 1.3840
 Frc consts  --      0.5076                 2.9015                 0.5662
 IR Inten    --      3.0326                 6.0110                10.4670

                     25                     26                     27
                      A                      A                      A
 Frequencies --    907.3352               936.3959               969.2724
 Red. masses --      2.2027                 2.6491                 1.4008
 Frc consts  --      1.0684                 1.3686                 0.7754
 IR Inten    --      3.6304                 0.2130                 4.8773

                     28                     29                     30
                      A                      A                      A
 Frequencies --    979.0892              1020.6579              1056.3098
 Red. masses --      3.1295                 5.6729                 4.4561
 Frc consts  --      1.7675                 3.4819                 2.9294
 IR Inten    --      6.3954                 9.1300                19.6262

                     31                     32                     33
                      A                      A                      A
 Frequencies --   1062.9816              1082.9689              1137.7493
 Red. masses --      2.0765                 1.7938                 2.1037
 Frc consts  --      1.3824                 1.2395                 1.6044
 IR Inten    --      5.8147                 7.8820                23.4172

                     34                     35                     36
                      A                      A                      A
 Frequencies --   1163.6829              1177.8641              1216.8861
 Red. masses --      1.3144                 2.8949                 1.3274
 Frc consts  --      1.0487                 2.3663                 1.1581
 IR Inten    --      0.0029                21.0814                 0.3698

                     37                     38                     39
                      A                      A                      A
 Frequencies --   1226.5886              1261.0215              1270.5359
 Red. masses --      1.6601                 1.2954                 1.3701
 Frc consts  --      1.4716                 1.2136                 1.3031
 IR Inten    --     15.8916                 2.5371                 0.7918

                     40                     41                     42
                      A                      A                      A
 Frequencies --   1275.2863              1290.0237              1305.7473
 Red. masses --      1.2130                 1.8271                 1.4036
 Frc consts  --      1.1624                 1.7914                 1.4099
 IR Inten    --     10.3657                67.2034                 3.8471

                     43                     44                     45
                      A                      A                      A
 Frequencies --   1314.1641              1337.1661              1363.7918
 Red. masses --      2.7411                 3.6700                 6.5847
 Frc consts  --      2.7891                 3.8662                 7.2157
 IR Inten    --     60.3882                37.3300                92.2622

                     46                     47                     48
                      A                      A                      A
 Frequencies --   1435.4244              1457.8939              1474.0567
 Red. masses --      1.6153                 3.4343                 1.4255
 Frc consts  --      1.9609                 4.3007                 1.8249
 IR Inten    --     23.7690                 1.0501                54.4826

                     49                     50                     51
                      A                      A                      A
 Frequencies --   1495.6179              1503.0578              1504.8691
 Red. masses --      1.6627                 1.0413                 1.0913
 Frc consts  --      2.1913                 1.3860                 1.4560
 IR Inten    --      3.6975                 8.3768                 3.4134

                     52                     53                     54
                      A                      A                      A
 Frequencies --   1512.3837              1517.7201              1541.4477
 Red. masses --      1.1013                 2.4501                 1.2805
 Frc consts  --      1.4842                 3.3252                 1.7927
 IR Inten    --      0.5100               155.0699                 4.6797

                     55                     56                     57
                      A                      A                      A
 Frequencies --   1545.9289              1552.1056              1768.4292
 Red. masses --      1.3299                 2.9184                 7.7899
 Frc consts  --      1.8727                 4.1422                14.3536
 IR Inten    --     13.7066                 8.0418               343.3203

                     58                     59                     60
                      A                      A                      A
 Frequencies --   3071.3193              3074.9156              3081.9349
 Red. masses --      1.0857                 1.0611                 1.0314
 Frc consts  --      6.0343                 5.9110                 5.7718
 IR Inten    --     19.2923                31.7671                34.8858

                     61                     62                     63
                      A                      A                      A
 Frequencies --   3084.6817              3091.4121              3125.4251
 Red. masses --      1.0659                 1.0679                 1.1070
 Frc consts  --      5.9758                 6.0128                 6.3709
 IR Inten    --     85.7350                37.7552                18.1504

                     64                     65                     66
                      A                      A                      A
 Frequencies --   3157.8398              3165.9534              3172.1234
 Red. masses --      1.1068                 1.0995                 1.1059
 Frc consts  --      6.5025                 6.4932                 6.5564
 IR Inten    --      8.0062                27.4562                 6.9771

                     67                     68                     69
                      A                      A                      A
 Frequencies --   3178.4969              3272.1316              3588.0046
 Red. masses --      1.1001                 1.0982                 1.0756
 Frc consts  --      6.5484                 6.9279                 8.1582
 IR Inten    --      7.0895                 1.9452                25.0393

 - Thermochemistry -
 -------------------
 Temperature   298.150 Kelvin.  Pressure   1.00000 Atm.
 Atom     1 has atomic number  6 and mass  12.00000

 Molecular mass:   180.10111 amu.
 Principal axes and moments of inertia in atomic units:
                           1         2         3
     Eigenvalues --  1421.209203033.099003953.49809
           X            0.99999   0.00416  -0.00304
           Y           -0.00417   0.99999  -0.00276
           Z            0.00303   0.00278   0.99999
 This molecule is an asymmetric top.
 Rotational symmetry number  1.
 Warning -- assumption of classical behavior for rotation
           may cause significant error
 Rotational temperatures (Kelvin)      0.06094     0.02856     0.02191
 Rotational constants (GHZ):           1.26986     0.59502     0.45649
 Zero-point vibrational energy     545704.9 (Joules/Mol)
                                  130.42660 (Kcal/Mol)
 Warning -- explicit consideration of  16 degrees of freedom as
           vibrations may cause significant error
 Vibrational temperatures:     31.35    88.44   116.01   132.12   171.26
          (Kelvin)            219.27   232.60   298.53   396.79   462.99
                              535.47   554.81   683.09   758.25   834.21
                              869.45   933.75  1014.75  1049.03  1065.92
                             1142.43  1152.38  1174.00  1198.96  1305.45
                             1347.26  1394.57  1408.69  1468.50  1519.79
                             1529.39  1558.15  1636.97  1674.28  1694.68
                             1750.83  1764.79  1814.33  1828.02  1834.85
                             1856.06  1878.68  1890.79  1923.88  1962.19
                             2065.26  2097.58  2120.84  2151.86  2162.56
                             2165.17  2175.98  2183.66  2217.80  2224.25
                             2233.13  2544.38  4418.94  4424.12  4434.22
                             4438.17  4447.85  4496.79  4543.43  4555.10
                             4563.98  4573.15  4707.87  5162.34

 Zero-point correction=                           0.207848 (Hartree/Particle)
 Thermal correction to Energy=                    0.219984
 Thermal correction to Enthalpy=                  0.220928
 Thermal correction to Gibbs Free Energy=         0.167741
 Sum of electronic and zero-point Energies=           -606.105494
 Sum of electronic and thermal Energies=              -606.093358
 Sum of electronic and thermal Enthalpies=            -606.092414
 Sum of electronic and thermal Free Energies=         -606.145601

                     E (Thermal)             CV                S
                      KCal/Mol        Cal/Mol-Kelvin    Cal/Mol-Kelvin
 Total                  138.042             44.322            111.941
 Electronic               0.000              0.000              0.000
 Translational            0.889              2.981             41.472
 Rotational               0.889              2.981             31.211
 Vibrational            136.265             38.360             39.259
 Vibration     1          0.593              1.985              6.464
 Vibration     2          0.597              1.973              4.409
 Vibration     3          0.600              1.962              3.875
 Vibration     4          0.602              1.955              3.621
 Vibration     5          0.609              1.933              3.116
 Vibration     6          0.619              1.900              2.642
 Vibration     7          0.622              1.889              2.530
 Vibration     8          0.641              1.829              2.066
 Vibration     9          0.677              1.718              1.560
 Vibration    10          0.707              1.632              1.301
 Vibration    11          0.744              1.529              1.071
 Vibration    12          0.754              1.501              1.017
 Vibration    13          0.831              1.306              0.724
 Vibration    14          0.882              1.190              0.594
 Vibration    15          0.936              1.075              0.486
 Vibration    16          0.963              1.023              0.442

                           ! Non-Optimized Parameters !
 Normal termination of Gaussian 16 at Wed Dec  9 23:53:54 2020.

 ----------------------------------------------------------------------
 # B3LYP/6-311++G(d,p) empiricaldispersion=gd3bj scf=xqc pop=npa geom=c
 heck
 ----------------------------------------------------------------------

 ---------------------------------------
 CID_130659864_JID_3586_Energie_neutraal
 ---------------------------------------
 Structure from the checkpoint file:  "JID_3586.chk"
 Charge =  0 Multiplicity = 1

 SCF Done:  E(RB3LYP) =  -606.482359871     A.U. after   15 cycles
 Normal termination of Gaussian 16 at Wed Dec  9 23:56:37 2020.

 ----------------------------------------------------------------------
 # B3LYP/6-311++G(d,p) empiricaldispersion=gd3bj scf=xqc pop=npa geom=c
 heck
 ----------------------------------------------------------------------

 -------------------------------------
 CID_130659864_JID_3586_Energie_kation
 -------------------------------------
 Structure from the checkpoint file:  "JID_3586.chk"
 Charge =  1 Multiplicity = 2

 SCF Done:  E(UB3LYP) =  -606.158782864     A.U. after   33 cycles
 SCF Done:  E(UB3LYP) =  -606.161212338     a.u. after   12 cycles
 Normal termination of Gaussian 16 at Thu Dec 10 01:02:06 2020.
 Gaussian 16:  ES64L-G16RevA.03 25-Dec-2016

 ----------------------------------------------------------------------
 # B3LYP/6-311++G(d,p) empiricaldispersion=gd3bj scf=xqc pop=npa geom=c
 heck
 ----------------------------------------------------------------------

 ------------------------------------
 CID_130659864_JID_3586_Energie_anion
 ------------------------------------
 Structure from the checkpoint file:  "JID_3586.chk"
 Charge = -1 Multiplicity = 2

                         Standard orientation:
 ---------------------------------------------------------------------
 Center     Atomic      Atomic             Coordinates (Angstroms)
 Number     Number       Type             X           Y           Z
 ---------------------------------------------------------------------
      1          6           0       -3.845093   -0.844311    0.503664
      2          7           0       -2.508817   -0.525086    0.038251
      3          6           0       -1.694472   -1.220192   -0.788544
      4          7           0       -0.554414   -0.572907   -0.952967
      5          6           0       -0.724936    0.549462   -0.189191
      6          7           0       -1.903420    0.619556    0.426237
      7          6           0        0.236258    1.694013   -0.084771
      8          8           0       -0.193861    2.842162   -0.073403
      9          7           0        1.581349    1.444548   -0.024985
     10          6           0        2.364750    0.243880    0.227892
     11          6           0        1.892425   -0.862135    1.208161
     12          6           0        2.586172   -1.897677    0.280144
     13          6           0        2.591675   -0.841108   -0.858632
     14          1           0       -3.849318   -0.918490    1.593781
     15          1           0       -4.540492   -0.061239    0.192723
     16          1           0       -4.147269   -1.799199    0.069150
     17          1           0       -1.969969   -2.164996   -1.236857
     18          1           0        2.086689    2.321508    0.010643
     19          1           0        3.338100    0.612425    0.566838
     20          1           0        2.236919   -0.778384    2.243623
     21          1           0        0.809419   -0.985336    1.203670
     22          1           0        2.039874   -2.824572    0.087237
     23          1           0        3.594429   -2.149667    0.624179
     24          1           0        1.713733   -0.937306   -1.496591
     25          1           0        3.495215   -0.746401   -1.469267
 ---------------------------------------------------------------------

 SCF Done:  E(UB3LYP) =  -606.474084763     A.U. after   33 cycles
 SCF Done:  E(UB3LYP) =  -606.474084763     a.u. after    1 cycles

 The electronic state is 2-A.
 Alpha  occ. eigenvalues --  -18.99065 -14.31314 -14.24726 -14.24252 -14.21787
 Alpha  occ. eigenvalues --  -10.18222 -10.14726 -10.13428 -10.12157 -10.11976
 Alpha  occ. eigenvalues --  -10.07555 -10.07507 -10.06590  -0.99394  -0.94248
 Alpha  occ. eigenvalues --   -0.83141  -0.81689  -0.75366  -0.74179  -0.64170
 Alpha  occ. eigenvalues --   -0.58771  -0.56851  -0.56160  -0.52158  -0.48948
 Alpha  occ. eigenvalues --   -0.46238  -0.43028  -0.42417  -0.40107  -0.39090
 Alpha  occ. eigenvalues --   -0.36875  -0.36849  -0.33553  -0.33124  -0.31906
 Alpha  occ. eigenvalues --   -0.31379  -0.30751  -0.29668  -0.27132  -0.25257
 Alpha  occ. eigenvalues --   -0.23624  -0.22754  -0.22208  -0.20271  -0.19140
 Alpha  occ. eigenvalues --   -0.18112  -0.16185  -0.15540   0.03988
 Alpha virt. eigenvalues --    0.05278   0.06297   0.07506   0.08104   0.08512
 Alpha virt. eigenvalues --    0.08633   0.09763   0.10498   0.11117   0.11300
 Alpha virt. eigenvalues --    0.12049   0.12493   0.13655   0.14693   0.15347

  Beta  occ. eigenvalues --  -18.99040 -14.31302 -14.24684 -14.24243 -14.21786
  Beta  occ. eigenvalues --  -10.18200 -10.14697 -10.13422 -10.12142 -10.11903
  Beta  occ. eigenvalues --  -10.07543 -10.07498 -10.06580  -0.99357  -0.94202
  Beta  occ. eigenvalues --   -0.83109  -0.81662  -0.75305  -0.74159  -0.64088
  Beta  occ. eigenvalues --   -0.58719  -0.56825  -0.56118  -0.52079  -0.48900
  Beta  occ. eigenvalues --   -0.46182  -0.42977  -0.42372  -0.40026  -0.39045
  Beta  occ. eigenvalues --   -0.36831  -0.36779  -0.33483  -0.33060  -0.31840
  Beta  occ. eigenvalues --   -0.31315  -0.30715  -0.29649  -0.27068  -0.25227
  Beta  occ. eigenvalues --   -0.23580  -0.22726  -0.22177  -0.20194  -0.19114
  Beta  occ. eigenvalues --   -0.18034  -0.16135  -0.15471
  Beta virt. eigenvalues --    0.06126   0.06576   0.07089   0.07893   0.08515
  Beta virt. eigenvalues --    0.08869   0.09268   0.10310   0.10710   0.11607
  Beta virt. eigenvalues --    0.12031   0.12303   0.12700   0.14076   0.14652

 Mulliken charges and spin densities:
               1          2
     1  C    1.741387  -1.991942
     2  N    0.024798   0.001672
     3  C    0.479603  -0.309562
     4  N   -0.155567   0.037033
     5  C    0.165990  -0.711946
     6  N   -0.356438   0.351846
     7  C    0.290515  -0.190202
     8  O   -0.336307   0.010320
     9  N   -0.192008  -0.013835
    10  C   -0.284979   0.280229
    11  C    0.194441  -0.488996
    12  C    0.049064  -0.403426
    13  C   -0.001490  -0.364588
    14  H   -0.264820   0.440021
    15  H   -0.285301   0.471851
    16  H   -0.892259   1.062040
    17  H   -1.204251   1.417866
    18  H    0.216280   0.108953
    19  H   -0.498735   0.673084
    20  H   -0.014484   0.173377
    21  H    0.178112  -0.019005
    22  H    0.045947   0.094058
    23  H   -0.010042   0.128543
    24  H    0.255758  -0.044312
    25  H   -0.145212   0.286922
 Sum of Mulliken charges =  -1.00000   1.00000

 Dipole moment (field-independent basis, Debye):
    X=              5.7258    Y=              2.0038    Z=              0.6938  Tot=              6.1059
 Quadrupole moment (field-independent basis, Debye-Ang):
   XX=           -157.2587   YY=           -130.6942   ZZ=           -103.0065
   XY=            -14.8024   XZ=             -2.9900   YZ=             -4.2558

 Summary of Natural Population Analysis:

                                       Natural Population
                Natural  -----------------------------------------------
    Atom  No    Charge         Core      Valence    Rydberg      Total
 -----------------------------------------------------------------------
      C    1   -0.17290      0.99963     2.16474    0.00853     3.17290
      N    2   -0.10420      0.99967     2.59122    0.01331     3.60420
      C    3    0.11655      0.99960     1.86743    0.01642     2.88345
      N    4   -0.26657      0.99971     2.75635    0.01051     3.76657
      C    5    0.12276      0.99960     1.85840    0.01925     2.87724
      N    6   -0.13058      0.99970     2.62013    0.01076     3.63058
      C    7    0.32710      0.99962     1.65182    0.02146     2.67290
      O    8   -0.30883      0.99988     3.30378    0.00517     4.30883
      N    9   -0.31144      0.99966     2.80223    0.00955     3.81144
      C   10   -0.01183      0.99958     1.99781    0.01443     3.01183
      C   11   -0.19129      0.99962     2.18379    0.00788     3.19129
      C   12   -0.19007      0.99965     2.18360    0.00683     3.19007
      C   13   -0.19649      0.99962     2.18876    0.00810     3.19649
      H   14    0.10331      0.00000     0.39539    0.00130     0.39669
      H   15    0.10579      0.00000     0.39254    0.00167     0.39421
      H   16    0.11081      0.00000     0.38004    0.00914     0.38919
      H   17    0.10527      0.00000     0.39193    0.00280     0.39473
      H   18    0.19378      0.00000     0.30380    0.00242     0.30622
      H   19    0.09765      0.00000     0.40036    0.00199     0.40235
      H   20    0.09549      0.00000     0.40348    0.00103     0.40451
      H   21    0.10418      0.00000     0.39400    0.00182     0.39582
      H   22    0.09834      0.00000     0.40067    0.00099     0.40166
      H   23    0.09381      0.00000     0.40479    0.00140     0.40619
      H   24    0.11677      0.00000     0.38110    0.00213     0.38323
      H   25    0.09260      0.00000     0.40621    0.00119     0.40740
 =======================================================================
   * Total *    0.00000     12.99555    34.82437    0.18008    48.00000

 Normal termination of Gaussian 16 at Thu Dec 10 01:10:36 2020.
