 Gaussian 16, Revision A.03,

 -----------------------------------------------------------
 # opt freq B3LYP/6-31G(d) empiricaldispersion=gd3bj scf=xqc
 -----------------------------------------------------------

 -------------------------------
 CID_133665023_JID_4708_neutraal
 -------------------------------
 Symbolic Z-matrix:
 Charge =  0 Multiplicity = 1

 SCF Done:  E(RB3LYP) =  -647.045286047     A.U. after   15 cycles
 SCF Done:  E(RB3LYP) =  -647.051469712     A.U. after   15 cycles
 SCF Done:  E(RB3LYP) =  -647.050017812     A.U. after   14 cycles
 SCF Done:  E(RB3LYP) =  -647.053215334     A.U. after   13 cycles
 SCF Done:  E(RB3LYP) =  -647.053382689     A.U. after   13 cycles
 SCF Done:  E(RB3LYP) =  -647.053724780     A.U. after   13 cycles
 SCF Done:  E(RB3LYP) =  -647.053980809     A.U. after   12 cycles
 SCF Done:  E(RB3LYP) =  -647.054061045     A.U. after   11 cycles
 SCF Done:  E(RB3LYP) =  -647.054076494     A.U. after   11 cycles
 SCF Done:  E(RB3LYP) =  -647.054082626     A.U. after    9 cycles
 SCF Done:  E(RB3LYP) =  -647.054084808     A.U. after   10 cycles
 SCF Done:  E(RB3LYP) =  -647.054085239     A.U. after    8 cycles
 SCF Done:  E(RB3LYP) =  -647.054085328     A.U. after    7 cycles
 SCF Done:  E(RB3LYP) =  -647.054085367     A.U. after    7 cycles
 Optimization completed.
    -- Stationary point found.
 Normal termination of Gaussian 16 at Thu Dec 10 10:23:51 2020.

 --------------------------------------------------------------------
 #N Geom=AllCheck Guess=TCheck SCRF=Check GenChk RB3LYP/6-31G(d) Freq
 --------------------------------------------------------------------

 Structure from the checkpoint file:  "JID_4708.chk"
 -------------------------------
 CID_133665023_JID_4708_neutraal
 -------------------------------
 Charge =  0 Multiplicity = 1

 SCF Done:  E(RB3LYP) =  -647.054085367     A.U. after    1 cycles

  Exact polarizability: 169.482   3.094 124.858  14.388  -9.341  74.030
 Approx polarizability: 273.892  -9.263 197.879  37.322 -30.763 117.809

                      1                      2                      3
                      A                      A                      A
 Frequencies --     45.4366                56.2113                98.4107
 Red. masses --      5.5867                 7.6303                 4.0368
 Frc consts  --      0.0068                 0.0142                 0.0230
 IR Inten    --      1.2314                 0.9684                 3.5265

                      4                      5                      6
                      A                      A                      A
 Frequencies --    117.0620               139.3319               155.5680
 Red. masses --      3.4655                 4.2402                 1.1777
 Frc consts  --      0.0280                 0.0485                 0.0168
 IR Inten    --      5.6587                 1.2088                 1.9206

                      7                      8                      9
                      A                      A                      A
 Frequencies --    167.3698               175.2973               200.1253
 Red. masses --      1.2764                 4.2948                 4.3403
 Frc consts  --      0.0211                 0.0778                 0.1024
 IR Inten    --      0.0840                 0.2563                 3.2528

                     10                     11                     12
                      A                      A                      A
 Frequencies --    203.2373               287.4249               308.4259
 Red. masses --      3.6332                 5.1972                 3.1102
 Frc consts  --      0.0884                 0.2530                 0.1743
 IR Inten    --      1.8315                 5.9521                 0.4826

                     13                     14                     15
                      A                      A                      A
 Frequencies --    349.2271               363.0242               416.4831
 Red. masses --      4.2897                 5.0665                 4.1423
 Frc consts  --      0.3082                 0.3934                 0.4233
 IR Inten    --      5.2159                 7.8174                 5.2642

                     16                     17                     18
                      A                      A                      A
 Frequencies --    508.1362               517.5060               523.0768
 Red. masses --      4.9378                 6.0449                 1.5497
 Frc consts  --      0.7512                 0.9538                 0.2498
 IR Inten    --      3.6506                15.1276                58.0359

                     19                     20                     21
                      A                      A                      A
 Frequencies --    579.7261               584.1342               631.8834
 Red. masses --      5.8603                 6.7002                 3.2395
 Frc consts  --      1.1604                 1.3470                 0.7621
 IR Inten    --      1.0142                 2.0911                 3.6872

                     22                     23                     24
                      A                      A                      A
 Frequencies --    646.6217               701.3485               734.6155
 Red. masses --      3.7047                 2.0309                 2.0029
 Frc consts  --      0.9126                 0.5886                 0.6368
 IR Inten    --     11.5618                30.8689                12.9768

                     25                     26                     27
                      A                      A                      A
 Frequencies --    778.6022               803.4163               852.7363
 Red. masses --      6.7415                 4.4091                 1.2924
 Frc consts  --      2.4079                 1.6768                 0.5537
 IR Inten    --     18.1480                 8.0985                 8.7219

                     28                     29                     30
                      A                      A                      A
 Frequencies --    862.1305               897.7593               923.1899
 Red. masses --      4.1793                 1.5402                 5.0392
 Frc consts  --      1.8302                 0.7314                 2.5304
 IR Inten    --      8.0467                13.6051                10.5728

                     31                     32                     33
                      A                      A                      A
 Frequencies --    994.6179              1056.4607              1078.9485
 Red. masses --      4.5898                 1.8644                 1.4949
 Frc consts  --      2.6752                 1.2260                 1.0253
 IR Inten    --     22.8700                16.4778                 3.8832

                     34                     35                     36
                      A                      A                      A
 Frequencies --   1090.0704              1121.6787              1163.0949
 Red. masses --      1.4399                 1.8021                 2.7986
 Frc consts  --      1.0080                 1.3358                 2.2306
 IR Inten    --      0.7206                31.4199                81.1627

                     37                     38                     39
                      A                      A                      A
 Frequencies --   1189.0237              1206.1743              1227.3238
 Red. masses --      1.2795                 2.8069                 1.5881
 Frc consts  --      1.0658                 2.4060                 1.4094
 IR Inten    --      1.2378                 9.4836                 9.6706

                     40                     41                     42
                      A                      A                      A
 Frequencies --   1258.9331              1288.8770              1316.9457
 Red. masses --      2.0641                 2.8046                 5.3905
 Frc consts  --      1.9275                 2.7450                 5.5083
 IR Inten    --     92.2615               109.9624                43.7179

                     43                     44                     45
                      A                      A                      A
 Frequencies --   1422.0889              1441.6416              1444.3409
 Red. masses --      1.7683                 1.3225                 2.9425
 Frc consts  --      2.1070                 1.6194                 3.6166
 IR Inten    --     21.4900                 4.5034                12.0016

                     46                     47                     48
                      A                      A                      A
 Frequencies --   1484.4750              1493.9514              1499.9671
 Red. masses --      2.8532                 1.3170                 1.0604
 Frc consts  --      3.7045                 1.7319                 1.4056
 IR Inten    --     10.0092                17.8769                 7.9354

                     49                     50                     51
                      A                      A                      A
 Frequencies --   1513.2526              1515.8952              1522.2189
 Red. masses --      1.0463                 3.1624                 1.1345
 Frc consts  --      1.4117                 4.2817                 1.5488
 IR Inten    --      5.9603                21.4266                12.7880

                     52                     53                     54
                      A                      A                      A
 Frequencies --   1522.6223              1609.9228              1710.9495
 Red. masses --      1.1158                 3.9791                 7.2430
 Frc consts  --      1.5241                 6.0763                12.4923
 IR Inten    --     20.7808                 1.9680                 7.6734

                     55                     56                     57
                      A                      A                      A
 Frequencies --   1797.3552              2344.6392              3054.6571
 Red. masses --     11.4540                12.6558                 1.0366
 Frc consts  --     21.8010                40.9914                 5.6989
 IR Inten    --    276.5659                52.2623                21.6238

                     58                     59                     60
                      A                      A                      A
 Frequencies --   3081.8577              3112.3044              3126.2613
 Red. masses --      1.0293                 1.0987                 1.0874
 Frc consts  --      5.7600                 6.2704                 6.2620
 IR Inten    --     31.1839                11.0696                16.5785

                     61                     62                     63
                      A                      A                      A
 Frequencies --   3141.4087              3165.2668              3187.8897
 Red. masses --      1.1028                 1.1066                 1.1084
 Frc consts  --      6.4118                 6.5321                 6.6369
 IR Inten    --     23.2688                12.2301                11.0990

                     64                     65                     66
                      A                      A                      A
 Frequencies --   3278.0037              3296.6127              3655.4389
 Red. masses --      1.0908                 1.1043                 1.0805
 Frc consts  --      6.9055                 7.0711                 8.5065
 IR Inten    --      0.5408                 0.9198                72.3075

 - Thermochemistry -
 -------------------
 Temperature   298.150 Kelvin.  Pressure   1.00000 Atm.
 Atom     1 has atomic number  6 and mass  12.00000

 Molecular mass:   190.07423 amu.
 Principal axes and moments of inertia in atomic units:
                           1         2         3
     Eigenvalues --  1730.243383116.633224026.48621
           X            0.99993   0.01097   0.00388
           Y           -0.01113   0.99894   0.04456
           Z           -0.00338  -0.04460   0.99900
 This molecule is an asymmetric top.
 Rotational symmetry number  1.
 Warning -- assumption of classical behavior for rotation
           may cause significant error
 Rotational temperatures (Kelvin)      0.05006     0.02779     0.02151
 Rotational constants (GHZ):           1.04306     0.57907     0.44822
 Zero-point vibrational energy     490724.3 (Joules/Mol)
                                  117.28591 (Kcal/Mol)
 Warning -- explicit consideration of  20 degrees of freedom as
           vibrations may cause significant error
 Vibrational temperatures:     65.37    80.88   141.59   168.43   200.47
          (Kelvin)            223.83   240.81   252.21   287.94   292.41
                              413.54   443.76   502.46   522.31   599.23
                              731.09   744.58   752.59   834.10   840.44
                              909.14   930.34  1009.08  1056.95  1120.23
                             1155.94  1226.90  1240.41  1291.68  1328.26
                             1431.03  1520.01  1552.37  1568.37  1613.85
                             1673.43  1710.74  1735.42  1765.85  1811.32
                             1854.41  1894.79  2046.07  2074.20  2078.08
                             2135.83  2149.46  2158.12  2177.23  2181.04
                             2190.13  2190.71  2316.32  2461.67  2585.99
                             3373.41  4394.97  4434.11  4477.91  4497.99
                             4519.79  4554.11  4586.66  4716.32  4743.09
                             5259.36

 Zero-point correction=                           0.186907 (Hartree/Particle)
 Thermal correction to Energy=                    0.200488
 Thermal correction to Enthalpy=                  0.201433
 Thermal correction to Gibbs Free Energy=         0.146412
 Sum of electronic and zero-point Energies=           -646.867178
 Sum of electronic and thermal Energies=              -646.853597
 Sum of electronic and thermal Enthalpies=            -646.852653
 Sum of electronic and thermal Free Energies=         -646.907673

                     E (Thermal)             CV                S
                      KCal/Mol        Cal/Mol-Kelvin    Cal/Mol-Kelvin
 Total                  125.808             49.409            115.800
 Electronic               0.000              0.000              0.000
 Translational            0.889              2.981             41.632
 Rotational               0.889              2.981             31.452
 Vibrational            124.031             43.448             42.716
 Vibration     1          0.595              1.979              5.007
 Vibration     2          0.596              1.975              4.586
 Vibration     3          0.604              1.950              3.486
 Vibration     4          0.608              1.935              3.148
 Vibration     5          0.615              1.914              2.813
 Vibration     6          0.620              1.896              2.603
 Vibration     7          0.624              1.883              2.465
 Vibration     8          0.627              1.873              2.378
 Vibration     9          0.638              1.840              2.132
 Vibration    10          0.639              1.835              2.104
 Vibration    11          0.685              1.697              1.489
 Vibration    12          0.698              1.658              1.371
 Vibration    13          0.726              1.577              1.170
 Vibration    14          0.737              1.548              1.109
 Vibration    15          0.780              1.434              0.904
 Vibration    16          0.863              1.232              0.638
 Vibration    17          0.873              1.211              0.616
 Vibration    18          0.878              1.199              0.603
 Vibration    19          0.936              1.075              0.486
 Vibration    20          0.941              1.066              0.478

                           ! Non-Optimized Parameters !
 Normal termination of Gaussian 16 at Thu Dec 10 10:30:23 2020.

 ----------------------------------------------------------------------
 # B3LYP/6-311++G(d,p) empiricaldispersion=gd3bj scf=xqc pop=npa geom=c
 heck
 ----------------------------------------------------------------------

 ---------------------------------------
 CID_133665023_JID_4708_Energie_neutraal
 ---------------------------------------
 Structure from the checkpoint file:  "JID_4708.chk"
 Charge =  0 Multiplicity = 1

 SCF Done:  E(RB3LYP) =  -647.236715396     A.U. after   16 cycles
 Normal termination of Gaussian 16 at Thu Dec 10 10:33:18 2020.

 ----------------------------------------------------------------------
 # B3LYP/6-311++G(d,p) empiricaldispersion=gd3bj scf=xqc pop=npa geom=c
 heck
 ----------------------------------------------------------------------

 -------------------------------------
 CID_133665023_JID_4708_Energie_kation
 -------------------------------------
 Structure from the checkpoint file:  "JID_4708.chk"
 Charge =  1 Multiplicity = 2

 SCF Done:  E(UB3LYP) =  -646.939741566     A.U. after   23 cycles
 Normal termination of Gaussian 16 at Thu Dec 10 10:38:46 2020.
 Gaussian 16:  ES64L-G16RevA.03 25-Dec-2016

 ----------------------------------------------------------------------
 # B3LYP/6-311++G(d,p) empiricaldispersion=gd3bj scf=xqc pop=npa geom=c
 heck
 ----------------------------------------------------------------------

 ------------------------------------
 CID_133665023_JID_4708_Energie_anion
 ------------------------------------
 Structure from the checkpoint file:  "JID_4708.chk"
 Charge = -1 Multiplicity = 2

                         Standard orientation:
 ---------------------------------------------------------------------
 Center     Atomic      Atomic             Coordinates (Angstroms)
 Number     Number       Type             X           Y           Z
 ---------------------------------------------------------------------
      1          6           0        2.291253    2.358615    0.482019
      2          6           0        1.256815    1.320262    0.134969
      3          6           0       -0.059246    1.621579    0.144658
      4          6           0       -1.234269    0.782407   -0.000648
      5          6           0       -1.565931   -0.514941    0.413308
      6          6           0       -2.937630   -0.747338    0.089822
      7          6           0       -3.414003    0.397322   -0.503333
      8          7           0       -2.387924    1.310784   -0.533439
      9          6           0       -0.717080   -1.417805    1.097982
     10          7           0       -0.037346   -2.175939    1.663343
     11          6           0        1.850079   -0.012744   -0.187607
     12          8           0        2.944605   -0.357296    0.211119
     13          8           0        1.092164   -0.750077   -1.020154
     14          6           0        1.604776   -2.064168   -1.302770
     15          1           0        1.828432    3.325888    0.696154
     16          1           0        3.015152    2.483526   -0.331935
     17          1           0        2.864986    2.037044    1.357691
     18          1           0       -0.301138    2.669307    0.331597
     19          1           0       -3.490263   -1.653440    0.289134
     20          1           0       -4.388296    0.635659   -0.902322
     21          1           0       -2.439826    2.227151   -0.953401
     22          1           0        2.579749   -1.993796   -1.791442
     23          1           0        1.694812   -2.634415   -0.376470
     24          1           0        0.870559   -2.520990   -1.966441
 ---------------------------------------------------------------------

 SCF Done:  E(UB3LYP) =  -647.255396173     A.U. after   27 cycles

 The electronic state is 2-A.
 Alpha  occ. eigenvalues --  -19.01350 -18.94327 -14.22994 -14.15766 -10.12893
 Alpha  occ. eigenvalues --  -10.08820 -10.07718 -10.07606 -10.06296 -10.04936
 Alpha  occ. eigenvalues --  -10.04684 -10.03054 -10.02256 -10.02167  -0.95312
 Alpha  occ. eigenvalues --   -0.86130  -0.85976  -0.75799  -0.67139  -0.66548
 Alpha  occ. eigenvalues --   -0.61828  -0.58906  -0.54634  -0.50744  -0.47679
 Alpha  occ. eigenvalues --   -0.46546  -0.42009  -0.39804  -0.35124  -0.34320
 Alpha  occ. eigenvalues --   -0.33389  -0.32552  -0.31116  -0.30087  -0.29876
 Alpha  occ. eigenvalues --   -0.29328  -0.28294  -0.26787  -0.24842  -0.24470
 Alpha  occ. eigenvalues --   -0.22882  -0.22264  -0.21931  -0.20762  -0.18574
 Alpha  occ. eigenvalues --   -0.16087  -0.14866  -0.12919  -0.12311  -0.08025
 Alpha  occ. eigenvalues --    0.03767
 Alpha virt. eigenvalues --    0.07164   0.09011   0.09625   0.10346   0.11008
 Alpha virt. eigenvalues --    0.12240   0.12956   0.13423   0.13786   0.13980
 Alpha virt. eigenvalues --    0.14858   0.15100   0.15834   0.15946   0.16910

  Beta  occ. eigenvalues --  -19.01301 -18.94061 -14.22791 -14.15637 -10.12759
  Beta  occ. eigenvalues --  -10.08821 -10.07640 -10.07570 -10.06305 -10.04816
  Beta  occ. eigenvalues --  -10.04704 -10.03071 -10.02028 -10.01824  -0.95096
  Beta  occ. eigenvalues --   -0.85759  -0.85676  -0.75607  -0.66607  -0.66208
  Beta  occ. eigenvalues --   -0.61490  -0.58821  -0.54302  -0.50481  -0.47316
  Beta  occ. eigenvalues --   -0.46243  -0.41788  -0.39603  -0.34933  -0.34019
  Beta  occ. eigenvalues --   -0.33181  -0.32166  -0.31000  -0.29997  -0.29319
  Beta  occ. eigenvalues --   -0.29151  -0.27850  -0.26561  -0.24659  -0.24001
  Beta  occ. eigenvalues --   -0.22589  -0.22042  -0.21401  -0.20475  -0.18449
  Beta  occ. eigenvalues --   -0.15313  -0.13504  -0.12336  -0.11731  -0.06789
  Beta virt. eigenvalues --    0.07258   0.08954   0.09565   0.09640   0.10383
  Beta virt. eigenvalues --    0.11044   0.12263   0.12878   0.13464   0.13937
  Beta virt. eigenvalues --    0.14050   0.15021   0.15757   0.15911   0.16016

 Mulliken charges and spin densities:
               1          2
     1  C   -0.595599  -0.038951
     2  C    0.933973   0.444121
     3  C   -1.122991   0.281620
     4  C    0.543078  -0.373284
     5  C    1.769815  -0.025388
     6  C    0.277870  -0.100490
     7  C   -0.283631   0.106576
     8  N   -0.033485   0.065152
     9  C   -1.980458  -0.101234
    10  N   -0.265223   0.074087
    11  C   -0.764954   0.120792
    12  O   -0.306779   0.092426
    13  O   -0.003893   0.007138
    14  C   -0.223944  -0.002018
    15  H    0.101223   0.006374
    16  H    0.117565   0.019413
    17  H    0.159420   0.011619
    18  H    0.007660   0.113028
    19  H    0.134400   0.005581
    20  H    0.036475   0.081394
    21  H    0.071890   0.200668
    22  H    0.128331   0.003215
    23  H    0.179446   0.004301
    24  H    0.119813   0.003860
 Sum of Mulliken charges =  -1.00000   1.00000

 Dipole moment (field-independent basis, Debye):
    X=             -3.3053    Y=              1.5449    Z=             -3.1962  Tot=              4.8505
 Quadrupole moment (field-independent basis, Debye-Ang):
   XX=           -110.1187   YY=           -100.2035   ZZ=            -97.1160
   XY=              0.2500   XZ=             -2.7882   YZ=              8.1249

 Summary of Natural Population Analysis:

                                       Natural Population
                Natural  -----------------------------------------------
    Atom  No    Charge         Core      Valence    Rydberg      Total
 -----------------------------------------------------------------------
      C    1   -0.28917      0.99965     2.28484    0.00468     3.28917
      C    2    0.01933      0.99947     1.97006    0.01115     2.98067
      C    3   -0.07880      0.99948     2.06928    0.01005     3.07880
      C    4    0.11696      0.99952     1.87027    0.01325     2.88304
      C    5   -0.11032      0.99937     2.10113    0.00982     3.11032
      C    6   -0.13154      0.99955     2.12470    0.00729     3.13154
      C    7   -0.03063      0.99959     2.01695    0.01409     3.03063
      N    8   -0.23812      0.99966     2.72958    0.00889     3.73812
      C    9    0.15792      0.99963     1.82492    0.01753     2.84208
      N   10   -0.18955      0.99979     2.67926    0.01051     3.68955
      C   11    0.41026      0.99962     1.56468    0.02544     2.58974
      O   12   -0.29471      0.99987     3.28965    0.00519     4.29471
      O   13   -0.27489      0.99986     3.26629    0.00874     4.27489
      C   14   -0.10782      0.99960     2.10000    0.00822     3.10782
      H   15    0.09040      0.00000     0.40879    0.00081     0.40960
      H   16    0.09770      0.00000     0.40125    0.00104     0.40230
      H   17    0.10812      0.00000     0.39078    0.00110     0.39188
      H   18    0.08761      0.00000     0.41082    0.00158     0.41239
      H   19    0.10176      0.00000     0.39749    0.00075     0.39824
      H   20    0.09360      0.00000     0.40563    0.00077     0.40640
      H   21    0.19588      0.00000     0.30164    0.00247     0.30412
      H   22    0.08342      0.00000     0.41542    0.00115     0.41658
      H   23    0.09928      0.00000     0.39949    0.00122     0.40072
      H   24    0.08328      0.00000     0.41593    0.00079     0.41672
 =======================================================================
   * Total *    0.00000     13.99466    35.83883    0.16652    50.00000

 Normal termination of Gaussian 16 at Thu Dec 10 10:44:12 2020.
