 Gaussian 16, Revision A.03,

 -----------------------------------------------------------
 # opt freq B3LYP/6-31G(d) empiricaldispersion=gd3bj scf=xqc
 -----------------------------------------------------------

 ------------------------------
 CID_13759244_JID_1107_neutraal
 ------------------------------
 Symbolic Z-matrix:
 Charge =  0 Multiplicity = 1

 SCF Done:  E(RB3LYP) =  -501.770495799     A.U. after   14 cycles
 SCF Done:  E(RB3LYP) =  -501.801091775     A.U. after   12 cycles
 SCF Done:  E(RB3LYP) =  -501.813031250     A.U. after   13 cycles
 SCF Done:  E(RB3LYP) =  -501.815289293     A.U. after   13 cycles
 SCF Done:  E(RB3LYP) =  -501.817058272     A.U. after   14 cycles
 SCF Done:  E(RB3LYP) =  -501.817969742     A.U. after   12 cycles
 SCF Done:  E(RB3LYP) =  -501.818282748     A.U. after   11 cycles
 SCF Done:  E(RB3LYP) =  -501.818518624     A.U. after   12 cycles
 SCF Done:  E(RB3LYP) =  -501.818603684     A.U. after   10 cycles
 SCF Done:  E(RB3LYP) =  -501.818471501     A.U. after   11 cycles
 SCF Done:  E(RB3LYP) =  -501.820905819     A.U. after   11 cycles
 SCF Done:  E(RB3LYP) =  -501.820937073     A.U. after   10 cycles
 SCF Done:  E(RB3LYP) =  -501.820963778     A.U. after   10 cycles
 SCF Done:  E(RB3LYP) =  -501.820969728     A.U. after    9 cycles
 SCF Done:  E(RB3LYP) =  -501.820970997     A.U. after    8 cycles
 SCF Done:  E(RB3LYP) =  -501.820971212     A.U. after    7 cycles
 Optimization completed.
    -- Stationary point found.

 1\1\GINC-NODE201\FOpt\RB3LYP\6-31G(d)\C9H14O2\VSC10255\08-Dec-2020\0\\
 # opt freq B3LYP/6-31G(d) empiricaldispersion=gd3bj scf=xqc\\CID_13759
 244_JID_1107_neutraal\\0,1\C,0.6950898177,0.1420806471,0.0663035825\C,
 -0.0202853071,-0.5954844086,1.1881364153\C,0.6953149063,-1.788673677,1
 .7784276265\C,0.561810239,-0.4949340043,2.5837239218\C,0.1037911257,-1
 .8175092052,3.141713097\C,1.6977050123,0.2548698149,3.1239836838\O,2.4
 140506519,-0.1340607954,4.0288504936\O,1.8752622614,1.4453972842,2.497
 566677\C,3.0014492057,2.2055247424,2.9571872615\C,1.9431213624,-2.4895

 Normal termination of Gaussian 16 at Tue Dec  8 19:17:19 2020.

 --------------------------------------------------------------------
 #N Geom=AllCheck Guess=TCheck SCRF=Check GenChk RB3LYP/6-31G(d) Freq
 --------------------------------------------------------------------

 Structure from the checkpoint file:  "JID_1107.chk"
 ------------------------------
 CID_13759244_JID_1107_neutraal
 ------------------------------
 Charge =  0 Multiplicity = 1

 SCF Done:  E(RB3LYP) =  -501.820971212     A.U. after    1 cycles

  Exact polarizability: 109.290  -0.800  98.334  -0.531   1.839  82.781
 Approx polarizability: 149.528   1.001 146.770   5.587   2.736 120.737

                      1                      2                      3
                      A                      A                      A
 Frequencies --     57.0278                76.8328               122.5845
 Red. masses --      4.7138                 3.0921                 2.6777
 Frc consts  --      0.0090                 0.0108                 0.0237
 IR Inten    --      2.4710                 0.2541                 1.2864

                      4                      5                      6
                      A                      A                      A
 Frequencies --    136.5634               170.7313               179.3953
 Red. masses --      1.1993                 1.2923                 1.8848
 Frc consts  --      0.0132                 0.0222                 0.0357
 IR Inten    --      0.1603                 0.7911                 2.6080

                      7                      8                      9
                      A                      A                      A
 Frequencies --    186.4871               200.7085               225.4319
 Red. masses --      1.2017                 1.5142                 1.9034
 Frc consts  --      0.0246                 0.0359                 0.0570
 IR Inten    --      0.4893                 0.5681                 0.8375

                     10                     11                     12
                      A                      A                      A
 Frequencies --    284.5745               300.7823               354.8058
 Red. masses --      2.6408                 1.9768                 3.9742
 Frc consts  --      0.1260                 0.1054                 0.2948
 IR Inten    --      3.5128                 3.6669                13.3575

                     13                     14                     15
                      A                      A                      A
 Frequencies --    381.7748               396.8351               416.7489
 Red. masses --      2.7375                 3.3400                 2.4541
 Frc consts  --      0.2351                 0.3099                 0.2511
 IR Inten    --      2.1000                 0.2106                 5.3405

                     16                     17                     18
                      A                      A                      A
 Frequencies --    451.6772               516.7731               573.0623
 Red. masses --      3.3908                 3.5102                 3.2429
 Frc consts  --      0.4076                 0.5523                 0.6275
 IR Inten    --      1.4756                 1.9391                 4.3656

                     19                     20                     21
                      A                      A                      A
 Frequencies --    675.9855               692.4471               777.5798
 Red. masses --      3.4525                 4.8301                 6.5437
 Frc consts  --      0.9295                 1.3645                 2.3311
 IR Inten    --      7.8814                 0.0440                16.5542

                     22                     23                     24
                      A                      A                      A
 Frequencies --    807.8488               881.5824               913.2211
 Red. masses --      5.6682                 3.0828                 2.4471
 Frc consts  --      2.1795                 1.4116                 1.2024
 IR Inten    --     18.8461                 1.3512                19.0546

                     25                     26                     27
                      A                      A                      A
 Frequencies --    966.9394               972.4189              1013.3761
 Red. masses --      1.5585                 1.4949                 1.6447
 Frc consts  --      0.8585                 0.8329                 0.9951
 IR Inten    --      6.0246                 4.2816                 2.0520

                     28                     29                     30
                      A                      A                      A
 Frequencies --   1028.6550              1052.3116              1082.4415
 Red. masses --      1.6570                 1.5658                 1.4569
 Frc consts  --      1.0330                 1.0216                 1.0058
 IR Inten    --      2.2794                 1.2836                33.0827

                     31                     32                     33
                      A                      A                      A
 Frequencies --   1103.4987              1119.2611              1148.4732
 Red. masses --      1.9222                 1.5734                 1.8631
 Frc consts  --      1.3791                 1.1613                 1.4479
 IR Inten    --      0.6474                 5.5998                45.9359

                     34                     35                     36
                      A                      A                      A
 Frequencies --   1180.8946              1185.9097              1213.8110
 Red. masses --      2.2587                 1.2795                 1.9424
 Frc consts  --      1.8558                 1.0602                 1.6861
 IR Inten    --     55.2793                 1.6020                40.5979

                     37                     38                     39
                      A                      A                      A
 Frequencies --   1228.6664              1239.6616              1335.0511
 Red. masses --      2.4306                 3.4897                 4.2652
 Frc consts  --      2.1619                 3.1597                 4.4791
 IR Inten    --    200.2410                16.8596               147.2145

                     40                     41                     42
                      A                      A                      A
 Frequencies --   1372.8655              1428.9333              1441.5407
 Red. masses --      4.0669                 1.3792                 1.2517
 Frc consts  --      4.5162                 1.6592                 1.5326
 IR Inten    --     82.1807                14.2767                14.5760

                     43                     44                     45
                      A                      A                      A
 Frequencies --   1451.6286              1471.5813              1496.8605
 Red. masses --      1.2467                 1.6615                 1.2851
 Frc consts  --      1.5479                 2.1199                 1.6965
 IR Inten    --      6.6284                26.5902                41.7340

                     46                     47                     48
                      A                      A                      A
 Frequencies --   1509.2012              1512.1295              1513.7834
 Red. masses --      1.0505                 1.0490                 1.0526
 Frc consts  --      1.4098                 1.4131                 1.4211
 IR Inten    --      1.3689                 4.8309                12.4482

                     49                     50                     51
                      A                      A                      A
 Frequencies --   1517.3717              1525.7703              1527.0414
 Red. masses --      1.0646                 1.0534                 1.0577
 Frc consts  --      1.4441                 1.4448                 1.4531
 IR Inten    --      1.5368                 9.5287                 5.1015

                     52                     53                     54
                      A                      A                      A
 Frequencies --   1534.7742              1544.7514              1561.7697
 Red. masses --      1.0542                 1.1251                 1.6824
 Frc consts  --      1.4631                 1.5818                 2.4178
 IR Inten    --     16.0598                 1.0966                32.6695

                     55                     56                     57
                      A                      A                      A
 Frequencies --   1788.3040              3044.8766              3049.5994
 Red. masses --     11.3707                 1.0363                 1.0389
 Frc consts  --     21.4250                 5.6609                 5.6924
 IR Inten    --    247.9923                33.0665                24.8986

                     58                     59                     60
                      A                      A                      A
 Frequencies --   3059.0087              3072.9560              3101.7226
 Red. masses --      1.0398                 1.0296                 1.1022
 Frc consts  --      5.7328                 5.7286                 6.2479
 IR Inten    --     32.0512                38.3985                13.8430

                     61                     62                     63
                      A                      A                      A
 Frequencies --   3106.5774              3118.2968              3121.0455
 Red. masses --      1.1020                 1.0594                 1.0995
 Frc consts  --      6.2661                 6.0694                 6.3105
 IR Inten    --     17.5797                25.7821                25.0805

                     64                     65                     66
                      A                      A                      A
 Frequencies --   3127.7296              3145.6580              3145.9879
 Red. masses --      1.1004                 1.0962                 1.1068
 Frc consts  --      6.3428                 6.3911                 6.4542
 IR Inten    --     18.0692                28.4922                25.5851

                     67                     68                     69
                      A                      A                      A
 Frequencies --   3152.7406              3178.3634              3201.5492
 Red. masses --      1.0996                 1.1070                 1.1115
 Frc consts  --      6.4397                 6.5887                 6.7127
 IR Inten    --     23.9361                18.5151                 9.5966

 - Thermochemistry -
 -------------------
 Temperature   298.150 Kelvin.  Pressure   1.00000 Atm.
 Atom     1 has atomic number  6 and mass  12.00000

 Molecular mass:   154.09938 amu.
 Principal axes and moments of inertia in atomic units:
                           1         2         3
     Eigenvalues --  1129.546012040.694512386.32381
           X            0.99988  -0.00748  -0.01360
           Y            0.00724   0.99982  -0.01764
           Z            0.01373   0.01754   0.99975
 This molecule is an asymmetric top.
 Rotational symmetry number  1.
 Warning -- assumption of classical behavior for rotation
           may cause significant error
 Rotational temperatures (Kelvin)      0.07668     0.04244     0.03630
 Rotational constants (GHZ):           1.59776     0.88438     0.75629
 Zero-point vibrational energy     565099.4 (Joules/Mol)
                                  135.06201 (Kcal/Mol)
 Warning -- explicit consideration of  18 degrees of freedom as
           vibrations may cause significant error
 Vibrational temperatures:     82.05   110.55   176.37   196.48   245.64
          (Kelvin)            258.11   268.31   288.77   324.35   409.44
                              432.76   510.49   549.29   570.96   599.61
                              649.86   743.52   824.51   972.59   996.28
                             1118.76  1162.31  1268.40  1313.92  1391.21
                             1399.09  1458.02  1480.01  1514.04  1557.39
                             1587.69  1610.37  1652.40  1699.04  1706.26
                             1746.40  1767.78  1783.60  1920.84  1975.25
                             2055.92  2074.06  2088.57  2117.28  2153.65
                             2171.40  2175.62  2178.00  2183.16  2195.24
                             2197.07  2208.20  2222.55  2247.04  2572.97
                             4380.90  4387.69  4401.23  4421.30  4462.69
                             4469.67  4486.53  4490.49  4500.11  4525.90
                             4526.37  4536.09  4572.96  4606.32

 Zero-point correction=                           0.215235 (Hartree/Particle)
 Thermal correction to Energy=                    0.227645
 Thermal correction to Enthalpy=                  0.228589
 Thermal correction to Gibbs Free Energy=         0.177300
 Sum of electronic and zero-point Energies=           -501.605736
 Sum of electronic and thermal Energies=              -501.593326
 Sum of electronic and thermal Enthalpies=            -501.592382
 Sum of electronic and thermal Free Energies=         -501.643672

                     E (Thermal)             CV                S
                      KCal/Mol        Cal/Mol-Kelvin    Cal/Mol-Kelvin
 Total                  142.849             45.320            107.948
 Electronic               0.000              0.000              0.000
 Translational            0.889              2.981             41.007
 Rotational               0.889              2.981             30.088
 Vibrational            141.072             39.358             36.853
 Vibration     1          0.596              1.975              4.557
 Vibration     2          0.599              1.965              3.970
 Vibration     3          0.610              1.930              3.059
 Vibration     4          0.614              1.917              2.851
 Vibration     5          0.626              1.879              2.427
 Vibration     6          0.629              1.868              2.335
 Vibration     7          0.632              1.858              2.262
 Vibration     8          0.638              1.839              2.127
 Vibration     9          0.650              1.802              1.915
 Vibration    10          0.683              1.702              1.506
 Vibration    11          0.693              1.672              1.413
 Vibration    12          0.731              1.565              1.145
 Vibration    13          0.751              1.509              1.032
 Vibration    14          0.763              1.477              0.974
 Vibration    15          0.780              1.434              0.903
 Vibration    16          0.810              1.357              0.791
 Vibration    17          0.872              1.213              0.617
 Vibration    18          0.929              1.090              0.498

 Optimization completed.
    -- Stationary point found.

 1\1\GINC-NODE201\Freq\RB3LYP\6-31G(d)\C9H14O2\VSC10255\08-Dec-2020\0\\
 #N Geom=AllCheck Guess=TCheck SCRF=Check GenChk RB3LYP/6-31G(d) Freq\\
 CID_13759244_JID_1107_neutraal\\0,1\C,0.6950898177,0.1420806471,0.0663
 035825\C,-0.0202853071,-0.5954844086,1.1881364153\C,0.6953149063,-1.78
 8673677,1.7784276265\C,0.561810239,-0.4949340043,2.5837239218\C,0.1037
 911257,-1.8175092052,3.141713097\C,1.6977050123,0.2548698149,3.1239836
 838\O,2.4140506519,-0.1340607954,4.0288504936\O,1.8752622614,1.4453972
 842,2.497566677\C,3.0014492057,2.2055247424,2.9571872615\C,1.943121362

 Normal termination of Gaussian 16 at Tue Dec  8 19:22:29 2020.

 ----------------------------------------------------------------------
 # B3LYP/6-311++G(d,p) empiricaldispersion=gd3bj scf=xqc pop=npa geom=c
 heck
 ----------------------------------------------------------------------

 --------------------------------------
 CID_13759244_JID_1107_Energie_neutraal
 --------------------------------------
 Structure from the checkpoint file:  "JID_1107.chk"
 Charge =  0 Multiplicity = 1

 SCF Done:  E(RB3LYP) =  -501.961884609     A.U. after   15 cycles
 Normal termination of Gaussian 16 at Tue Dec  8 19:24:47 2020.

 ----------------------------------------------------------------------
 # B3LYP/6-311++G(d,p) empiricaldispersion=gd3bj scf=xqc pop=npa geom=c
 heck
 ----------------------------------------------------------------------

 ------------------------------------
 CID_13759244_JID_1107_Energie_kation
 ------------------------------------
 Structure from the checkpoint file:  "JID_1107.chk"
 Charge =  1 Multiplicity = 2

 SCF Done:  E(UB3LYP) =  -501.646003088     A.U. after   23 cycles
 Normal termination of Gaussian 16 at Tue Dec  8 19:29:50 2020.
 Gaussian 16:  ES64L-G16RevA.03 25-Dec-2016

 -----------------------------------
 CID_13759244_JID_1107_Energie_anion
 -----------------------------------
 Structure from the checkpoint file:  "JID_1107.chk"
 Charge = -1 Multiplicity = 2

                         Standard orientation:
 ---------------------------------------------------------------------
 Center     Atomic      Atomic             Coordinates (Angstroms)
 Number     Number       Type             X           Y           Z
 ---------------------------------------------------------------------
      1          6           0        0.874976    1.648651    1.027796
      2          6           0        1.297159    0.671402   -0.058951
      3          6           0        1.305497   -0.793362    0.313370
      4          6           0        0.237315   -0.245938   -0.634997
      5          6           0        1.103020   -1.417429   -1.020355
      6          6           0       -1.203443   -0.355567   -0.397214
      7          8           0       -1.831050   -1.398770   -0.429430
      8          8           0       -1.774972    0.845226   -0.127524
      9          6           0       -3.179999    0.793141    0.156253
     10          6           0        1.122039   -1.459275    1.642316
     11          6           0        2.365854    1.263753   -0.970466
     12          1           0        0.484351    2.567142    0.578823
     13          1           0        1.738085    1.915862    1.648839
     14          1           0        0.092785    1.244447    1.673373
     15          1           0        0.600984   -2.382922   -1.017724
     16          1           0        1.827413   -1.294526   -1.824804
     17          1           0       -3.729566    0.385376   -0.696153
     18          1           0       -3.375256    0.167846    1.031879
     19          1           0       -3.477658    1.824587    0.347602
     20          1           0        0.331371   -2.217116    1.585078
     21          1           0        2.046154   -1.959929    1.955112
     22          1           0        0.853031   -0.741093    2.422612
     23          1           0        1.980929    2.162886   -1.465588
     24          1           0        3.245385    1.553514   -0.382968
     25          1           0        2.695671    0.570017   -1.746959
 ---------------------------------------------------------------------

 SCF Done:  E(UB3LYP) =  -501.945425901     A.U. after   31 cycles

 The electronic state is 2-A.
 Alpha  occ. eigenvalues --  -19.06308 -19.00377 -10.19870 -10.11815 -10.10503
 Alpha  occ. eigenvalues --  -10.10468 -10.09457 -10.08648 -10.06953 -10.05741
 Alpha  occ. eigenvalues --  -10.05508  -1.00178  -0.91368  -0.83696  -0.66724
 Alpha  occ. eigenvalues --   -0.64086  -0.62673  -0.58724  -0.54736  -0.52967
 Alpha  occ. eigenvalues --   -0.44845  -0.42409  -0.39275  -0.38159  -0.37358
 Alpha  occ. eigenvalues --   -0.36577  -0.34840  -0.33343  -0.32235  -0.30616
 Alpha  occ. eigenvalues --   -0.29845  -0.29253  -0.28633  -0.28092  -0.26915
 Alpha  occ. eigenvalues --   -0.25826  -0.24606  -0.23026  -0.20632  -0.20300
 Alpha  occ. eigenvalues --   -0.17108  -0.14244   0.04664
 Alpha virt. eigenvalues --    0.06719   0.07649   0.08133   0.09089   0.09757
 Alpha virt. eigenvalues --    0.10002   0.10322   0.10466   0.11013   0.12295
 Alpha virt. eigenvalues --    0.12945   0.13208   0.13656   0.14289   0.14952

  Beta  occ. eigenvalues --  -19.06304 -19.00370 -10.19868 -10.11770 -10.10503
  Beta  occ. eigenvalues --  -10.10465 -10.09457 -10.08632 -10.06913 -10.05705
  Beta  occ. eigenvalues --  -10.05473  -1.00167  -0.91356  -0.83687  -0.66692
  Beta  occ. eigenvalues --   -0.64040  -0.62619  -0.58659  -0.54689  -0.52923
  Beta  occ. eigenvalues --   -0.44820  -0.42353  -0.39234  -0.38134  -0.37328
  Beta  occ. eigenvalues --   -0.36545  -0.34801  -0.33312  -0.32198  -0.30577
  Beta  occ. eigenvalues --   -0.29804  -0.29226  -0.28600  -0.28053  -0.26878
  Beta  occ. eigenvalues --   -0.25790  -0.24571  -0.23005  -0.20612  -0.20284
  Beta  occ. eigenvalues --   -0.17095  -0.14228
  Beta virt. eigenvalues --    0.06981   0.07797   0.08436   0.08612   0.09323
  Beta virt. eigenvalues --    0.10367   0.10739   0.10804   0.10974   0.11397
  Beta virt. eigenvalues --    0.12832   0.13270   0.13518   0.13968   0.14689

 Mulliken charges and spin densities:
               1          2
     1  C    1.235458  -1.926744
     2  C   -2.611964   1.743094
     3  C   -0.048660   0.923401
     4  C    2.405559  -1.124331
     5  C    0.043238  -1.274462
     6  C   -1.545901   1.137701
     7  O   -0.277006   0.014867
     8  O   -0.103955   0.079637
     9  C    0.988863  -1.211936
    10  C    0.818307  -1.138486
    11  C    0.792404  -1.105851
    12  H   -0.001016   0.166744
    13  H   -0.282389   0.436361
    14  H   -0.158192   0.302253
    15  H    0.112156   0.045739
    16  H   -0.114206   0.299309
    17  H   -0.176871   0.342095
    18  H   -0.225366   0.407057
    19  H   -0.523639   0.676410
    20  H   -0.025367   0.177545
    21  H   -0.376276   0.543680
    22  H   -0.244616   0.402158
    23  H   -0.117262   0.266632
    24  H   -0.287872   0.431453
    25  H   -0.275428   0.385674
 Sum of Mulliken charges =  -1.00000   1.00000

 Dipole moment (field-independent basis, Debye):
    X=             -0.2662    Y=             -1.9749    Z=             -2.4567  Tot=              3.1633
 Quadrupole moment (field-independent basis, Debye-Ang):
   XX=           -129.1724   YY=           -107.9785   ZZ=           -105.6883
   XY=              1.4595   XZ=              0.1493   YZ=             -0.5925

 Summary of Natural Population Analysis:

                                       Natural Population
                Natural  -----------------------------------------------
    Atom  No    Charge         Core      Valence    Rydberg      Total
 -----------------------------------------------------------------------
      C    1   -0.28822      0.99962     2.28186    0.00674     3.28822
      C    2   -0.01662      0.99950     2.00314    0.01397     3.01662
      C    3    0.00796      0.99943     1.97870    0.01391     2.99204
      C    4   -0.07667      0.99934     2.06339    0.01394     3.07667
      C    5   -0.17636      0.99955     2.16588    0.01093     3.17636
      C    6    0.39895      0.99957     1.57792    0.02356     2.60105
      O    7   -0.31564      0.99987     3.31028    0.00548     4.31564
      O    8   -0.27534      0.99987     3.26627    0.00920     4.27534
      C    9   -0.10441      0.99959     2.09549    0.00933     3.10441
      C   10   -0.29341      0.99961     2.28698    0.00682     3.29341
      C   11   -0.28332      0.99961     2.27753    0.00618     3.28332
      H   12    0.10634      0.00000     0.39230    0.00136     0.39366
      H   13    0.10221      0.00000     0.39647    0.00132     0.39779
      H   14    0.10569      0.00000     0.39240    0.00191     0.39431
      H   15    0.10957      0.00000     0.38942    0.00101     0.39043
      H   16    0.09971      0.00000     0.39897    0.00132     0.40029
      H   17    0.08986      0.00000     0.40898    0.00115     0.41014
      H   18    0.09185      0.00000     0.40672    0.00143     0.40815
      H   19    0.09368      0.00000     0.40446    0.00186     0.40632
      H   20    0.10679      0.00000     0.39200    0.00121     0.39321
      H   21    0.10652      0.00000     0.39206    0.00143     0.39348
      H   22    0.10817      0.00000     0.39035    0.00148     0.39183
      H   23    0.10025      0.00000     0.39862    0.00113     0.39975
      H   24    0.10152      0.00000     0.39706    0.00142     0.39848
      H   25    0.10092      0.00000     0.39767    0.00141     0.39908
 =======================================================================
   * Total *    0.00000     10.99557    30.86492    0.13951    42.00000

 Normal termination of Gaussian 16 at Tue Dec  8 19:36:29 2020.
