 Gaussian 16, Revision A.03,

 -----------------------------------------------------------
 # opt freq B3LYP/6-31G(d) empiricaldispersion=gd3bj scf=xqc
 -----------------------------------------------------------

 -------------------------------
 CID_62896087_JID_10296_neutraal
 -------------------------------
 Symbolic Z-matrix:
 Charge =  0 Multiplicity = 1

 SCF Done:  E(RB3LYP) =  -895.401971351     A.U. after   15 cycles
 SCF Done:  E(RB3LYP) =  -895.414137183     A.U. after   14 cycles
 SCF Done:  E(RB3LYP) =  -895.416018219     A.U. after   13 cycles
 SCF Done:  E(RB3LYP) =  -895.417915731     A.U. after   13 cycles
 SCF Done:  E(RB3LYP) =  -895.419167610     A.U. after   13 cycles
 SCF Done:  E(RB3LYP) =  -895.419846724     A.U. after   13 cycles
 SCF Done:  E(RB3LYP) =  -895.420289164     A.U. after   12 cycles
 SCF Done:  E(RB3LYP) =  -895.420322586     A.U. after   11 cycles
 SCF Done:  E(RB3LYP) =  -895.420341516     A.U. after   10 cycles
 SCF Done:  E(RB3LYP) =  -895.420353584     A.U. after   10 cycles
 SCF Done:  E(RB3LYP) =  -895.420362282     A.U. after   10 cycles
 SCF Done:  E(RB3LYP) =  -895.420369070     A.U. after   10 cycles
 SCF Done:  E(RB3LYP) =  -895.420372164     A.U. after   10 cycles
 SCF Done:  E(RB3LYP) =  -895.420372649     A.U. after    8 cycles
 Optimization completed.
    -- Stationary point found.
 Normal termination of Gaussian 16 at Mon Dec 14 17:43:17 2020.

 --------------------------------------------------------------------
 #N Geom=AllCheck Guess=TCheck SCRF=Check GenChk RB3LYP/6-31G(d) Freq
 --------------------------------------------------------------------

 Structure from the checkpoint file:  "JID_10296.chk"
 -------------------------------
 CID_62896087_JID_10296_neutraal
 -------------------------------
 Charge =  0 Multiplicity = 1

 SCF Done:  E(RB3LYP) =  -895.420372649     A.U. after    1 cycles

  Exact polarizability: 207.806   1.277 196.536 -20.056  -1.578 118.872
 Approx polarizability: 296.978  -1.676 359.812 -44.339 -14.380 197.370

                      1                      2                      3
                      A                      A                      A
 Frequencies --     37.6340                40.5260                52.1477
 Red. masses --      4.7453                 6.0848                 5.7760
 Frc consts  --      0.0040                 0.0059                 0.0093
 IR Inten    --      2.1938                 0.2757                 5.3262

                      4                      5                      6
                      A                      A                      A
 Frequencies --     58.8202               109.9867               135.1560
 Red. masses --      6.1164                 5.1864                 6.1910
 Frc consts  --      0.0125                 0.0370                 0.0666
 IR Inten    --      0.0427                 8.0976                 0.1739

                      7                      8                      9
                      A                      A                      A
 Frequencies --    165.5030               177.4837               211.2766
 Red. masses --      3.7885                 4.3172                 3.4422
 Frc consts  --      0.0611                 0.0801                 0.0905
 IR Inten    --      1.7847                 2.9934                 1.9749

                     10                     11                     12
                      A                      A                      A
 Frequencies --    255.5072               284.2696               286.4938
 Red. masses --      4.7508                 2.7251                 4.2790
 Frc consts  --      0.1827                 0.1297                 0.2069
 IR Inten    --      1.6195                 2.3872                 2.7914

                     13                     14                     15
                      A                      A                      A
 Frequencies --    339.1713               357.1591               390.6681
 Red. masses --      3.8745                 6.7690                 2.6630
 Frc consts  --      0.2626                 0.5087                 0.2395
 IR Inten    --      1.0990                10.5306                 0.7199

                     16                     17                     18
                      A                      A                      A
 Frequencies --    403.4509               423.6227               445.0607
 Red. masses --      3.5368                 3.9680                 3.8792
 Frc consts  --      0.3392                 0.4195                 0.4527
 IR Inten    --      4.8552                 6.4454                 1.2865

                     19                     20                     21
                      A                      A                      A
 Frequencies --    480.7822               490.5149               526.3295
 Red. masses --      3.1904                 3.3879                 2.9666
 Frc consts  --      0.4345                 0.4803                 0.4842
 IR Inten    --      1.1146                12.7272                 1.0295

                     22                     23                     24
                      A                      A                      A
 Frequencies --    534.8813               549.1278               595.8018
 Red. masses --      3.1513                 6.9789                 3.8091
 Frc consts  --      0.5312                 1.2399                 0.7967
 IR Inten    --      2.5522                 1.7249                 1.5245

                     25                     26                     27
                      A                      A                      A
 Frequencies --    617.9880               639.3118               654.7053
 Red. masses --      3.9588                 4.2956                 4.0920
 Frc consts  --      0.8908                 1.0344                 1.0334
 IR Inten    --     13.2217                13.6773                 2.1325

                     28                     29                     30
                      A                      A                      A
 Frequencies --    686.6772               732.0692               759.6499
 Red. masses --      5.3236                 3.6654                 4.1797
 Frc consts  --      1.4790                 1.1574                 1.4211
 IR Inten    --      3.9985                 6.9694                15.9133

                     31                     32                     33
                      A                      A                      A
 Frequencies --    780.5846               809.0722               813.8905
 Red. masses --      1.5270                 3.3157                 1.9785
 Frc consts  --      0.5482                 1.2788                 0.7722
 IR Inten    --      6.5291                49.6476                34.0691

                     34                     35                     36
                      A                      A                      A
 Frequencies --    832.6282               838.1317               846.0162
 Red. masses --      5.2789                 2.5717                 3.2741
 Frc consts  --      2.1562                 1.0644                 1.3807
 IR Inten    --      1.7029                13.9157                15.6965

                     37                     38                     39
                      A                      A                      A
 Frequencies --    855.9350               879.6936               920.6046
 Red. masses --      3.1623                 1.7528                 3.1216
 Frc consts  --      1.3650                 0.7992                 1.5587
 IR Inten    --      6.6400                19.8893                 2.1604

                     40                     41                     42
                      A                      A                      A
 Frequencies --    926.0312               931.5859               961.8930
 Red. masses --      1.6834                 1.5155                 1.9265
 Frc consts  --      0.8505                 0.7749                 1.0502
 IR Inten    --     31.3472                 1.3974                74.6947

                     43                     44                     45
                      A                      A                      A
 Frequencies --    971.0816               980.8244               997.0398
 Red. masses --      1.3979                 1.3113                 1.3396
 Frc consts  --      0.7767                 0.7433                 0.7846
 IR Inten    --      0.4044                 0.4862                 0.8592

                     46                     47                     48
                      A                      A                      A
 Frequencies --    999.9073              1026.6827              1056.0127
 Red. masses --      2.9785                 2.2302                 3.7102
 Frc consts  --      1.7546                 1.3850                 2.4377
 IR Inten    --      5.3332                26.1418                 4.5759

                     49                     50                     51
                      A                      A                      A
 Frequencies --   1063.7573              1093.1096              1107.0750
 Red. masses --      2.5850                 2.5854                 2.2542
 Frc consts  --      1.7234                 1.8202                 1.6278
 IR Inten    --      1.3431                14.3390                15.5518

                     52                     53                     54
                      A                      A                      A
 Frequencies --   1137.0629              1165.2121              1178.0471
 Red. masses --      1.8254                 1.4016                 1.5319
 Frc consts  --      1.3905                 1.1212                 1.2526
 IR Inten    --      2.3630                14.9705                22.7167

                     55                     56                     57
                      A                      A                      A
 Frequencies --   1192.5397              1218.0433              1234.8205
 Red. masses --      1.7936                 1.9551                 2.2825
 Frc consts  --      1.5029                 1.7090                 2.0505
 IR Inten    --     12.1243                66.6273               136.5907

                     58                     59                     60
                      A                      A                      A
 Frequencies --   1252.4967              1254.4492              1279.3131
 Red. masses --      1.9947                 1.4772                 1.8120
 Frc consts  --      1.8437                 1.3696                 1.7473
 IR Inten    --     16.6157                26.1532                 2.8091

                     61                     62                     63
                      A                      A                      A
 Frequencies --   1282.4105              1288.1690              1314.1922
 Red. masses --      1.4868                 1.7431                 1.4170
 Frc consts  --      1.4406                 1.7042                 1.4419
 IR Inten    --      5.2384                48.8674                45.8941

                     64                     65                     66
                      A                      A                      A
 Frequencies --   1344.0757              1366.7774              1385.0881
 Red. masses --      1.4667                 3.4762                 1.2880
 Frc consts  --      1.5611                 3.8261                 1.4559
 IR Inten    --     16.7874                 4.2373                24.5833

                     67                     68                     69
                      A                      A                      A
 Frequencies --   1394.9528              1401.7626              1403.1902
 Red. masses --      1.3718                 2.8613                 1.7663
 Frc consts  --      1.5728                 3.3125                 2.0490
 IR Inten    --     12.5367                 6.8128                16.0062

                     70                     71                     72
                      A                      A                      A
 Frequencies --   1432.4540              1460.9687              1474.2981
 Red. masses --      2.0515                 2.4500                 2.0599
 Frc consts  --      2.4802                 3.0811                 2.6380
 IR Inten    --     17.6086               123.5316                22.2522

                     73                     74                     75
                      A                      A                      A
 Frequencies --   1503.6958              1510.6908              1518.9030
 Red. masses --      1.1474                 1.0961                 2.6806
 Frc consts  --      1.5286                 1.4738                 3.6437
 IR Inten    --     53.7674                 7.0560                 2.2488

                     76                     77                     78
                      A                      A                      A
 Frequencies --   1520.4623              1531.8226              1538.5094
 Red. masses --      1.1577                 1.1976                 1.1371
 Frc consts  --      1.5769                 1.6558                 1.5858
 IR Inten    --     16.6493                33.7933                20.3496

                     79                     80                     81
                      A                      A                      A
 Frequencies --   1550.9658              1627.1780              1656.4448
 Red. masses --      3.8566                 6.9160                 5.2298
 Frc consts  --      5.4659                10.7889                 8.4545
 IR Inten    --     22.9591                33.8474                 8.8428

                     82                     83                     84
                      A                      A                      A
 Frequencies --   1669.2159              1733.0902              1829.7052
 Red. masses --      6.2504                11.8332                 8.8957
 Frc consts  --     10.2608                20.9408                17.5466
 IR Inten    --      6.8256               287.0886               236.9244

                     85                     86                     87
                      A                      A                      A
 Frequencies --   3044.3738              3077.8336              3084.9697
 Red. masses --      1.0608                 1.0921                 1.0666
 Frc consts  --      5.7926                 6.0957                 5.9804
 IR Inten    --     17.4084                 3.8082                49.0060

                     88                     89                     90
                      A                      A                      A
 Frequencies --   3087.3219              3096.7855              3140.9873
 Red. masses --      1.0586                 1.0789                 1.1030
 Frc consts  --      5.9450                 6.0963                 6.4114
 IR Inten    --     22.6169                29.7767                11.1711

                     91                     92                     93
                      A                      A                      A
 Frequencies --   3142.3944              3168.6295              3174.9516
 Red. masses --      1.1063                 1.0896                 1.0941
 Frc consts  --      6.4364                 6.4454                 6.4980
 IR Inten    --      7.6373                24.0516                 6.4732

                     94                     95                     96
                      A                      A                      A
 Frequencies --   3186.2991              3189.6143              3202.6162
 Red. masses --      1.0880                 1.0889                 1.0904
 Frc consts  --      6.5083                 6.5272                 6.5896
 IR Inten    --      0.3925                11.4929                12.7132

                     97                     98                     99
                      A                      A                      A
 Frequencies --   3216.1395              3217.8333              3499.0517
 Red. masses --      1.0959                 1.0960                 1.0737
 Frc consts  --      6.6785                 6.6864                 7.7452
 IR Inten    --     18.8419                17.5073                 1.0693

 - Thermochemistry -
 -------------------
 Temperature   298.150 Kelvin.  Pressure   1.00000 Atm.
 Atom     1 has atomic number  6 and mass  12.00000

 Molecular mass:   269.11643 amu.
 Principal axes and moments of inertia in atomic units:
                           1         2         3
     Eigenvalues --  2616.048977940.392568638.88267
           X            0.99999   0.00477   0.00073
           Y           -0.00479   0.99967   0.02513
           Z           -0.00061  -0.02513   0.99968
 This molecule is an asymmetric top.
 Rotational symmetry number  1.
 Warning -- assumption of classical behavior for rotation
           may cause significant error
 Rotational temperatures (Kelvin)      0.03311     0.01091     0.01003
 Rotational constants (GHZ):           0.68987     0.22729     0.20891
 Zero-point vibrational energy     749545.0 (Joules/Mol)
                                  179.14556 (Kcal/Mol)
 Warning -- explicit consideration of  25 degrees of freedom as
           vibrations may cause significant error
 Vibrational temperatures:     54.15    58.31    75.03    84.63   158.25
          (Kelvin)            194.46   238.12   255.36   303.98   367.62
                              409.00   412.20   487.99   513.87   562.08
                              580.48   609.50   640.34   691.74   705.74
                              757.27   769.57   790.07   857.23   889.15
                              919.83   941.97   987.98  1053.28  1092.97
                             1123.09  1164.07  1171.01  1197.97  1205.88
                             1217.23  1231.50  1265.68  1324.54  1332.35
                             1340.34  1383.95  1397.17  1411.19  1434.52
                             1438.64  1477.17  1519.37  1530.51  1572.74
                             1592.83  1635.98  1676.48  1694.95  1715.80
                             1752.49  1776.63  1802.06  1804.87  1840.65
                             1845.10  1853.39  1890.83  1933.83  1966.49
                             1992.83  2007.03  2016.82  2018.88  2060.98
                             2102.01  2121.19  2163.48  2173.55  2185.36
                             2187.61  2203.95  2213.57  2231.49  2341.15
                             2383.25  2401.63  2493.53  2632.54  4380.17
                             4428.32  4438.58  4441.97  4455.58  4519.18
                             4521.20  4558.95  4568.05  4584.37  4589.14
                             4607.85  4627.31  4629.74  5034.35

 Zero-point correction=                           0.285487 (Hartree/Particle)
 Thermal correction to Energy=                    0.301380
 Thermal correction to Enthalpy=                  0.302324
 Thermal correction to Gibbs Free Energy=         0.241155
 Sum of electronic and zero-point Energies=           -895.134886
 Sum of electronic and thermal Energies=              -895.118993
 Sum of electronic and thermal Enthalpies=            -895.118049
 Sum of electronic and thermal Free Energies=         -895.179218

                     E (Thermal)             CV                S
                      KCal/Mol        Cal/Mol-Kelvin    Cal/Mol-Kelvin
 Total                  189.119             63.262            128.742
 Electronic               0.000              0.000              0.000
 Translational            0.889              2.981             42.669
 Rotational               0.889              2.981             33.550
 Vibrational            187.341             57.300             52.523
 Vibration     1          0.594              1.982              5.380
 Vibration     2          0.594              1.981              5.233
 Vibration     3          0.596              1.977              4.734
 Vibration     4          0.596              1.974              4.496
 Vibration     5          0.606              1.941              3.269
 Vibration     6          0.613              1.918              2.871
 Vibration     7          0.624              1.885              2.486
 Vibration     8          0.628              1.870              2.355
 Vibration     9          0.643              1.824              2.033
 Vibration    10          0.666              1.753              1.692
 Vibration    11          0.683              1.703              1.508
 Vibration    12          0.684              1.699              1.495
 Vibration    13          0.719              1.597              1.216
 Vibration    14          0.732              1.561              1.134
 Vibration    15          0.758              1.490              0.998
 Vibration    16          0.769              1.463              0.950
 Vibration    17          0.786              1.419              0.880
 Vibration    18          0.804              1.372              0.811
 Vibration    19          0.837              1.293              0.708
 Vibration    20          0.846              1.271              0.682
 Vibration    21          0.881              1.192              0.595
 Vibration    22          0.890              1.173              0.576
 Vibration    23          0.904              1.142              0.546
 Vibration    24          0.954              1.041              0.457
 Vibration    25          0.978              0.994              0.420

 Optimization completed.
    -- Stationary point found.
 Normal termination of Gaussian 16 at Mon Dec 14 18:05:44 2020.

 ----------------------------------------------------------------------
 # B3LYP/6-311++G(d,p) empiricaldispersion=gd3bj scf=xqc pop=npa geom=c
 heck
 ----------------------------------------------------------------------

 ---------------------------------------
 CID_62896087_JID_10296_Energie_neutraal
 ---------------------------------------
 Structure from the checkpoint file:  "JID_10296.chk"
 Charge =  0 Multiplicity = 1

 SCF Done:  E(RB3LYP) =  -895.661179760     A.U. after   15 cycles
 Normal termination of Gaussian 16 at Mon Dec 14 18:14:54 2020.

 ----------------------------------------------------------------------
 # B3LYP/6-311++G(d,p) empiricaldispersion=gd3bj scf=xqc pop=npa geom=c
 heck
 ----------------------------------------------------------------------

 -------------------------------------
 CID_62896087_JID_10296_Energie_kation
 -------------------------------------
 Structure from the checkpoint file:  "JID_10296.chk"
 Charge =  1 Multiplicity = 2

 SCF Done:  E(UB3LYP) =  -895.353668437     A.U. after   33 cycles
 SCF Done:  E(UB3LYP) =  -895.353948122     a.u. after    7 cycles
 Normal termination of Gaussian 16 at Mon Dec 14 21:43:49 2020.
 Gaussian 16:  ES64L-G16RevA.03 25-Dec-2016

 ----------------------------------------------------------------------
 # B3LYP/6-311++G(d,p) empiricaldispersion=gd3bj scf=xqc pop=npa geom=c
 heck
 ----------------------------------------------------------------------

 ------------------------------------
 CID_62896087_JID_10296_Energie_anion
 ------------------------------------
 Structure from the checkpoint file:  "JID_10296.chk"
 Charge = -1 Multiplicity = 2

                         Standard orientation:
 ---------------------------------------------------------------------
 Center     Atomic      Atomic             Coordinates (Angstroms)
 Number     Number       Type             X           Y           Z
 ---------------------------------------------------------------------
      1          6           0        1.629622    0.539321    1.762680
      2          6           0        3.133417    0.865366    1.668313
      3          7           0        3.593599    0.830963    0.264827
      4          6           0        3.679038   -0.487022   -0.216341
      5          8           0        4.465205   -1.298366    0.230969
      6          6           0        2.552408   -0.866523   -1.174926
      7          7           0        1.292696   -0.475090   -0.535012
      8          6           0        1.174254   -0.676080    0.919605
      9          6           0        0.412814    0.280359   -1.265519
     10          8           0        0.655563    0.652613   -2.411972
     11          6           0       -0.874039    0.720371   -0.612041
     12          6           0       -1.113937    2.077397   -0.515731
     13          6           0       -2.328109    2.574099    0.008421
     14          6           0       -3.319312    1.705040    0.402551
     15          6           0       -3.128284    0.305604    0.286146
     16          6           0       -1.890603   -0.201313   -0.224148
     17          7           0       -1.651756   -1.538144   -0.358781
     18          6           0       -2.605580   -2.376901   -0.009861
     19          6           0       -3.866769   -1.980342    0.500316
     20          6           0       -4.121701   -0.638938    0.648859
     21          1           0        1.043463    1.409272    1.439146
     22          1           0        1.360164    0.357535    2.811296
     23          1           0        3.341590    1.851183    2.095840
     24          1           0        3.735786    0.133878    2.212355
     25          1           0        2.956646    1.377433   -0.311986
     26          1           0        2.590964   -1.945551   -1.349542
     27          1           0        2.608735   -0.342242   -2.132479
     28          1           0        1.767743   -1.560845    1.170532
     29          1           0        0.140026   -0.922701    1.153123
     30          1           0       -0.353919    2.770595   -0.862905
     31          1           0       -2.476885    3.646791    0.085946
     32          1           0       -4.261572    2.076530    0.796912
     33          1           0       -2.382141   -3.435997   -0.130524
     34          1           0       -4.604351   -2.730977    0.765517
     35          1           0       -5.073487   -0.285612    1.037623
 ---------------------------------------------------------------------

 SCF Done:  E(UB3LYP) =  -895.687177463     A.U. after   23 cycles

 The electronic state is 2-A.
 Alpha  occ. eigenvalues --  -19.02008 -18.96933 -14.23512 -14.23422 -14.14647
 Alpha  occ. eigenvalues --  -10.18932 -10.15112 -10.12094 -10.11142 -10.10497
 Alpha  occ. eigenvalues --  -10.08125 -10.06950 -10.05430 -10.04517 -10.03532
 Alpha  occ. eigenvalues --  -10.03425 -10.03216 -10.03164 -10.02831 -10.02659
 Alpha  occ. eigenvalues --   -0.96569  -0.92229  -0.84752  -0.81563  -0.79653
 Alpha  occ. eigenvalues --   -0.70909  -0.69203  -0.66553  -0.63054  -0.60851
 Alpha  occ. eigenvalues --   -0.60162  -0.59946  -0.52840  -0.50446  -0.48943
 Alpha  occ. eigenvalues --   -0.48683  -0.47677  -0.43486  -0.42376  -0.39514
 Alpha  occ. eigenvalues --   -0.38982  -0.38419  -0.37852  -0.36787  -0.36531
 Alpha  occ. eigenvalues --   -0.34669  -0.33561  -0.33069  -0.32059  -0.31217
 Alpha  occ. eigenvalues --   -0.29960  -0.29345  -0.28988  -0.28203  -0.27584
 Alpha  occ. eigenvalues --   -0.27180  -0.27007  -0.25821  -0.25557  -0.25188
 Alpha  occ. eigenvalues --   -0.23190  -0.21056  -0.20814  -0.18584  -0.17179
 Alpha  occ. eigenvalues --   -0.16792  -0.14367  -0.13849  -0.11775  -0.11206
 Alpha  occ. eigenvalues --   -0.10068   0.03174
 Alpha virt. eigenvalues --    0.06653   0.07291   0.08676   0.08979   0.09293
 Alpha virt. eigenvalues --    0.09966   0.10480   0.11007   0.11287   0.11558
 Alpha virt. eigenvalues --    0.11621   0.12181   0.12478   0.13166   0.13890

  Beta  occ. eigenvalues --  -19.02008 -18.96887 -14.23511 -14.23412 -14.14290
  Beta  occ. eigenvalues --  -10.18931 -10.15099 -10.12093 -10.11140 -10.10498
  Beta  occ. eigenvalues --  -10.08126 -10.07011 -10.05268 -10.04621 -10.03517
  Beta  occ. eigenvalues --  -10.03286 -10.03200 -10.02909 -10.02434 -10.02333
  Beta  occ. eigenvalues --   -0.96567  -0.92144  -0.84733  -0.81532  -0.79158
  Beta  occ. eigenvalues --   -0.70491  -0.69186  -0.66026  -0.62872  -0.60585
  Beta  occ. eigenvalues --   -0.59939  -0.59757  -0.52772  -0.49809  -0.48806
  Beta  occ. eigenvalues --   -0.48507  -0.47498  -0.43411  -0.42298  -0.39426
  Beta  occ. eigenvalues --   -0.38618  -0.38384  -0.37776  -0.36710  -0.36358
  Beta  occ. eigenvalues --   -0.34575  -0.33514  -0.33021  -0.32011  -0.31119
  Beta  occ. eigenvalues --   -0.29859  -0.29173  -0.28877  -0.28131  -0.27311
  Beta  occ. eigenvalues --   -0.27098  -0.26547  -0.25566  -0.25504  -0.24879
  Beta  occ. eigenvalues --   -0.23048  -0.20865  -0.19487  -0.18558  -0.16824
  Beta  occ. eigenvalues --   -0.15768  -0.13977  -0.13703  -0.10960  -0.10794
  Beta  occ. eigenvalues --   -0.08231
  Beta virt. eigenvalues --    0.06637   0.07228   0.08646   0.08788   0.09071
  Beta virt. eigenvalues --    0.09321   0.09933   0.10463   0.11002   0.11385
  Beta virt. eigenvalues --    0.11558   0.12139   0.12399   0.12747   0.13121

 Mulliken charges and spin densities:
               1          2
     1  C   -0.520864  -0.007450
     2  C   -0.502731  -0.015594
     3  N    0.005366   0.002417
     4  C   -0.238019  -0.012018
     5  O   -0.274403   0.000270
     6  C   -0.116770   0.000037
     7  N    0.136411   0.005154
     8  C    0.047288   0.010263
     9  C   -0.624493  -0.016663
    10  O   -0.300035   0.012104
    11  C    0.401099   0.124096
    12  C   -0.058700   0.170046
    13  C   -0.344125   0.026872
    14  C   -0.381932   0.238998
    15  C    0.352390  -0.090229
    16  C   -0.587581  -0.046937
    17  N   -0.004780   0.160691
    18  C    0.003993   0.139237
    19  C   -0.562000   0.058854
    20  C    0.099630   0.268161
    21  H    0.215265  -0.003750
    22  H    0.137952   0.002131
    23  H    0.152879   0.018698
    24  H    0.196462  -0.000510
    25  H    0.280981   0.004040
    26  H    0.201267   0.001786
    27  H    0.204001   0.003490
    28  H    0.180686   0.000790
    29  H    0.211342   0.004988
    30  H    0.139555  -0.003885
    31  H    0.119494  -0.000052
    32  H    0.085224  -0.018706
    33  H    0.134030  -0.013294
    34  H    0.106875  -0.000556
    35  H    0.104242  -0.023479
 Sum of Mulliken charges =  -1.00000   1.00000

 Dipole moment (field-independent basis, Debye):
    X=              3.1034    Y=              1.3233    Z=              3.6345  Tot=              4.9590
 Quadrupole moment (field-independent basis, Debye-Ang):
   XX=           -175.5408   YY=           -135.5703   ZZ=           -134.6465
   XY=              4.2275   XZ=             -1.5883   YZ=              3.4242

 Summary of Natural Population Analysis:

                                       Natural Population
                Natural  -----------------------------------------------
    Atom  No    Charge         Core      Valence    Rydberg      Total
 -----------------------------------------------------------------------
      C    1   -0.20796      0.99962     2.20261    0.00573     3.20796
      C    2   -0.08808      0.99962     2.07957    0.00890     3.08808
      N    3   -0.34246      0.99969     2.83061    0.01216     3.84246
      C    4    0.34837      0.99968     1.62813    0.02383     2.65163
      O    5   -0.30146      0.99987     3.29422    0.00738     4.30146
      C    6   -0.13570      0.99956     2.12723    0.00890     3.13570
      N    7   -0.25664      0.99964     2.74539    0.01161     3.75664
      C    8   -0.09295      0.99960     2.08452    0.00883     3.09295
      C    9    0.35803      0.99958     1.61802    0.02436     2.64197
      O   10   -0.32496      0.99988     3.31975    0.00533     4.32496
      C   11   -0.03273      0.99942     2.01951    0.01380     3.03273
      C   12   -0.06238      0.99953     2.05467    0.00818     3.06238
      C   13   -0.11202      0.99957     2.10327    0.00918     3.11202
      C   14   -0.03199      0.99954     2.02379    0.00866     3.03199
      C   15   -0.06376      0.99949     2.05645    0.00782     3.06376
      C   16    0.07892      0.99945     1.90798    0.01365     2.92108
      N   17   -0.20823      0.99968     2.69690    0.01165     3.70823
      C   18    0.06101      0.99962     1.92496    0.01441     2.93899
      C   19   -0.13539      0.99956     2.12688    0.00894     3.13539
      C   20   -0.00509      0.99954     1.99703    0.00853     3.00509
      H   21    0.10660      0.00000     0.39117    0.00224     0.39340
      H   22    0.10024      0.00000     0.39879    0.00097     0.39976
      H   23    0.09354      0.00000     0.40551    0.00095     0.40646
      H   24    0.09982      0.00000     0.39902    0.00116     0.40018
      H   25    0.18190      0.00000     0.31473    0.00337     0.31810
      H   26    0.10480      0.00000     0.39407    0.00113     0.39520
      H   27    0.12567      0.00000     0.37290    0.00143     0.37433
      H   28    0.09691      0.00000     0.40216    0.00093     0.40309
      H   29    0.12500      0.00000     0.37378    0.00121     0.37500
      H   30    0.09316      0.00000     0.40555    0.00130     0.40684
      H   31    0.09033      0.00000     0.40866    0.00101     0.40967
      H   32    0.08548      0.00000     0.41286    0.00166     0.41452
      H   33    0.07618      0.00000     0.42251    0.00132     0.42382
      H   34    0.09110      0.00000     0.40772    0.00118     0.40890
      H   35    0.08475      0.00000     0.41363    0.00162     0.41525
 =======================================================================
   * Total *   -0.00000     19.99215    50.76454    0.24331    71.00000

 Normal termination of Gaussian 16 at Mon Dec 14 22:02:25 2020.
