 Gaussian 16, Revision A.03,

 -----------------------------------------------------------
 # opt freq B3LYP/6-31G(d) empiricaldispersion=gd3bj scf=xqc
 -----------------------------------------------------------

 -------------------------------
 CID_154182688_JID_2274_neutraal
 -------------------------------
 Symbolic Z-matrix:
 Charge =  0 Multiplicity = 1

 SCF Done:  E(RB3LYP) =  -965.649084566     A.U. after   15 cycles
 SCF Done:  E(RB3LYP) =  -965.656159050     A.U. after   13 cycles
 SCF Done:  E(RB3LYP) =  -965.657221461     A.U. after   12 cycles
 SCF Done:  E(RB3LYP) =  -965.657578222     A.U. after   11 cycles
 SCF Done:  E(RB3LYP) =  -965.657632062     A.U. after   10 cycles
 SCF Done:  E(RB3LYP) =  -965.657637353     A.U. after    9 cycles
 Optimization completed.
    -- Stationary point found.
 Normal termination of Gaussian 16 at Wed Dec  9 16:52:07 2020.

 --------------------------------------------------------------------
 #N Geom=AllCheck Guess=TCheck SCRF=Check GenChk RB3LYP/6-31G(d) Freq
 --------------------------------------------------------------------

 Structure from the checkpoint file:  "JID_2274.chk"
 -------------------------------
 CID_154182688_JID_2274_neutraal
 -------------------------------
 Charge =  0 Multiplicity = 1

 SCF Done:  E(RB3LYP) =  -965.657637353     A.U. after    1 cycles

  Exact polarizability: 153.662  -5.265 141.813  -0.002   0.001  40.233
 Approx polarizability: 234.599 -37.428 253.546  -0.001   0.001  61.952

                      1                      2                      3
                      A                      A                      A
 Frequencies --     54.5482                76.5543               124.0019
 Red. masses --      6.0962                 5.3801                10.0316
 Frc consts  --      0.0107                 0.0186                 0.0909
 IR Inten    --     10.1999                 6.4112                 0.1015

                      4                      5                      6
                      A                      A                      A
 Frequencies --    131.4899               173.1315               206.9600
 Red. masses --      6.6249                 5.2242                 1.8118
 Frc consts  --      0.0675                 0.0923                 0.0457
 IR Inten    --     16.4318                 2.6478                91.1252

                      7                      8                      9
                      A                      A                      A
 Frequencies --    264.3109               293.4234               302.2850
 Red. masses --      9.1493                 9.9246                 2.3415
 Frc consts  --      0.3766                 0.5034                 0.1261
 IR Inten    --     13.0595                 1.5069               110.9148

                     10                     11                     12
                      A                      A                      A
 Frequencies --    367.7667               395.9543               460.8290
 Red. masses --      6.5786                 1.1107                10.7678
 Frc consts  --      0.5242                 0.1026                 1.3473
 IR Inten    --      1.8036                10.2445                20.2473

                     13                     14                     15
                      A                      A                      A
 Frequencies --    519.5808               539.7835               586.6494
 Red. masses --      5.5681                 6.4941                 4.7188
 Frc consts  --      0.8857                 1.1148                 0.9568
 IR Inten    --      4.8940                10.4041                14.4059

                     16                     17                     18
                      A                      A                      A
 Frequencies --    618.7987               642.1731               647.1795
 Red. masses --      5.6393                 3.8644                 2.4391
 Frc consts  --      1.2723                 0.9389                 0.6019
 IR Inten    --      0.0185                 6.5788                 0.9585

                     19                     20                     21
                      A                      A                      A
 Frequencies --    682.7864               721.7305               728.6984
 Red. masses --      2.0769                 1.2474                 6.3818
 Frc consts  --      0.5705                 0.3828                 1.9966
 IR Inten    --     24.5661               123.9426                 6.9662

                     22                     23                     24
                      A                      A                      A
 Frequencies --    734.5954               768.0379               827.2751
 Red. masses --      1.7098                 1.6175                 1.6385
 Frc consts  --      0.5436                 0.5622                 0.6607
 IR Inten    --     36.8036                 1.1392                91.6403

                     25                     26                     27
                      A                      A                      A
 Frequencies --    931.8381               955.3222              1023.4507
 Red. masses --      4.9896                 8.2652                 5.1691
 Frc consts  --      2.5527                 4.4443                 3.1901
 IR Inten    --      6.9923                81.2036                35.1566

                     28                     29                     30
                      A                      A                      A
 Frequencies --   1032.5807              1175.9268              1205.8532
 Red. masses --      3.4319                 2.0892                 1.5779
 Frc consts  --      2.1559                 1.7021                 1.3518
 IR Inten    --     23.6339               196.0327               294.8247

                     31                     32                     33
                      A                      A                      A
 Frequencies --   1209.3662              1232.3675              1251.3687
 Red. masses --      1.5007                 1.4390                 3.1219
 Frc consts  --      1.2932                 1.2876                 2.8803
 IR Inten    --      1.7706                 6.3566               134.7057

                     34                     35                     36
                      A                      A                      A
 Frequencies --   1354.1139              1383.8420              1432.0182
 Red. masses --      2.4713                 1.5701                 3.0471
 Frc consts  --      2.6699                 1.7715                 3.6816
 IR Inten    --     88.8097                39.8296               130.3348

                     37                     38                     39
                      A                      A                      A
 Frequencies --   1464.7187              1500.0501              1594.3466
 Red. masses --      3.2982                 2.9488                 2.4877
 Frc consts  --      4.1691                 3.9094                 3.7257
 IR Inten    --     89.8313               164.1971               627.5230

                     40                     41                     42
                      A                      A                      A
 Frequencies --   1662.4770              1754.0020              1806.3430
 Red. masses --      4.5352                 6.0907                 8.9932
 Frc consts  --      7.3852                11.0402                17.2888
 IR Inten    --    115.5814              1182.0393               353.0310

                     43                     44                     45
                      A                      A                      A
 Frequencies --   3214.1009              3256.9093              3606.2014
 Red. masses --      1.0898                 1.0924                 1.0769
 Frc consts  --      6.6333                 6.8272                 8.2511
 IR Inten    --      9.5333                 0.5207               161.1874

                     46                     47                     48
                      A                      A                      A
 Frequencies --   3609.2930              3736.3500              3758.4048
 Red. masses --      1.0796                 1.0656                 1.0656
 Frc consts  --      8.2863                 8.7651                 8.8689
 IR Inten    --     31.1996               201.7958                90.9442

 - Thermochemistry -
 -------------------
 Temperature   298.150 Kelvin.  Pressure   1.00000 Atm.
 Atom     1 has atomic number  6 and mass  12.00000

 Molecular mass:   186.00991 amu.
 Principal axes and moments of inertia in atomic units:
                           1         2         3
     Eigenvalues --  1551.573693380.911324932.48500
           X            0.99999   0.00522  -0.00000
           Y           -0.00522   0.99999   0.00000
           Z            0.00000  -0.00000   1.00000
 This molecule is an asymmetric top.
 Rotational symmetry number  1.
 Warning -- assumption of classical behavior for rotation
           may cause significant error
 Rotational temperatures (Kelvin)      0.05582     0.02562     0.01756
 Rotational constants (GHZ):           1.16317     0.53380     0.36589
 Zero-point vibrational energy     335072.7 (Joules/Mol)
                                   80.08431 (Kcal/Mol)
 Warning -- explicit consideration of  16 degrees of freedom as
           vibrations may cause significant error
 Vibrational temperatures:     78.48   110.14   178.41   189.18   249.10
          (Kelvin)            297.77   380.28   422.17   434.92   529.13
                              569.69   663.03   747.56   776.63   844.06
                              890.31   923.94   931.15   982.38  1038.41
                             1048.43  1056.92  1105.04  1190.26  1340.71
                             1374.50  1472.52  1485.65  1691.90  1734.95
                             1740.01  1773.10  1800.44  1948.27  1991.04
                             2060.35  2107.40  2158.24  2293.91  2391.93
                             2523.62  2598.92  4624.37  4685.97  5188.52
                             5192.97  5375.77  5407.51

 Zero-point correction=                           0.127622 (Hartree/Particle)
 Thermal correction to Energy=                    0.138665
 Thermal correction to Enthalpy=                  0.139609
 Thermal correction to Gibbs Free Energy=         0.089877
 Sum of electronic and zero-point Energies=           -965.530015
 Sum of electronic and thermal Energies=              -965.518972
 Sum of electronic and thermal Enthalpies=            -965.518028
 Sum of electronic and thermal Free Energies=         -965.567760

                     E (Thermal)             CV                S
                      KCal/Mol        Cal/Mol-Kelvin    Cal/Mol-Kelvin
 Total                   87.014             40.909            104.669
 Electronic               0.000              0.000              0.000
 Translational            0.889              2.981             41.568
 Rotational               0.889              2.981             31.626
 Vibrational             85.236             34.947             31.475
 Vibration     1          0.596              1.976              4.645
 Vibration     2          0.599              1.965              3.977
 Vibration     3          0.610              1.929              3.037
 Vibration     4          0.612              1.922              2.924
 Vibration     5          0.627              1.876              2.401
 Vibration     6          0.641              1.830              2.070
 Vibration     7          0.671              1.738              1.633
 Vibration     8          0.688              1.686              1.454
 Vibration     9          0.694              1.669              1.404
 Vibration    10          0.740              1.539              1.089
 Vibration    11          0.763              1.479              0.978
 Vibration    12          0.819              1.337              0.764
 Vibration    13          0.875              1.207              0.611
 Vibration    14          0.895              1.162              0.566
 Vibration    15          0.944              1.060              0.473
 Vibration    16          0.979              0.992              0.418

 Optimization completed.
    -- Stationary point found.
 Normal termination of Gaussian 16 at Wed Dec  9 16:55:50 2020.

 ----------------------------------------------------------------------
 # B3LYP/6-311++G(d,p) empiricaldispersion=gd3bj scf=xqc pop=npa geom=c
 heck
 ----------------------------------------------------------------------

 ---------------------------------------
 CID_154182688_JID_2274_Energie_neutraal
 ---------------------------------------
 Structure from the checkpoint file:  "JID_2274.chk"
 Charge =  0 Multiplicity = 1

 SCF Done:  E(RB3LYP) =  -965.867654000     A.U. after   16 cycles
 Normal termination of Gaussian 16 at Wed Dec  9 16:57:29 2020.

 ----------------------------------------------------------------------
 # B3LYP/6-311++G(d,p) empiricaldispersion=gd3bj scf=xqc pop=npa geom=c
 heck
 ----------------------------------------------------------------------

 -------------------------------------
 CID_154182688_JID_2274_Energie_kation
 -------------------------------------
 Structure from the checkpoint file:  "JID_2274.chk"
 Charge =  1 Multiplicity = 2

 SCF Done:  E(UB3LYP) =  -965.573254325     A.U. after   33 cycles
 SCF Done:  E(UB3LYP) =  -965.574551181     a.u. after    6 cycles
 Normal termination of Gaussian 16 at Wed Dec  9 17:19:51 2020.
 Gaussian 16:  ES64L-G16RevA.03 25-Dec-2016

 ----------------------------------------------------------------------
 # B3LYP/6-311++G(d,p) empiricaldispersion=gd3bj scf=xqc pop=npa geom=c
 heck
 ----------------------------------------------------------------------

 ------------------------------------
 CID_154182688_JID_2274_Energie_anion
 ------------------------------------
 Structure from the checkpoint file:  "JID_2274.chk"
 Charge = -1 Multiplicity = 2

                         Standard orientation:
 ---------------------------------------------------------------------
 Center     Atomic      Atomic             Coordinates (Angstroms)
 Number     Number       Type             X           Y           Z
 ---------------------------------------------------------------------
      1          6           0        0.453069   -1.823108   -0.000010
      2          6           0       -0.424306   -0.774029   -0.000049
      3          7           0        0.074108    0.518735   -0.000084
      4          6           0        1.406828    0.843380   -0.000013
      5         16           0        1.930903    2.429187    0.000070
      6          7           0        2.242786   -0.234039   -0.000043
      7          6           0        1.881030   -1.605987    0.000012
      8          8           0        2.753411   -2.461121    0.000036
      9          6           0       -1.857632   -0.979472   -0.000038
     10          6           0       -2.824610   -0.034261    0.000006
     11          8           0       -4.153954   -0.272724    0.000100
     12          8           0       -2.572000    1.287628   -0.000192
     13          1           0        0.101714   -2.845966    0.000008
     14          1           0       -0.564901    1.303729   -0.000074
     15          1           0        3.236973   -0.037359    0.000008
     16          1           0       -2.177341   -2.015451   -0.000085
     17          1           0       -4.321514   -1.228857    0.000539
     18          1           0       -3.413565    1.774650    0.000369
 ---------------------------------------------------------------------

 SCF Done:  E(UB3LYP) =  -965.878912561     A.U. after   29 cycles

 The electronic state is 2-A.
 Alpha  occ. eigenvalues --  -88.65463 -19.06215 -19.05631 -18.92766 -14.22077
 Alpha  occ. eigenvalues --  -14.20713 -10.14604 -10.14461 -10.11116 -10.06323
 Alpha  occ. eigenvalues --  -10.03497  -9.99709  -7.74270  -5.70691  -5.70060
 Alpha  occ. eigenvalues --   -5.69833  -1.00994  -0.93688  -0.89088  -0.85258
 Alpha  occ. eigenvalues --   -0.77312  -0.67249  -0.62459  -0.58019  -0.53864
 Alpha  occ. eigenvalues --   -0.49718  -0.49385  -0.47272  -0.42865  -0.40236
 Alpha  occ. eigenvalues --   -0.37481  -0.34652  -0.33141  -0.31254  -0.30216
 Alpha  occ. eigenvalues --   -0.29537  -0.28940  -0.26975  -0.25080  -0.24719
 Alpha  occ. eigenvalues --   -0.23919  -0.23361  -0.20243  -0.12737  -0.11348
 Alpha  occ. eigenvalues --   -0.09724  -0.08349  -0.07144   0.05022
 Alpha virt. eigenvalues --    0.06345   0.08730   0.10877   0.11238   0.12274
 Alpha virt. eigenvalues --    0.13632   0.14454   0.14801   0.15198   0.16272
 Alpha virt. eigenvalues --    0.16959   0.16994   0.17735   0.18163   0.18676

  Beta  occ. eigenvalues --  -88.65460 -19.06098 -19.05526 -18.92598 -14.22117
  Beta  occ. eigenvalues --  -14.20515 -10.14497 -10.13790 -10.11007 -10.05824
  Beta  occ. eigenvalues --  -10.03664  -9.99523  -7.74267  -5.70694  -5.70043
  Beta  occ. eigenvalues --   -5.69832  -1.00579  -0.93452  -0.88771  -0.85004
  Beta  occ. eigenvalues --   -0.76974  -0.66717  -0.62011  -0.57721  -0.53265
  Beta  occ. eigenvalues --   -0.49327  -0.49253  -0.47144  -0.42653  -0.39896
  Beta  occ. eigenvalues --   -0.37242  -0.33078  -0.32944  -0.30350  -0.30142
  Beta  occ. eigenvalues --   -0.29384  -0.28674  -0.26801  -0.24820  -0.23911
  Beta  occ. eigenvalues --   -0.23231  -0.22985  -0.18766  -0.11844  -0.11138
  Beta  occ. eigenvalues --   -0.09161  -0.08312  -0.05597
  Beta virt. eigenvalues --    0.06371   0.08735   0.10878   0.11383   0.12264
  Beta virt. eigenvalues --    0.12721   0.13627   0.14451   0.15129   0.15216
  Beta virt. eigenvalues --    0.16292   0.16992   0.17152   0.18054   0.18167

 Mulliken charges and spin densities:
               1          2
     1  C   -0.219123   0.184577
     2  C    0.182204   0.302709
     3  N   -0.144275  -0.022350
     4  C    0.356590   0.057670
     5  S   -0.853896   0.021364
     6  N   -0.311914   0.080668
     7  C   -0.021612   0.089132
     8  O   -0.453458   0.056205
     9  C    0.292086  -0.166229
    10  C   -0.683799   0.354214
    11  O   -0.274698   0.023486
    12  O   -0.329603   0.027767
    13  H    0.131032  -0.009569
    14  H    0.354190   0.000584
    15  H    0.312344  -0.004754
    16  H    0.103898   0.006366
    17  H    0.264384  -0.001026
    18  H    0.295652  -0.000814
 Sum of Mulliken charges =  -1.00000   1.00000

 Dipole moment (field-independent basis, Debye):
    X=             -8.5156    Y=              0.3147    Z=              0.0014  Tot=              8.5214
 Quadrupole moment (field-independent basis, Debye-Ang):
   XX=           -101.8859   YY=           -107.7197   ZZ=            -85.4627
   XY=              6.6028   XZ=             -0.0069   YZ=              0.0006

 Summary of Natural Population Analysis:

                                       Natural Population
                Natural  -----------------------------------------------
    Atom  No    Charge         Core      Valence    Rydberg      Total
 -----------------------------------------------------------------------
      C    1   -0.15970      0.99949     2.15131    0.00890     3.15970
      C    2    0.18402      0.99950     1.80547    0.01101     2.81598
      N    3   -0.29692      0.99961     2.78705    0.01026     3.79692
      C    4    0.16774      0.99968     1.81409    0.01850     2.83226
      S    5   -0.18015      4.99960     3.16533    0.01522     8.18015
      N    6   -0.28541      0.99961     2.77420    0.01160     3.78541
      C    7    0.33537      0.99964     1.64317    0.02182     2.66463
      O    8   -0.32716      0.99988     3.32028    0.00701     4.32716
      C    9   -0.25382      0.99950     2.24541    0.00892     3.25382
      C   10    0.42734      0.99945     1.55712    0.01609     2.57266
      O   11   -0.35176      0.99987     3.34607    0.00583     4.35176
      O   12   -0.34445      0.99986     3.33815    0.00644     4.34445
      H   13    0.09715      0.00000     0.40185    0.00100     0.40285
      H   14    0.21500      0.00000     0.28328    0.00171     0.28500
      H   15    0.19888      0.00000     0.29918    0.00194     0.30112
      H   16    0.09739      0.00000     0.40159    0.00102     0.40261
      H   17    0.23761      0.00000     0.26010    0.00228     0.26239
      H   18    0.23887      0.00000     0.25880    0.00233     0.26113
 =======================================================================
   * Total *    0.00000     15.99569    31.85243    0.15188    48.00000

 Normal termination of Gaussian 16 at Wed Dec  9 17:24:16 2020.
