 Gaussian 16, Revision A.03,

 -----------------------------------------------------------
 # opt freq B3LYP/6-31G(d) empiricaldispersion=gd3bj scf=xqc
 -----------------------------------------------------------

 ------------------------------
 CID_69903501_JID_6790_neutraal
 ------------------------------
 Symbolic Z-matrix:
 Charge =  0 Multiplicity = 1

 SCF Done:  E(RB3LYP) =  -734.382628016     A.U. after   12 cycles
 SCF Done:  E(RB3LYP) =  -734.386252511     A.U. after   10 cycles
 SCF Done:  E(RB3LYP) =  -734.386523118     A.U. after   10 cycles
 SCF Done:  E(RB3LYP) =  -734.386582994     A.U. after   11 cycles
 SCF Done:  E(RB3LYP) =  -734.386621303     A.U. after   10 cycles
 SCF Done:  E(RB3LYP) =  -734.386643936     A.U. after   10 cycles
 SCF Done:  E(RB3LYP) =  -734.386649194     A.U. after    9 cycles
 SCF Done:  E(RB3LYP) =  -734.386650020     A.U. after    8 cycles
 SCF Done:  E(RB3LYP) =  -734.386650142     A.U. after    7 cycles
 SCF Done:  E(RB3LYP) =  -734.386650156     A.U. after    7 cycles
 SCF Done:  E(RB3LYP) =  -734.386650166     A.U. after    6 cycles
 Optimization completed.
    -- Stationary point found.
 Normal termination of Gaussian 16 at Thu Dec 10 23:34:32 2020.

 --------------------------------------------------------------------
 #N Geom=AllCheck Guess=TCheck SCRF=Check GenChk RB3LYP/6-31G(d) Freq
 --------------------------------------------------------------------

 Structure from the checkpoint file:  "JID_6790.chk"
 ------------------------------
 CID_69903501_JID_6790_neutraal
 ------------------------------
 Charge =  0 Multiplicity = 1

 SCF Done:  E(RB3LYP) =  -734.386650166     A.U. after    1 cycles

  Exact polarizability: 156.502  -1.564 130.005   0.288   0.036 122.002
 Approx polarizability: 196.852  -3.356 184.157  -0.280   0.394 183.267

                      1                      2                      3
                      A                      A                      A
 Frequencies --     23.5357                46.1441                79.8398
 Red. masses --      3.3576                 3.7146                 2.7805
 Frc consts  --      0.0011                 0.0047                 0.0104
 IR Inten    --      0.1225                 0.1373                 0.1075

                      4                      5                      6
                      A                      A                      A
 Frequencies --    127.2355               156.4375               186.7824
 Red. masses --      3.2531                 2.7098                 1.4095
 Frc consts  --      0.0310                 0.0391                 0.0290
 IR Inten    --      1.3726                 1.5276                 0.4675

                      7                      8                      9
                      A                      A                      A
 Frequencies --    202.6318               238.9478               272.2973
 Red. masses --      1.7561                 1.5997                 1.8749
 Frc consts  --      0.0425                 0.0538                 0.0819
 IR Inten    --      0.5730                 0.5763                 1.1999

                     10                     11                     12
                      A                      A                      A
 Frequencies --    303.8284               325.8223               350.1662
 Red. masses --      1.8566                 2.4509                 6.5255
 Frc consts  --      0.1010                 0.1533                 0.4714
 IR Inten    --      1.5808                 1.5362                 0.0028

                     13                     14                     15
                      A                      A                      A
 Frequencies --    353.7915               365.9703               401.0224
 Red. masses --      2.0089                 2.2358                 3.4602
 Frc consts  --      0.1482                 0.1764                 0.3279
 IR Inten    --      0.0865                 0.3862                 1.4128

                     16                     17                     18
                      A                      A                      A
 Frequencies --    439.6282               442.9896               452.6098
 Red. masses --      2.4447                 2.7650                 4.3822
 Frc consts  --      0.2784                 0.3197                 0.5289
 IR Inten    --      1.0830                 1.8478                 9.1967

                     19                     20                     21
                      A                      A                      A
 Frequencies --    473.5348               492.7163               566.3240
 Red. masses --      2.1854                 2.4609                 7.2554
 Frc consts  --      0.2887                 0.3520                 1.3710
 IR Inten    --      3.6952                 2.4365                 3.0287

                     22                     23                     24
                      A                      A                      A
 Frequencies --    568.8032               675.9657               712.3663
 Red. masses --      7.8627                 2.7548                 3.7899
 Frc consts  --      1.4988                 0.7416                 1.1331
 IR Inten    --      1.3771                 1.0815                 0.4471

                     25                     26                     27
                      A                      A                      A
 Frequencies --    712.9464               741.1717               769.5335
 Red. masses --      3.7648                 1.3458                 5.3575
 Frc consts  --      1.1275                 0.4356                 1.8693
 IR Inten    --      0.8290                 9.7986                 1.1100

                     28                     29                     30
                      A                      A                      A
 Frequencies --    808.2215               821.1925               846.5740
 Red. masses --      3.3807                 2.2885                 1.8926
 Frc consts  --      1.3011                 0.9093                 0.7992
 IR Inten    --      4.3959                 2.7713                 5.1702

                     31                     32                     33
                      A                      A                      A
 Frequencies --    856.7663               858.7272               911.6198
 Red. masses --      2.6072                 2.4399                 1.8223
 Frc consts  --      1.1276                 1.0601                 0.8923
 IR Inten    --      2.3331                 1.6207                13.6827

                     34                     35                     36
                      A                      A                      A
 Frequencies --    931.8336               940.3801               941.0333
 Red. masses --      1.8525                 2.1412                 2.1151
 Frc consts  --      0.9477                 1.1156                 1.1035
 IR Inten    --      5.3520                12.4207                 4.5352

                     37                     38                     39
                      A                      A                      A
 Frequencies --    944.3435               954.0007               967.4927
 Red. masses --      2.1064                 2.2136                 2.7570
 Frc consts  --      1.1067                 1.1870                 1.5205
 IR Inten    --      5.7926                33.3149                 0.6321

                     40                     41                     42
                      A                      A                      A
 Frequencies --    979.0420               989.5124              1016.6717
 Red. masses --      3.2896                 2.3290                 3.2716
 Frc consts  --      1.8578                 1.3436                 1.9924
 IR Inten    --     65.0446                56.2098                60.1021

                     43                     44                     45
                      A                      A                      A
 Frequencies --   1022.0288              1052.0174              1057.5382
 Red. masses --      1.5931                 1.9190                 1.4414
 Frc consts  --      0.9804                 1.2513                 0.9498
 IR Inten    --      0.0124                20.8300                 6.4963

                     46                     47                     48
                      A                      A                      A
 Frequencies --   1075.3525              1082.6655              1085.8645
 Red. masses --      3.2211                 1.8129                 1.8653
 Frc consts  --      2.1946                 1.2520                 1.2959
 IR Inten    --     11.3255                 9.8005                15.2840

                     49                     50                     51
                      A                      A                      A
 Frequencies --   1100.7702              1148.7281              1149.2236
 Red. masses --      2.1313                 1.0196                 2.0617
 Frc consts  --      1.5216                 0.7927                 1.6043
 IR Inten    --      9.2775                 0.0121                47.6589

                     52                     53                     54
                      A                      A                      A
 Frequencies --   1170.0608              1176.8405              1179.9847
 Red. masses --      2.2398                 2.4545                 2.6911
 Frc consts  --      1.8066                 2.0028                 2.2077
 IR Inten    --      6.9347                60.6147               155.7779

                     55                     56                     57
                      A                      A                      A
 Frequencies --   1243.6088              1243.9055              1258.8403
 Red. masses --      1.1360                 1.1359                 1.4145
 Frc consts  --      1.0351                 1.0355                 1.3207
 IR Inten    --      9.1411                11.0355                21.2782

                     58                     59                     60
                      A                      A                      A
 Frequencies --   1279.4860              1289.9565              1307.4232
 Red. masses --      1.3562                 2.0726                 1.8103
 Frc consts  --      1.3082                 2.0320                 1.8232
 IR Inten    --      1.3102                 0.0065                57.4103

                     61                     62                     63
                      A                      A                      A
 Frequencies --   1326.4616              1351.4770              1352.4309
 Red. masses --      1.3136                 1.8618                 1.9206
 Frc consts  --      1.3618                 2.0035                 2.0697
 IR Inten    --     18.2518                32.0453                34.2713

                     64                     65                     66
                      A                      A                      A
 Frequencies --   1362.4480              1368.4766              1380.5761
 Red. masses --      1.4097                 1.3421                 1.5094
 Frc consts  --      1.5417                 1.4808                 1.6950
 IR Inten    --     15.8399                 0.0004                 0.5804

                     67                     68                     69
                      A                      A                      A
 Frequencies --   1390.3691              1394.3781              1395.8625
 Red. masses --      1.4021                 1.4080                 1.4052
 Frc consts  --      1.5970                 1.6129                 1.6131
 IR Inten    --     12.2145                43.2469                 4.0431

                     70                     71                     72
                      A                      A                      A
 Frequencies --   1400.4636              1410.1744              1415.9287
 Red. masses --      1.3680                 1.4834                 1.4759
 Frc consts  --      1.5809                 1.7381                 1.7434
 IR Inten    --      6.8217                 1.7240                 0.7966

                     73                     74                     75
                      A                      A                      A
 Frequencies --   1416.4705              1428.5135              1437.6095
 Red. masses --      1.4711                 1.5203                 1.3253
 Frc consts  --      1.7391                 1.8279                 1.6138
 IR Inten    --      0.2267                16.7171                 5.4379

                     76                     77                     78
                      A                      A                      A
 Frequencies --   1447.5540              1497.8620              1498.1125
 Red. masses --      1.2557                 1.1064                 1.1059
 Frc consts  --      1.5503                 1.4625                 1.4623
 IR Inten    --      7.5309                 3.3923                 3.6445

                     79                     80                     81
                      A                      A                      A
 Frequencies --   1512.7853              1515.4793              1524.1748
 Red. masses --      1.0689                 1.1003                 1.0571
 Frc consts  --      1.4413                 1.4889                 1.4469
 IR Inten    --      0.6149                 9.6345                 4.4589

                     82                     83                     84
                      A                      A                      A
 Frequencies --   1527.8427              1531.0388              1535.2773
 Red. masses --      1.0574                 1.0738                 1.0587
 Frc consts  --      1.4542                 1.4830                 1.4702
 IR Inten    --      3.6784                 1.3171                 0.5914

                     85                     86                     87
                      A                      A                      A
 Frequencies --   1542.2313              1550.4654              3027.0756
 Red. masses --      1.0668                 1.0632                 1.0624
 Frc consts  --      1.4950                 1.5059                 5.7359
 IR Inten    --     15.5204                 2.2574                26.7111

                     88                     89                     90
                      A                      A                      A
 Frequencies --   3034.8450              3042.6079              3057.9907
 Red. masses --      1.0642                 1.0386                 1.0852
 Frc consts  --      5.7748                 5.6648                 5.9789
 IR Inten    --     23.4623                24.4326                14.1007

                     91                     92                     93
                      A                      A                      A
 Frequencies --   3059.8892              3059.9466              3062.4523
 Red. masses --      1.0624                 1.0624                 1.0704
 Frc consts  --      5.8609                 5.8611                 5.9150
 IR Inten    --      9.2730                 9.2806                23.3197

                     94                     95                     96
                      A                      A                      A
 Frequencies --   3065.3621              3065.9475              3068.0934
 Red. masses --      1.0607                 1.0620                 1.0827
 Frc consts  --      5.8720                 5.8817                 6.0047
 IR Inten    --     51.2221                11.9429                57.1275

                     97                     98                     99
                      A                      A                      A
 Frequencies --   3078.8104              3100.5799              3100.7862
 Red. masses --      1.0818                 1.0882                 1.0882
 Frc consts  --      6.0420                 6.1636                 6.1645
 IR Inten    --     27.1983                56.5718                55.9621

                    100                    101                    102
                      A                      A                      A
 Frequencies --   3103.5543              3105.3627              3115.2149
 Red. masses --      1.0911                 1.1011                 1.1012
 Frc consts  --      6.1919                 6.2560                 6.2965
 IR Inten    --     46.7148                46.5673                 8.4253

                    103                    104                    105
                      A                      A                      A
 Frequencies --   3115.4950              3115.6381              3118.9415
 Red. masses --      1.1014                 1.1006                 1.1036
 Frc consts  --      6.2987                 6.2948                 6.3253
 IR Inten    --     21.5010                68.4456                23.7920

                    106                    107                    108
                      A                      A                      A
 Frequencies --   3123.6838              3129.5372              3149.1954
 Red. masses --      1.0996                 1.1020                 1.1014
 Frc consts  --      6.3217                 6.3589                 6.4356
 IR Inten    --     27.3385                32.1264                19.7806

 - Thermochemistry -
 -------------------
 Temperature   298.150 Kelvin.  Pressure   1.00000 Atm.
 Atom     1 has atomic number  6 and mass  12.00000

 Molecular mass:   226.15689 amu.
 Principal axes and moments of inertia in atomic units:
                           1         2         3
     Eigenvalues --  1726.548054965.671355395.66005
           X            1.00000   0.00084  -0.00229
           Y           -0.00083   0.99999   0.00355
           Z            0.00230  -0.00355   0.99999
 This molecule is an asymmetric top.
 Rotational symmetry number  1.
 Warning -- assumption of classical behavior for rotation
           may cause significant error
 Rotational temperatures (Kelvin)      0.05017     0.01744     0.01605
 Rotational constants (GHZ):           1.04529     0.36344     0.33448
 Zero-point vibrational energy     900729.6 (Joules/Mol)
                                  215.27953 (Kcal/Mol)
 Warning -- explicit consideration of  22 degrees of freedom as
           vibrations may cause significant error
 Vibrational temperatures:     33.86    66.39   114.87   183.06   225.08
          (Kelvin)            268.74   291.54   343.79   391.78   437.14
                              468.79   503.81   509.03   526.55   576.98
                              632.53   637.36   651.20   681.31   708.91
                              814.81   818.38   972.56  1024.94  1025.77
                             1066.38  1107.19  1162.85  1181.51  1218.03
                             1232.70  1235.52  1311.62  1340.70  1353.00
                             1353.94  1358.70  1372.59  1392.01  1408.62
                             1423.69  1462.76  1470.47  1513.62  1521.56
                             1547.19  1557.71  1562.32  1583.76  1652.76
                             1653.48  1683.46  1693.21  1697.73  1789.28
                             1789.70  1811.19  1840.90  1855.96  1881.09
                             1908.48  1944.47  1945.85  1960.26  1968.93
                             1986.34  2000.43  2006.20  2008.33  2014.95
                             2028.93  2037.21  2037.99  2055.31  2068.40
                             2082.71  2155.09  2155.45  2176.56  2180.44
                             2192.95  2198.22  2202.82  2208.92  2218.93
                             2230.77  4355.29  4366.47  4377.63  4399.77
                             4402.50  4402.58  4406.19  4410.37  4411.21
                             4414.30  4429.72  4461.04  4461.34  4465.32
                             4467.92  4482.10  4482.50  4482.71  4487.46
                             4494.28  4502.71  4530.99

 Zero-point correction=                           0.343070 (Hartree/Particle)
 Thermal correction to Energy=                    0.357474
 Thermal correction to Enthalpy=                  0.358418
 Thermal correction to Gibbs Free Energy=         0.301624
 Sum of electronic and zero-point Energies=           -734.043580
 Sum of electronic and thermal Energies=              -734.029176
 Sum of electronic and thermal Enthalpies=            -734.028232
 Sum of electronic and thermal Free Energies=         -734.085027

                     E (Thermal)             CV                S
                      KCal/Mol        Cal/Mol-Kelvin    Cal/Mol-Kelvin
 Total                  224.318             59.141            119.534
 Electronic               0.000              0.000              0.000
 Translational            0.889              2.981             42.151
 Rotational               0.889              2.981             32.203
 Vibrational            222.541             53.180             45.180
 Vibration     1          0.593              1.985              6.311
 Vibration     2          0.595              1.979              4.976
 Vibration     3          0.600              1.963              3.895
 Vibration     4          0.611              1.926              2.987
 Vibration     5          0.620              1.895              2.592
 Vibration     6          0.632              1.858              2.260
 Vibration     7          0.639              1.836              2.109
 Vibration     8          0.657              1.781              1.811
 Vibration     9          0.675              1.724              1.582
 Vibration    10          0.695              1.666              1.396
 Vibration    11          0.710              1.624              1.281
 Vibration    12          0.727              1.575              1.165
 Vibration    13          0.730              1.567              1.149
 Vibration    14          0.739              1.542              1.097
 Vibration    15          0.767              1.468              0.959
 Vibration    16          0.800              1.384              0.828
 Vibration    17          0.803              1.376              0.817
 Vibration    18          0.811              1.355              0.788
 Vibration    19          0.830              1.309              0.728
 Vibration    20          0.848              1.266              0.677
 Vibration    21          0.922              1.104              0.511
 Vibration    22          0.925              1.099              0.507

 Optimization completed.
    -- Stationary point found.
 Normal termination of Gaussian 16 at Thu Dec 10 23:49:28 2020.

 ----------------------------------------------------------------------
 # B3LYP/6-311++G(d,p) empiricaldispersion=gd3bj scf=xqc pop=npa geom=c
 heck
 ----------------------------------------------------------------------

 --------------------------------------
 CID_69903501_JID_6790_Energie_neutraal
 --------------------------------------
 Structure from the checkpoint file:  "JID_6790.chk"
 Charge =  0 Multiplicity = 1

 SCF Done:  E(RB3LYP) =  -734.586862839     A.U. after   13 cycles
 Normal termination of Gaussian 16 at Thu Dec 10 23:55:15 2020.

 ----------------------------------------------------------------------
 # B3LYP/6-311++G(d,p) empiricaldispersion=gd3bj scf=xqc pop=npa geom=c
 heck
 ----------------------------------------------------------------------

 ------------------------------------
 CID_69903501_JID_6790_Energie_kation
 ------------------------------------
 Structure from the checkpoint file:  "JID_6790.chk"
 Charge =  1 Multiplicity = 2

 SCF Done:  E(UB3LYP) =  -734.255506312     A.U. after   28 cycles
 Normal termination of Gaussian 16 at Fri Dec 11 00:12:27 2020.
 Gaussian 16:  ES64L-G16RevA.03 25-Dec-2016

 ----------------------------------------------------------------------
 # B3LYP/6-311++G(d,p) empiricaldispersion=gd3bj scf=xqc pop=npa geom=c
 heck
 ----------------------------------------------------------------------

 -----------------------------------
 CID_69903501_JID_6790_Energie_anion
 -----------------------------------
 Structure from the checkpoint file:  "JID_6790.chk"
 Charge = -1 Multiplicity = 2

                         Standard orientation:
 ---------------------------------------------------------------------
 Center     Atomic      Atomic             Coordinates (Angstroms)
 Number     Number       Type             X           Y           Z
 ---------------------------------------------------------------------
      1          6           0        3.636976    1.844658   -0.360580
      2          6           0        4.021139    0.363902   -0.445531
      3          6           0        3.482856   -0.485542    0.717318
      4          6           0        1.965201   -0.393062    0.937277
      5          6           0        1.121870   -0.793896   -0.286604
      6          6           0        1.165749   -2.301256   -0.557975
      7          6           0       -0.314149   -0.303693   -0.132574
      8          8           0       -0.288014    1.109949   -0.012860
      9          6           0       -1.610139    1.660071    0.135586
     10          6           0       -2.239799    1.065583    1.401778
     11          6           0       -2.240124   -0.458492    1.230197
     12          8           0       -0.881524   -0.887435    1.023235
     13          6           0       -3.066992   -0.880806    0.009495
     14          6           0       -2.414218   -0.235201   -1.219383
     15          6           0       -2.423299    1.294939   -1.112615
     16          8           0       -1.044810   -0.674613   -1.287059
     17          1           0        2.553898    1.985231   -0.443496
     18          1           0        4.111222    2.421368   -1.162812
     19          1           0        3.955409    2.278688    0.595798
     20          1           0        3.668402   -0.047157   -1.400809
     21          1           0        5.115018    0.270564   -0.467059
     22          1           0        3.778865   -1.531269    0.561185
     23          1           0        3.978363   -0.167264    1.645245
     24          1           0        1.681459   -1.031812    1.782131
     25          1           0        1.703373    0.628932    1.224764
     26          1           0        1.490964   -0.262675   -1.171046
     27          1           0        0.763454   -2.854516    0.296886
     28          1           0        0.576572   -2.558958   -1.441207
     29          1           0        2.196708   -2.629638   -0.724056
     30          1           0       -1.468499    2.740263    0.224253
     31          1           0       -3.258676    1.444285    1.547437
     32          1           0       -1.638508    1.337352    2.274738
     33          1           0       -2.571920   -0.967311    2.138906
     34          1           0       -3.044257   -1.970203   -0.091057
     35          1           0       -4.110857   -0.560743    0.112681
     36          1           0       -2.876608   -0.577918   -2.148645
     37          1           0       -3.448544    1.677400   -1.039309
     38          1           0       -1.951477    1.728952   -1.999379
 ---------------------------------------------------------------------

 SCF Done:  E(UB3LYP) =  -734.575408099     A.U. after   27 cycles

 The electronic state is 2-A.
 Alpha  occ. eigenvalues --  -19.02858 -19.02783 -19.02765 -10.21733 -10.12601
 Alpha  occ. eigenvalues --  -10.12579 -10.12549 -10.07872 -10.07835 -10.07541
 Alpha  occ. eigenvalues --  -10.06848 -10.06717 -10.06686 -10.06648 -10.06386
 Alpha  occ. eigenvalues --  -10.06053  -1.01245  -0.91353  -0.91228  -0.75121
 Alpha  occ. eigenvalues --   -0.71629  -0.67760  -0.64034  -0.64002  -0.61764
 Alpha  occ. eigenvalues --   -0.57943  -0.55441  -0.53345  -0.53034  -0.50220
 Alpha  occ. eigenvalues --   -0.46033  -0.43763  -0.40259  -0.39604  -0.38621
 Alpha  occ. eigenvalues --   -0.37408  -0.35975  -0.35634  -0.35561  -0.35446
 Alpha  occ. eigenvalues --   -0.33360  -0.33122  -0.31952  -0.31206  -0.31152
 Alpha  occ. eigenvalues --   -0.30644  -0.29131  -0.28923  -0.27883  -0.25995
 Alpha  occ. eigenvalues --   -0.25384  -0.24765  -0.24685  -0.24186  -0.23819
 Alpha  occ. eigenvalues --   -0.23182  -0.22345  -0.22065  -0.21655  -0.17221
 Alpha  occ. eigenvalues --   -0.17104  -0.15838   0.04246
 Alpha virt. eigenvalues --    0.05865   0.07257   0.07436   0.08166   0.08284
 Alpha virt. eigenvalues --    0.08431   0.09826   0.10032   0.10166   0.10884
 Alpha virt. eigenvalues --    0.11170   0.11289   0.11572   0.12787   0.12869

  Beta  occ. eigenvalues --  -19.02854 -19.02780 -19.02763 -10.21733 -10.12591
  Beta  occ. eigenvalues --  -10.12569 -10.12538 -10.07866 -10.07833 -10.07536
  Beta  occ. eigenvalues --  -10.06836 -10.06689 -10.06658 -10.06620 -10.06382
  Beta  occ. eigenvalues --  -10.06046  -1.01234  -0.91341  -0.91218  -0.75091
  Beta  occ. eigenvalues --   -0.71612  -0.67745  -0.63989  -0.63956  -0.61748
  Beta  occ. eigenvalues --   -0.57925  -0.55420  -0.53308  -0.52998  -0.50199
  Beta  occ. eigenvalues --   -0.46006  -0.43696  -0.40232  -0.39583  -0.38591
  Beta  occ. eigenvalues --   -0.37393  -0.35946  -0.35587  -0.35513  -0.35422
  Beta  occ. eigenvalues --   -0.33342  -0.33096  -0.31922  -0.31179  -0.31118
  Beta  occ. eigenvalues --   -0.30623  -0.29119  -0.28910  -0.27859  -0.25982
  Beta  occ. eigenvalues --   -0.25370  -0.24741  -0.24661  -0.24167  -0.23797
  Beta  occ. eigenvalues --   -0.23157  -0.22334  -0.22050  -0.21639  -0.17196
  Beta  occ. eigenvalues --   -0.17079  -0.15826
  Beta virt. eigenvalues --    0.05909   0.07036   0.07452   0.07717   0.08757
  Beta virt. eigenvalues --    0.08826   0.08973   0.10101   0.10229   0.10744
  Beta virt. eigenvalues --    0.11090   0.11449   0.11547   0.11985   0.13035

 Mulliken charges and spin densities:
               1          2
     1  C   -0.116308  -0.516994
     2  C   -0.411931   0.251648
     3  C   -0.236952  -0.200016
     4  C    0.342279  -0.224302
     5  C   -0.523369   0.288376
     6  C   -0.333412  -0.241939
     7  C   -0.144189  -1.314914
     8  O    0.059872   0.000333
     9  C   -1.028148   1.556379
    10  C    1.817485  -2.605242
    11  C   -1.112262   1.719514
    12  O    0.083002   0.008595
    13  C    1.791247  -2.533857
    14  C   -1.347949   1.820039
    15  C    1.981548  -2.677349
    16  O    0.037299   0.003872
    17  H    0.100941   0.091236
    18  H   -0.041796   0.162961
    19  H    0.040953   0.081264
    20  H    0.062984   0.076641
    21  H   -0.034939   0.192128
    22  H    0.124234  -0.009052
    23  H    0.029937   0.126038
    24  H    0.134451   0.038471
    25  H    0.214088  -0.036546
    26  H    0.257217  -0.020402
    27  H    0.115107   0.051820
    28  H    0.094227   0.053688
    29  H    0.078240   0.056446
    30  H   -0.425495   0.672110
    31  H   -0.577347   0.772408
    32  H   -0.006070   0.152579
    33  H   -0.440118   0.691242
    34  H    0.098241   0.058362
    35  H   -0.709847   0.893897
    36  H   -0.450615   0.701113
    37  H   -0.519897   0.706205
    38  H   -0.002708   0.153248
 Sum of Mulliken charges =  -1.00000   1.00000

 Dipole moment (field-independent basis, Debye):
    X=              8.4055    Y=             -2.9215    Z=             -0.3805  Tot=              8.9068
 Quadrupole moment (field-independent basis, Debye-Ang):
   XX=           -189.1051   YY=           -140.4219   ZZ=           -135.6987
   XY=              5.1069   XZ=              2.8110   YZ=             -0.0424

 Summary of Natural Population Analysis:

                                       Natural Population
                Natural  -----------------------------------------------
    Atom  No    Charge         Core      Valence    Rydberg      Total
 -----------------------------------------------------------------------
      C    1   -0.29074      0.99967     2.28647    0.00460     3.29074
      C    2   -0.19125      0.99964     2.18485    0.00676     3.19125
      C    3   -0.18611      0.99963     2.17922    0.00725     3.18611
      C    4   -0.19176      0.99961     2.18395    0.00820     3.19176
      C    5   -0.13131      0.99951     2.11937    0.01242     3.13131
      C    6   -0.28496      0.99965     2.28029    0.00502     3.28496
      C    7    0.44189      0.99957     1.52789    0.03066     2.55811
      O    8   -0.31523      0.99986     3.30746    0.00791     4.31523
      C    9    0.06492      0.99954     1.91915    0.01639     2.93508
      C   10   -0.21342      0.99959     2.20411    0.00972     3.21342
      C   11    0.06510      0.99954     1.91928    0.01609     2.93490
      O   12   -0.31580      0.99986     3.30819    0.00775     4.31580
      C   13   -0.21346      0.99959     2.20414    0.00973     3.21346
      C   14    0.06504      0.99954     1.91925    0.01617     2.93496
      C   15   -0.21343      0.99959     2.20417    0.00967     3.21343
      O   16   -0.31407      0.99986     3.30632    0.00790     4.31407
      H   17    0.10598      0.00000     0.39281    0.00121     0.39402
      H   18    0.09603      0.00000     0.40295    0.00103     0.40397
      H   19    0.09341      0.00000     0.40540    0.00119     0.40659
      H   20    0.09282      0.00000     0.40599    0.00118     0.40718
      H   21    0.09243      0.00000     0.40645    0.00111     0.40757
      H   22    0.09326      0.00000     0.40557    0.00117     0.40674
      H   23    0.09354      0.00000     0.40534    0.00112     0.40646
      H   24    0.10196      0.00000     0.39687    0.00118     0.39804
      H   25    0.10847      0.00000     0.38993    0.00160     0.39153
      H   26    0.10443      0.00000     0.39307    0.00250     0.39557
      H   27    0.10221      0.00000     0.39676    0.00103     0.39779
      H   28    0.10789      0.00000     0.39119    0.00093     0.39211
      H   29    0.09434      0.00000     0.40484    0.00082     0.40566
      H   30    0.09758      0.00000     0.40093    0.00149     0.40242
      H   31    0.10995      0.00000     0.38696    0.00309     0.39005
      H   32    0.10562      0.00000     0.39304    0.00134     0.39438
      H   33    0.09693      0.00000     0.40157    0.00150     0.40307
      H   34    0.10530      0.00000     0.39339    0.00131     0.39470
      H   35    0.11003      0.00000     0.38688    0.00309     0.38997
      H   36    0.09704      0.00000     0.40146    0.00149     0.40296
      H   37    0.10963      0.00000     0.38737    0.00299     0.39037
      H   38    0.10574      0.00000     0.39295    0.00131     0.39426
 =======================================================================
   * Total *    0.00000     15.99423    45.79584    0.20993    62.00000

 Normal termination of Gaussian 16 at Fri Dec 11 00:28:47 2020.
