 Gaussian 16, Revision A.03,

 -----------------------------------------------------------
 # opt freq B3LYP/6-31G(d) empiricaldispersion=gd3bj scf=xqc
 -----------------------------------------------------------

 ------------------------------
 CID_28584316_JID_7025_neutraal
 ------------------------------
 Symbolic Z-matrix:
 Charge =  0 Multiplicity = 1

 SCF Done:  E(RB3LYP) =  -731.554717096     A.U. after   15 cycles
 SCF Done:  E(RB3LYP) =  -731.558094973     A.U. after   12 cycles
 SCF Done:  E(RB3LYP) =  -731.558009514     A.U. after   12 cycles
 SCF Done:  E(RB3LYP) =  -731.558442287     A.U. after   12 cycles
 SCF Done:  E(RB3LYP) =  -731.558850346     A.U. after   11 cycles
 SCF Done:  E(RB3LYP) =  -731.558931792     A.U. after   11 cycles
 SCF Done:  E(RB3LYP) =  -731.558989793     A.U. after   11 cycles
 SCF Done:  E(RB3LYP) =  -731.559060037     A.U. after   11 cycles
 SCF Done:  E(RB3LYP) =  -731.559089127     A.U. after   12 cycles
 SCF Done:  E(RB3LYP) =  -731.559115998     A.U. after    9 cycles
 SCF Done:  E(RB3LYP) =  -731.561822107     A.U. after   10 cycles
 SCF Done:  E(RB3LYP) =  -731.561829167     A.U. after   10 cycles
 SCF Done:  E(RB3LYP) =  -731.561831959     A.U. after    9 cycles
 SCF Done:  E(RB3LYP) =  -731.561832040     A.U. after    8 cycles
 SCF Done:  E(RB3LYP) =  -731.561832130     A.U. after    8 cycles
 Optimization completed.
    -- Stationary point found.
 Normal termination of Gaussian 16 at Mon Dec 14 17:07:28 2020.

 --------------------------------------------------------------------
 #N Geom=AllCheck Guess=TCheck SCRF=Check GenChk RB3LYP/6-31G(d) Freq
 --------------------------------------------------------------------

 Structure from the checkpoint file:  "JID_7025.chk"
 ------------------------------
 CID_28584316_JID_7025_neutraal
 ------------------------------
 Charge =  0 Multiplicity = 1

 SCF Done:  E(RB3LYP) =  -731.561832130     A.U. after    1 cycles

  Exact polarizability: 193.629 -21.987 137.784   3.772   6.301 148.866
 Approx polarizability: 283.372 -49.558 200.178   9.319  13.394 239.424

                      1                      2                      3
                      A                      A                      A
 Frequencies --     27.7048                32.8324                44.9545
 Red. masses --      3.7533                 3.1149                 3.6514
 Frc consts  --      0.0017                 0.0020                 0.0043
 IR Inten    --      0.8089                 0.4075                 1.0335

                      4                      5                      6
                      A                      A                      A
 Frequencies --     54.6131                67.4007                70.9147
 Red. masses --      5.3550                 3.9402                 3.0610
 Frc consts  --      0.0094                 0.0105                 0.0091
 IR Inten    --      0.8191                 0.7672                 0.2865

                      7                      8                      9
                      A                      A                      A
 Frequencies --     90.9477               133.1802               166.8790
 Red. masses --      3.0138                 3.2103                 2.9480
 Frc consts  --      0.0147                 0.0335                 0.0484
 IR Inten    --      0.0685                 4.9137                 0.4344

                     10                     11                     12
                      A                      A                      A
 Frequencies --    194.4992               220.9571               224.3643
 Red. masses --      3.5731                 1.1031                 1.9115
 Frc consts  --      0.0796                 0.0317                 0.0567
 IR Inten    --      0.3341                 0.2884                 0.2374

                     13                     14                     15
                      A                      A                      A
 Frequencies --    235.7702               254.8988               276.8183
 Red. masses --      1.4386                 1.5203                 3.0870
 Frc consts  --      0.0471                 0.0582                 0.1394
 IR Inten    --      0.3738                 0.7155                 2.3014

                     16                     17                     18
                      A                      A                      A
 Frequencies --    304.8404               313.4969               351.8691
 Red. masses --      2.0183                 3.0735                 2.5405
 Frc consts  --      0.1105                 0.1780                 0.1853
 IR Inten    --      0.9795                 4.7494                 0.8913

                     19                     20                     21
                      A                      A                      A
 Frequencies --    365.4826               423.6682               431.8986
 Red. masses --      2.5961                 2.4108                 2.1936
 Frc consts  --      0.2043                 0.2550                 0.2411
 IR Inten    --      8.9793                 3.2238                18.4633

                     22                     23                     24
                      A                      A                      A
 Frequencies --    435.0412               451.0756               464.2169
 Red. masses --      1.4256                 2.4179                 3.1222
 Frc consts  --      0.1590                 0.2899                 0.3964
 IR Inten    --     72.6165                12.9207                 0.6767

                     25                     26                     27
                      A                      A                      A
 Frequencies --    470.9514               530.0914               573.5684
 Red. masses --      2.4635                 4.2819                 4.4605
 Frc consts  --      0.3219                 0.7089                 0.8646
 IR Inten    --      8.6636                 1.3229                 1.4190

                     28                     29                     30
                      A                      A                      A
 Frequencies --    597.4859               639.5552               646.2198
 Red. masses --      2.2905                 2.3928                 2.0651
 Frc consts  --      0.4818                 0.5766                 0.5081
 IR Inten    --     63.5153                36.3091                44.3646

                     31                     32                     33
                      A                      A                      A
 Frequencies --    713.3150               721.5868               752.2976
 Red. masses --      2.4453                 3.2189                 4.5265
 Frc consts  --      0.7331                 0.9875                 1.5093
 IR Inten    --     14.7017                12.9610                14.0834

                     34                     35                     36
                      A                      A                      A
 Frequencies --    786.6143               802.7633               824.7143
 Red. masses --      1.4748                 1.2068                 2.9499
 Frc consts  --      0.5377                 0.4582                 1.1821
 IR Inten    --     29.7666                 4.0466                12.3468

                     37                     38                     39
                      A                      A                      A
 Frequencies --    842.5118               856.8621               864.5244
 Red. masses --      2.5762                 1.5703                 1.4163
 Frc consts  --      1.0774                 0.6793                 0.6237
 IR Inten    --     11.9400                 8.8535                 1.1855

                     40                     41                     42
                      A                      A                      A
 Frequencies --    907.0613               924.9871               942.2196
 Red. masses --      1.8239                 2.2981                 1.2476
 Frc consts  --      0.8841                 1.1585                 0.6526
 IR Inten    --     12.5562                 2.8078                 1.7216

                     43                     44                     45
                      A                      A                      A
 Frequencies --    959.5162               966.3036               981.1570
 Red. masses --      1.2583                 1.7968                 1.4560
 Frc consts  --      0.6826                 0.9885                 0.8258
 IR Inten    --      0.5635                 0.8189                 0.1285

                     46                     47                     48
                      A                      A                      A
 Frequencies --    993.8294              1011.4301              1024.5067
 Red. masses --      2.2453                 4.4055                 2.2639
 Frc consts  --      1.3066                 2.6553                 1.4000
 IR Inten    --      0.9499                 2.2586                 7.5576

                     49                     50                     51
                      A                      A                      A
 Frequencies --   1089.8706              1096.3555              1101.9450
 Red. masses --      1.7613                 1.7070                 2.7396
 Frc consts  --      1.2326                 1.2089                 1.9600
 IR Inten    --      8.1033                 5.5796                18.5481

                     52                     53                     54
                      A                      A                      A
 Frequencies --   1112.7470              1142.3786              1164.6266
 Red. masses --      2.3802                 1.6926                 2.1621
 Frc consts  --      1.7364                 1.3015                 1.7278
 IR Inten    --      3.2052                 2.3944                 0.8794

                     55                     56                     57
                      A                      A                      A
 Frequencies --   1191.5076              1205.5838              1209.3324
 Red. masses --      2.2411                 1.1206                 1.7813
 Frc consts  --      1.8746                 0.9596                 1.5349
 IR Inten    --      5.0486                 7.5531                 6.2146

                     58                     59                     60
                      A                      A                      A
 Frequencies --   1218.6413              1253.4350              1286.1526
 Red. masses --      1.9382                 1.2309                 1.3603
 Frc consts  --      1.6959                 1.1394                 1.3258
 IR Inten    --     10.1648                67.3976                 0.8215

                     61                     62                     63
                      A                      A                      A
 Frequencies --   1295.5723              1312.6079              1338.7536
 Red. masses --      1.3346                 2.0598                 1.2799
 Frc consts  --      1.3199                 2.0909                 1.3515
 IR Inten    --      9.2655                68.5820                 8.5960

                     64                     65                     66
                      A                      A                      A
 Frequencies --   1350.2442              1370.4560              1373.2424
 Red. masses --      1.3658                 1.4331                 1.6902
 Frc consts  --      1.4671                 1.5858                 1.8780
 IR Inten    --     13.3598                 6.3023                19.6242

                     67                     68                     69
                      A                      A                      A
 Frequencies --   1389.3940              1390.4814              1395.5499
 Red. masses --      1.7070                 1.8514                 1.7615
 Frc consts  --      1.9415                 2.1091                 2.0213
 IR Inten    --     12.1272                25.7144                29.0312

                     70                     71                     72
                      A                      A                      A
 Frequencies --   1423.7309              1432.0613              1434.1188
 Red. masses --      1.5026                 1.3242                 1.2232
 Frc consts  --      1.7946                 1.6001                 1.4822
 IR Inten    --     28.5329                 1.4898                 1.1972

                     73                     74                     75
                      A                      A                      A
 Frequencies --   1451.3585              1494.5167              1505.9864
 Red. masses --      1.2414                 2.5371                 1.7984
 Frc consts  --      1.5407                 3.3388                 2.4031
 IR Inten    --      3.3451                30.6711                52.8615

                     76                     77                     78
                      A                      A                      A
 Frequencies --   1513.6511              1516.6554              1520.9374
 Red. masses --      1.1279                 1.0682                 1.0800
 Frc consts  --      1.5226                 1.4477                 1.4720
 IR Inten    --     10.3192                 1.3250                 2.1567

                     79                     80                     81
                      A                      A                      A
 Frequencies --   1524.8423              1525.8764              1528.0194
 Red. masses --      1.0672                 1.1377                 1.4919
 Frc consts  --      1.4619                 1.5607                 2.0523
 IR Inten    --      3.3765                 0.9893                15.8892

                     82                     83                     84
                      A                      A                      A
 Frequencies --   1532.8245              1534.5881              1538.5319
 Red. masses --      1.1779                 1.0669                 1.0790
 Frc consts  --      1.6305                 1.4803                 1.5049
 IR Inten    --     15.4515                 4.3964                 5.3213

                     85                     86                     87
                      A                      A                      A
 Frequencies --   1545.1648              1578.4746              1648.2698
 Red. masses --      1.0532                 2.0526                 4.8063
 Frc consts  --      1.4815                 3.0132                 7.6934
 IR Inten    --      8.0419                84.9935                38.5868

                     88                     89                     90
                      A                      A                      A
 Frequencies --   1668.3650              1784.5697              3034.6076
 Red. masses --      5.7283                 7.6314                 1.0682
 Frc consts  --      9.3941                14.3193                 5.7957
 IR Inten    --    168.5220               435.3565                17.0473

                     91                     92                     93
                      A                      A                      A
 Frequencies --   3036.8524              3042.4619              3046.4348
 Red. masses --      1.0395                 1.0462                 1.0592
 Frc consts  --      5.6483                 5.7058                 5.7918
 IR Inten    --     22.5118                28.3492                30.2751

                     94                     95                     96
                      A                      A                      A
 Frequencies --   3047.9069              3064.6040              3081.4238
 Red. masses --      1.0360                 1.0796                 1.0669
 Frc consts  --      5.6703                 5.9740                 5.9684
 IR Inten    --     33.8240                26.7387                34.1499

                     97                     98                     99
                      A                      A                      A
 Frequencies --   3082.3869              3101.7916              3108.6347
 Red. masses --      1.1029                 1.0988                 1.0988
 Frc consts  --      6.1738                 6.2289                 6.2562
 IR Inten    --      9.7689                16.5104                39.8454

                    100                    101                    102
                      A                      A                      A
 Frequencies --   3115.2165              3117.9204              3122.2403
 Red. masses --      1.1006                 1.1028                 1.1034
 Frc consts  --      6.2928                 6.3164                 6.3373
 IR Inten    --     36.7738                58.8528                35.3987

                    103                    104                    105
                      A                      A                      A
 Frequencies --   3137.6588              3142.9488              3151.2531
 Red. masses --      1.0947                 1.0980                 1.0965
 Frc consts  --      6.3498                 6.3904                 6.4155
 IR Inten    --      1.3697                20.7294                11.7233

                    106                    107                    108
                      A                      A                      A
 Frequencies --   3170.1463              3185.9695              3189.3373
 Red. masses --      1.0870                 1.0890                 1.0881
 Frc consts  --      6.4363                 6.5129                 6.5208
 IR Inten    --      9.2370                16.6093                19.2992

                    109                    110                    111
                      A                      A                      A
 Frequencies --   3202.5295              3589.3652              3607.2517
 Red. masses --      1.0961                 1.0751                 1.0757
 Frc consts  --      6.6233                 8.1609                 8.2473
 IR Inten    --     20.2967                14.9490                20.7195

 - Thermochemistry -
 -------------------
 Temperature   298.150 Kelvin.  Pressure   1.00000 Atm.
 Atom     1 has atomic number  6 and mass  12.00000

 Molecular mass:   234.17321 amu.
 Principal axes and moments of inertia in atomic units:
                           1         2         3
     Eigenvalues --  2934.921455676.241166353.14894
           X            0.99962   0.01508   0.02301
           Y           -0.01556   0.99966   0.02079
           Z           -0.02269  -0.02114   0.99952
 This molecule is an asymmetric top.
 Rotational symmetry number  1.
 Warning -- assumption of classical behavior for rotation
           may cause significant error
 Rotational temperatures (Kelvin)      0.02951     0.01526     0.01363
 Rotational constants (GHZ):           0.61492     0.31795     0.28407
 Zero-point vibrational energy     905230.7 (Joules/Mol)
                                  216.35534 (Kcal/Mol)
 Warning -- explicit consideration of  28 degrees of freedom as
           vibrations may cause significant error
 Vibrational temperatures:     39.86    47.24    64.68    78.58    96.97
          (Kelvin)            102.03   130.85   191.62   240.10   279.84
                              317.91   322.81   339.22   366.74   398.28
                              438.60   451.05   506.26   525.85   609.56
                              621.41   625.93   649.00   667.90   677.59
                              762.68   825.24   859.65   920.18   929.77
                             1026.30  1038.20  1082.39  1131.76  1155.00
                             1186.58  1212.19  1232.83  1243.86  1305.06
                             1330.85  1355.64  1380.53  1390.30  1411.67
                             1429.90  1455.22  1474.04  1568.08  1577.41
                             1585.45  1600.99  1643.63  1675.64  1714.31
                             1734.57  1739.96  1753.35  1803.41  1850.49
                             1864.04  1888.55  1926.17  1942.70  1971.78
                             1975.79  1999.03  2000.59  2007.89  2048.43
                             2060.42  2063.38  2088.18  2150.28  2166.78
                             2177.81  2182.13  2188.29  2193.91  2195.40
                             2198.48  2205.39  2207.93  2213.60  2223.15
                             2271.07  2371.49  2400.41  2567.60  4366.12
                             4369.35  4377.42  4383.14  4385.26  4409.28
                             4433.48  4434.87  4462.79  4472.63  4482.10
                             4485.99  4492.21  4514.39  4522.00  4533.95
                             4561.13  4583.90  4588.75  4607.73  5164.30
                             5190.03

 Zero-point correction=                           0.344784 (Hartree/Particle)
 Thermal correction to Energy=                    0.363179
 Thermal correction to Enthalpy=                  0.364123
 Thermal correction to Gibbs Free Energy=         0.297067
 Sum of electronic and zero-point Energies=           -731.217048
 Sum of electronic and thermal Energies=              -731.198653
 Sum of electronic and thermal Enthalpies=            -731.197709
 Sum of electronic and thermal Free Energies=         -731.264765

                     E (Thermal)             CV                S
                      KCal/Mol        Cal/Mol-Kelvin    Cal/Mol-Kelvin
 Total                  227.898             69.033            141.131
 Electronic               0.000              0.000              0.000
 Translational            0.889              2.981             42.254
 Rotational               0.889              2.981             33.026
 Vibrational            226.121             63.071             65.851
 Vibration     1          0.593              1.984              5.987
 Vibration     2          0.594              1.983              5.650
 Vibration     3          0.595              1.979              5.028
 Vibration     4          0.596              1.976              4.643
 Vibration     5          0.598              1.970              4.228
 Vibration     6          0.598              1.968              4.128
 Vibration     7          0.602              1.956              3.640
 Vibration     8          0.613              1.920              2.900
 Vibration     9          0.624              1.883              2.470
 Vibration    10          0.635              1.848              2.185
 Vibration    11          0.648              1.809              1.951
 Vibration    12          0.649              1.804              1.924
 Vibration    13          0.655              1.786              1.835
 Vibration    14          0.665              1.755              1.696
 Vibration    15          0.678              1.716              1.553
 Vibration    16          0.696              1.665              1.390
 Vibration    17          0.701              1.648              1.344
 Vibration    18          0.728              1.571              1.158
 Vibration    19          0.739              1.543              1.099
 Vibration    20          0.786              1.419              0.880
 Vibration    21          0.793              1.401              0.852
 Vibration    22          0.796              1.394              0.842
 Vibration    23          0.810              1.359              0.793
 Vibration    24          0.822              1.329              0.754
 Vibration    25          0.828              1.314              0.735
 Vibration    26          0.885              1.183              0.587
 Vibration    27          0.930              1.088              0.497
 Vibration    28          0.955              1.037              0.454

 Optimization completed.
    -- Stationary point found.
 Normal termination of Gaussian 16 at Mon Dec 14 17:24:11 2020.

 ----------------------------------------------------------------------
 # B3LYP/6-311++G(d,p) empiricaldispersion=gd3bj scf=xqc pop=npa geom=c
 heck
 ----------------------------------------------------------------------

 --------------------------------------
 CID_28584316_JID_7025_Energie_neutraal
 --------------------------------------
 Structure from the checkpoint file:  "JID_7025.chk"
 Charge =  0 Multiplicity = 1

 SCF Done:  E(RB3LYP) =  -731.770346471     A.U. after   15 cycles
 Normal termination of Gaussian 16 at Mon Dec 14 17:33:02 2020.

 ----------------------------------------------------------------------
 # B3LYP/6-311++G(d,p) empiricaldispersion=gd3bj scf=xqc pop=npa geom=c
 heck
 ----------------------------------------------------------------------

 ------------------------------------
 CID_28584316_JID_7025_Energie_kation
 ------------------------------------
 Structure from the checkpoint file:  "JID_7025.chk"
 Charge =  1 Multiplicity = 2

 SCF Done:  E(UB3LYP) =  -731.500065065     A.U. after   22 cycles
 Normal termination of Gaussian 16 at Mon Dec 14 17:52:29 2020.
 Gaussian 16:  ES64L-G16RevA.03 25-Dec-2016

 ----------------------------------------------------------------------
 # B3LYP/6-311++G(d,p) empiricaldispersion=gd3bj scf=xqc pop=npa geom=c
 heck
 ----------------------------------------------------------------------

 -----------------------------------
 CID_28584316_JID_7025_Energie_anion
 -----------------------------------
 Structure from the checkpoint file:  "JID_7025.chk"
 Charge = -1 Multiplicity = 2

                         Standard orientation:
 ---------------------------------------------------------------------
 Center     Atomic      Atomic             Coordinates (Angstroms)
 Number     Number       Type             X           Y           Z
 ---------------------------------------------------------------------
      1          6           0       -3.202379    0.728788   -2.203167
      2          6           0       -3.522341   -0.499250   -1.334698
      3          6           0       -2.618805   -0.587657   -0.125710
      4          6           0       -1.350745   -1.165361   -0.251829
      5          6           0       -0.451188   -1.198485    0.827516
      6          6           0       -0.870664   -0.656924    2.059784
      7          6           0       -2.134842   -0.097142    2.188516
      8          6           0       -3.012118   -0.049571    1.102787
      9          7           0        0.814306   -1.755398    0.734244
     10          6           0        1.565952   -1.984525   -0.485744
     11          6           0        2.831896   -1.115753   -0.565820
     12          8           0        3.935202   -1.610324   -0.360983
     13          7           0        2.686460    0.208857   -0.869827
     14          6           0        1.471503    1.007348   -0.945004
     15          6           0        1.170934    1.823641    0.324795
     16          6           0        2.287049    2.829487    0.626287
     17          6           0       -0.187330    2.517457    0.181053
     18          1           0       -3.320592    1.652601   -1.626346
     19          1           0       -3.863980    0.780950   -3.075178
     20          1           0       -2.167244    0.692680   -2.561120
     21          1           0       -4.568456   -0.452087   -1.009814
     22          1           0       -3.421408   -1.407950   -1.941400
     23          1           0       -1.077617   -1.608814   -1.204669
     24          1           0       -0.191830   -0.678796    2.909365
     25          1           0       -2.436961    0.314636    3.147767
     26          1           0       -3.995592    0.399482    1.208722
     27          1           0        1.374757   -1.706720    1.573785
     28          1           0        1.917786   -3.019679   -0.537201
     29          1           0        0.920256   -1.808521   -1.347141
     30          1           0        3.568434    0.706929   -0.851268
     31          1           0        1.563405    1.690345   -1.800807
     32          1           0        0.628103    0.348245   -1.158751
     33          1           0        1.106610    1.113374    1.158021
     34          1           0        2.400656    3.548004   -0.196448
     35          1           0        2.062440    3.399448    1.534453
     36          1           0        3.252604    2.334507    0.781691
     37          1           0       -0.989728    1.789880    0.028823
     38          1           0       -0.425847    3.094757    1.080815
     39          1           0       -0.184313    3.212799   -0.668951
 ---------------------------------------------------------------------

 SCF Done:  E(UB3LYP) =  -731.759110280     A.U. after   33 cycles
 SCF Done:  E(UB3LYP) =  -731.759110280     a.u. after    1 cycles

 The electronic state is 2-A.
 Alpha  occ. eigenvalues --  -19.00431 -14.25119 -14.24498 -10.18839 -10.13043
 Alpha  occ. eigenvalues --  -10.12923 -10.11776 -10.08721 -10.08454 -10.08209
 Alpha  occ. eigenvalues --  -10.07745 -10.07596 -10.07403 -10.07019 -10.06855
 Alpha  occ. eigenvalues --  -10.06566 -10.06215  -0.95493  -0.85795  -0.83689
 Alpha  occ. eigenvalues --   -0.75984  -0.71256  -0.69519  -0.66349  -0.63778
 Alpha  occ. eigenvalues --   -0.61282  -0.60590  -0.59306  -0.54426  -0.51740
 Alpha  occ. eigenvalues --   -0.50203  -0.49624  -0.48016  -0.43567  -0.42315
 Alpha  occ. eigenvalues --   -0.41625  -0.39400  -0.38685  -0.36742  -0.36582
 Alpha  occ. eigenvalues --   -0.35369  -0.34995  -0.34650  -0.33485  -0.32468
 Alpha  occ. eigenvalues --   -0.32137  -0.31230  -0.30861  -0.30242  -0.29486
 Alpha  occ. eigenvalues --   -0.28552  -0.28335  -0.27391  -0.26667  -0.25955
 Alpha  occ. eigenvalues --   -0.24842  -0.24546  -0.24250  -0.23885  -0.21197
 Alpha  occ. eigenvalues --   -0.17633  -0.16837  -0.15655  -0.11347   0.03984
 Alpha virt. eigenvalues --    0.05831   0.06237   0.06996   0.07493   0.08035
 Alpha virt. eigenvalues --    0.08145   0.08377   0.08524   0.09013   0.09441
 Alpha virt. eigenvalues --    0.09952   0.10205   0.10840   0.11010   0.11597

  Beta  occ. eigenvalues --  -19.00428 -14.25107 -14.24492 -10.18839 -10.13030
  Beta  occ. eigenvalues --  -10.12928 -10.11762 -10.08707 -10.08445 -10.08196
  Beta  occ. eigenvalues --  -10.07728 -10.07569 -10.07377 -10.06988 -10.06843
  Beta  occ. eigenvalues --  -10.06531 -10.06200  -0.95485  -0.85783  -0.83669
  Beta  occ. eigenvalues --   -0.75949  -0.71230  -0.69475  -0.66320  -0.63730
  Beta  occ. eigenvalues --   -0.61244  -0.60546  -0.59264  -0.54359  -0.51713
  Beta  occ. eigenvalues --   -0.50164  -0.49585  -0.47964  -0.43529  -0.42287
  Beta  occ. eigenvalues --   -0.41590  -0.39355  -0.38659  -0.36710  -0.36553
  Beta  occ. eigenvalues --   -0.35341  -0.34963  -0.34621  -0.33445  -0.32442
  Beta  occ. eigenvalues --   -0.32108  -0.31208  -0.30828  -0.30203  -0.29460
  Beta  occ. eigenvalues --   -0.28525  -0.28286  -0.27348  -0.26634  -0.25931
  Beta  occ. eigenvalues --   -0.24811  -0.24521  -0.24202  -0.23847  -0.21164
  Beta  occ. eigenvalues --   -0.17622  -0.16819  -0.15554  -0.11294
  Beta virt. eigenvalues --    0.06025   0.06672   0.06920   0.07373   0.07690
  Beta virt. eigenvalues --    0.08301   0.08606   0.08741   0.08909   0.09206
  Beta virt. eigenvalues --    0.09661   0.10120   0.10568   0.11047   0.11368

 Mulliken charges and spin densities:
               1          2
     1  C    0.445817  -0.979928
     2  C    1.484109  -2.040114
     3  C   -0.751300   1.650847
     4  C   -0.163990  -0.339961
     5  C    0.338022  -0.351745
     6  C    0.148097  -0.411044
     7  C    0.049083  -0.505920
     8  C   -0.940324   0.702894
     9  N   -0.167003   0.021030
    10  C    0.454287  -0.632507
    11  C   -0.279578   0.214851
    12  O   -0.342316   0.018464
    13  N   -0.181029   0.062682
    14  C    0.307165  -0.805268
    15  C   -0.944668   1.420004
    16  C    0.524770  -0.994135
    17  C   -0.500838  -0.249643
    18  H   -0.079481   0.207623
    19  H   -0.471841   0.620836
    20  H   -0.255068   0.396786
    21  H   -0.186181   0.341152
    22  H   -0.205944   0.346424
    23  H    0.021415   0.175881
    24  H   -0.229727   0.358285
    25  H   -0.320234   0.492010
    26  H   -0.142162   0.309834
    27  H    0.252045   0.026793
    28  H    0.070121   0.146686
    29  H   -0.225070   0.338099
    30  H    0.095097   0.212834
    31  H   -0.329360   0.530161
    32  H    0.861672  -0.678634
    33  H    0.240338  -0.035630
    34  H   -0.052279   0.200528
    35  H   -0.281818   0.434388
    36  H   -0.105217   0.234350
    37  H    0.981917  -0.816396
    38  H   -0.085024   0.213953
    39  H   -0.033501   0.163532
 Sum of Mulliken charges =  -1.00000   1.00000

 Dipole moment (field-independent basis, Debye):
    X=              1.4696    Y=             -1.5961    Z=              1.6959  Tot=              2.7538
 Quadrupole moment (field-independent basis, Debye-Ang):
   XX=           -190.3946   YY=           -152.4870   ZZ=           -156.6232
   XY=              1.4281   XZ=             -8.5530   YZ=             -3.1228

 Summary of Natural Population Analysis:

                                       Natural Population
                Natural  -----------------------------------------------
    Atom  No    Charge         Core      Valence    Rydberg      Total
 -----------------------------------------------------------------------
      C    1   -0.27879      0.99966     2.27436    0.00477     3.27879
      C    2   -0.19737      0.99961     2.18820    0.00956     3.19737
      C    3    0.00090      0.99951     1.98903    0.01056     2.99910
      C    4   -0.13843      0.99946     2.13009    0.00888     3.13843
      C    5    0.09163      0.99949     1.89708    0.01180     2.90837
      C    6   -0.12809      0.99952     2.11851    0.01006     3.12809
      C    7   -0.08705      0.99957     2.07721    0.01028     3.08705
      C    8   -0.12630      0.99950     2.11708    0.00972     3.12630
      N    9   -0.31129      0.99967     2.80180    0.00982     3.81129
      C   10   -0.12362      0.99957     2.11446    0.00959     3.12362
      C   11    0.33526      0.99967     1.64326    0.02181     2.66474
      O   12   -0.32597      0.99988     3.31986    0.00623     4.32597
      N   13   -0.31255      0.99967     2.80333    0.00956     3.81255
      C   14   -0.08981      0.99958     2.07883    0.01140     3.08981
      C   15   -0.12199      0.99961     2.11341    0.00898     3.12199
      C   16   -0.28668      0.99965     2.28136    0.00568     3.28668
      C   17   -0.28508      0.99964     2.27950    0.00594     3.28508
      H   18    0.09732      0.00000     0.40139    0.00129     0.40268
      H   19    0.09942      0.00000     0.39907    0.00151     0.40058
      H   20    0.09696      0.00000     0.40151    0.00154     0.40304
      H   21    0.09937      0.00000     0.39937    0.00125     0.40063
      H   22    0.09993      0.00000     0.39873    0.00134     0.40007
      H   23    0.10072      0.00000     0.39759    0.00169     0.39928
      H   24    0.09928      0.00000     0.39949    0.00122     0.40072
      H   25    0.10073      0.00000     0.39835    0.00092     0.39927
      H   26    0.10107      0.00000     0.39788    0.00104     0.39893
      H   27    0.18757      0.00000     0.31021    0.00222     0.31243
      H   28    0.10374      0.00000     0.39518    0.00108     0.39626
      H   29    0.10640      0.00000     0.39218    0.00142     0.39360
      H   30    0.19451      0.00000     0.30300    0.00250     0.30549
      H   31    0.09547      0.00000     0.40327    0.00126     0.40453
      H   32    0.10499      0.00000     0.39253    0.00248     0.39501
      H   33    0.09814      0.00000     0.39902    0.00285     0.40186
      H   34    0.09623      0.00000     0.40263    0.00113     0.40377
      H   35    0.10309      0.00000     0.39593    0.00099     0.39691
      H   36    0.09732      0.00000     0.40147    0.00121     0.40268
      H   37    0.10723      0.00000     0.39075    0.00202     0.39277
      H   38    0.10101      0.00000     0.39803    0.00096     0.39899
      H   39    0.09472      0.00000     0.40425    0.00102     0.40528
 =======================================================================
   * Total *    0.00000     16.99324    46.80919    0.19757    64.00000

 Normal termination of Gaussian 16 at Mon Dec 14 18:19:04 2020.
