 Gaussian 16, Revision A.03,

 -----------------------------------------------------------
 # opt freq B3LYP/6-31G(d) empiricaldispersion=gd3bj scf=xqc
 -----------------------------------------------------------

 -------------------------------
 CID_120991120_JID_9434_neutraal
 -------------------------------
 Symbolic Z-matrix:
 Charge =  0 Multiplicity = 1

 SCF Done:  E(RB3LYP) =  -914.018751827     A.U. after   15 cycles
 SCF Done:  E(RB3LYP) =  -914.024918659     A.U. after   12 cycles
 SCF Done:  E(RB3LYP) =  -914.026411274     A.U. after   12 cycles
 SCF Done:  E(RB3LYP) =  -914.025699058     A.U. after   14 cycles
 SCF Done:  E(RB3LYP) =  -914.027668542     A.U. after   12 cycles
 SCF Done:  E(RB3LYP) =  -914.029275467     A.U. after   14 cycles
 SCF Done:  E(RB3LYP) =  -914.030491715     A.U. after   15 cycles
 SCF Done:  E(RB3LYP) =  -914.031542455     A.U. after   12 cycles
 SCF Done:  E(RB3LYP) =  -914.031921038     A.U. after   12 cycles
 SCF Done:  E(RB3LYP) =  -914.032619064     A.U. after   13 cycles
 SCF Done:  E(RB3LYP) =  -914.033203396     A.U. after   10 cycles
 SCF Done:  E(RB3LYP) =  -914.033204071     A.U. after    8 cycles
 SCF Done:  E(RB3LYP) =  -914.033205984     A.U. after   10 cycles
 SCF Done:  E(RB3LYP) =  -914.033206580     A.U. after   10 cycles
 SCF Done:  E(RB3LYP) =  -914.033206765     A.U. after    7 cycles
 Optimization completed.
    -- Stationary point found.
 Normal termination of Gaussian 16 at Sat Dec 12 09:52:58 2020.

 --------------------------------------------------------------------
 #N Geom=AllCheck Guess=TCheck SCRF=Check GenChk RB3LYP/6-31G(d) Freq
 --------------------------------------------------------------------

 Structure from the checkpoint file:  "JID_9434.chk"
 -------------------------------
 CID_120991120_JID_9434_neutraal
 -------------------------------
 Charge =  0 Multiplicity = 1

 SCF Done:  E(RB3LYP) =  -914.033206765     A.U. after    1 cycles

  Exact polarizability: 200.269   2.138 150.885  -1.569  -1.821 127.240
 Approx polarizability: 268.456  11.649 230.957   3.756  -6.487 181.134

                      1                      2                      3
                      A                      A                      A
 Frequencies --      8.4729                35.1140                42.9721
 Red. masses --      3.2857                 4.5561                 5.1324
 Frc consts  --      0.0001                 0.0033                 0.0056
 IR Inten    --      0.6097                 0.1159                 0.0519

                      4                      5                      6
                      A                      A                      A
 Frequencies --     49.5046                70.6951                88.1930
 Red. masses --      4.6052                 4.1545                 4.0014
 Frc consts  --      0.0066                 0.0122                 0.0183
 IR Inten    --      0.4846                 1.7733                 0.3441

                      7                      8                      9
                      A                      A                      A
 Frequencies --    101.9933               107.3235               122.7606
 Red. masses --      3.9294                 3.0873                 4.0573
 Frc consts  --      0.0241                 0.0210                 0.0360
 IR Inten    --      2.7957                 1.4894                 3.1612

                     10                     11                     12
                      A                      A                      A
 Frequencies --    157.9566               222.3306               224.8877
 Red. masses --      3.1743                 3.2703                 1.6289
 Frc consts  --      0.0467                 0.0952                 0.0485
 IR Inten    --      0.8219                 0.6664                 1.3548

                     13                     14                     15
                      A                      A                      A
 Frequencies --    241.7589               257.2345               271.5483
 Red. masses --      1.7988                 4.2137                 5.3752
 Frc consts  --      0.0619                 0.1643                 0.2335
 IR Inten    --      0.3755                 1.4309                 2.0284

                     16                     17                     18
                      A                      A                      A
 Frequencies --    277.7289               309.0586               328.4340
 Red. masses --      2.5698                 2.5736                 1.3078
 Frc consts  --      0.1168                 0.1448                 0.0831
 IR Inten    --      2.5344                25.1546                43.0170

                     19                     20                     21
                      A                      A                      A
 Frequencies --    341.3933               384.6599               409.4345
 Red. masses --      3.9838                 2.3338                 3.5787
 Frc consts  --      0.2736                 0.2035                 0.3535
 IR Inten    --      1.1005                 6.6667                 8.5843

                     22                     23                     24
                      A                      A                      A
 Frequencies --    433.6964               441.1587               462.2668
 Red. masses --      4.8750                 4.7880                 3.7297
 Frc consts  --      0.5403                 0.5490                 0.4696
 IR Inten    --      6.9643                 0.8478                30.7493

                     25                     26                     27
                      A                      A                      A
 Frequencies --    474.7472               494.8309               503.5476
 Red. masses --      2.4404                 2.4631                 1.8094
 Frc consts  --      0.3241                 0.3553                 0.2703
 IR Inten    --      8.3674                10.8226                32.9379

                     28                     29                     30
                      A                      A                      A
 Frequencies --    566.1937               593.3847               643.8449
 Red. masses --      2.3449                 1.3309                 3.6611
 Frc consts  --      0.4429                 0.2761                 0.8942
 IR Inten    --      8.8440                83.9292                23.8243

                     31                     32                     33
                      A                      A                      A
 Frequencies --    701.1410               715.3179               743.7088
 Red. masses --      4.2032                 3.7411                 4.0588
 Frc consts  --      1.2174                 1.1278                 1.3227
 IR Inten    --      9.0056                 2.2526                 4.5911

                     34                     35                     36
                      A                      A                      A
 Frequencies --    770.0765               788.5565               829.4488
 Red. masses --      5.3751                 2.7488                 1.5432
 Frc consts  --      1.8780                 1.0071                 0.6256
 IR Inten    --     13.1295                 4.8706                 1.3992

                     37                     38                     39
                      A                      A                      A
 Frequencies --    842.6399               868.0707               885.9622
 Red. masses --      3.4508                 1.2994                 3.1181
 Frc consts  --      1.4436                 0.5769                 1.4420
 IR Inten    --      7.0681                32.1454                16.4371

                     40                     41                     42
                      A                      A                      A
 Frequencies --    914.4904               925.0154               951.4587
 Red. masses --      3.1143                 2.0927                 1.7215
 Frc consts  --      1.5345                 1.0550                 0.9182
 IR Inten    --      5.1302                 2.5715               210.5470

                     43                     44                     45
                      A                      A                      A
 Frequencies --    994.2276              1007.3753              1021.5589
 Red. masses --      3.0354                 1.3793                 2.4279
 Frc consts  --      1.7678                 0.8247                 1.4928
 IR Inten    --     18.9611                 6.1531                 8.3470

                     46                     47                     48
                      A                      A                      A
 Frequencies --   1029.0274              1033.4919              1040.8865
 Red. masses --      2.6101                 2.2450                 2.6020
 Frc consts  --      1.6284                 1.4128                 1.6610
 IR Inten    --     34.6507                11.3973                 2.4625

                     49                     50                     51
                      A                      A                      A
 Frequencies --   1068.1772              1077.9141              1109.7780
 Red. masses --      1.9512                 3.0957                 3.2254
 Frc consts  --      1.3117                 2.1192                 2.3405
 IR Inten    --      9.0619                 3.8671                20.4445

                     52                     53                     54
                      A                      A                      A
 Frequencies --   1138.3799              1155.6347              1168.4449
 Red. masses --      2.1701                 2.1964                 4.5791
 Frc consts  --      1.6569                 1.7282                 3.6834
 IR Inten    --     13.8732                22.9895                28.8719

                     55                     56                     57
                      A                      A                      A
 Frequencies --   1169.1286              1190.9132              1191.8837
 Red. masses --      3.9755                 2.7110                 1.4473
 Frc consts  --      3.2016                 2.2654                 1.2114
 IR Inten    --    176.6598                18.1866                12.6261

                     58                     59                     60
                      A                      A                      A
 Frequencies --   1202.0878              1206.5197              1226.4177
 Red. masses --      1.7148                 1.3080                 1.6374
 Frc consts  --      1.4600                 1.1218                 1.4510
 IR Inten    --      9.7492                 4.4129                37.6171

                     61                     62                     63
                      A                      A                      A
 Frequencies --   1253.8348              1262.8782              1269.2101
 Red. masses --      1.3848                 1.6916                 1.5365
 Frc consts  --      1.2826                 1.5895                 1.4583
 IR Inten    --      9.3333                10.6573                35.5574

                     64                     65                     66
                      A                      A                      A
 Frequencies --   1279.5388              1304.8872              1313.5342
 Red. masses --      1.2727                 1.2959                 1.6126
 Frc consts  --      1.2277                 1.3001                 1.6393
 IR Inten    --     20.3695                 9.4302               132.2855

                     67                     68                     69
                      A                      A                      A
 Frequencies --   1332.7852              1336.3352              1368.2410
 Red. masses --      1.4605                 1.2605                 1.4613
 Frc consts  --      1.5285                 1.3262                 1.6118
 IR Inten    --      2.7145                 1.9786                 7.7840

                     70                     71                     72
                      A                      A                      A
 Frequencies --   1384.2252              1395.8812              1399.1835
 Red. masses --      1.3544                 1.8355                 1.6559
 Frc consts  --      1.5291                 2.1071                 1.9100
 IR Inten    --      0.0048                 1.6894                48.6561

                     73                     74                     75
                      A                      A                      A
 Frequencies --   1401.5051              1421.9939              1429.6091
 Red. masses --      1.2390                 1.4820                 1.7212
 Frc consts  --      1.4338                 1.7656                 2.0726
 IR Inten    --     12.9173                29.4199                17.3509

                     76                     77                     78
                      A                      A                      A
 Frequencies --   1443.0577              1456.7068              1471.2823
 Red. masses --      1.3390                 1.5157                 2.5992
 Frc consts  --      1.6428                 1.8950                 3.3150
 IR Inten    --     30.8287                21.9863                 7.1747

                     79                     80                     81
                      A                      A                      A
 Frequencies --   1500.8551              1502.1681              1514.2337
 Red. masses --      1.0932                 1.1620                 1.1347
 Frc consts  --      1.4508                 1.5449                 1.5330
 IR Inten    --      0.7375                 5.4567                 4.6134

                     82                     83                     84
                      A                      A                      A
 Frequencies --   1514.9184              1521.1443              1522.1496
 Red. masses --      1.0530                 1.0828                 3.3162
 Frc consts  --      1.4238                 1.4762                 4.5270
 IR Inten    --      4.5172                 0.1157                59.5896

                     85                     86                     87
                      A                      A                      A
 Frequencies --   1530.6678              1533.2955              1551.1873
 Red. masses --      1.0621                 1.1667                 1.0865
 Frc consts  --      1.4662                 1.6161                 1.5404
 IR Inten    --     11.8139                 2.6601                 0.9302

                     88                     89                     90
                      A                      A                      A
 Frequencies --   1555.4149              1621.3158              1706.3936
 Red. masses --      4.9030                 4.3818                 1.0905
 Frc consts  --      6.9888                 6.7864                 1.8708
 IR Inten    --    105.4774               132.1594                38.1355

                     91                     92                     93
                      A                      A                      A
 Frequencies --   1772.6167              2965.0996              2971.9979
 Red. masses --      7.8309                 1.0727                 1.0728
 Frc consts  --     14.4974                 5.5565                 5.5829
 IR Inten    --    436.2791                19.3284               100.5448

                     94                     95                     96
                      A                      A                      A
 Frequencies --   2996.2256              2998.7228              3007.9238
 Red. masses --      1.0409                 1.0822                 1.0526
 Frc consts  --      5.5057                 5.7338                 5.6109
 IR Inten    --     42.2888                44.8772                71.7850

                     97                     98                     99
                      A                      A                      A
 Frequencies --   3046.8805              3050.3459              3055.4019
 Red. masses --      1.1040                 1.1062                 1.0593
 Frc consts  --      6.0386                 6.0641                 5.8266
 IR Inten    --     87.7006                 3.6728                22.7294

                    100                    101                    102
                      A                      A                      A
 Frequencies --   3058.1430              3099.3873              3102.8759
 Red. masses --      1.0606                 1.1040                 1.1036
 Frc consts  --      5.8440                 6.2485                 6.2601
 IR Inten    --     12.5338                32.3355                34.7445

                    103                    104                    105
                      A                      A                      A
 Frequencies --   3111.3222              3113.8965              3125.8354
 Red. masses --      1.0921                 1.0937                 1.0862
 Frc consts  --      6.2289                 6.2485                 6.2528
 IR Inten    --     36.8999                39.6033                15.7924

                    106                    107                    108
                      A                      A                      A
 Frequencies --   3140.1661              3294.2525              3454.5256
 Red. masses --      1.0978                 1.0982                 1.0504
 Frc consts  --      6.3781                 7.0216                 7.3852
 IR Inten    --     27.5070                23.5568                 2.9829

                    109                    110                    111
                      A                      A                      A
 Frequencies --   3541.0409              3578.5861              3662.3925
 Red. masses --      1.0909                 1.0752                 1.0811
 Frc consts  --      8.0594                 8.1127                 8.5435
 IR Inten    --      1.8095                32.8313                73.5479

 - Thermochemistry -
 -------------------
 Temperature   298.150 Kelvin.  Pressure   1.00000 Atm.
 Atom     1 has atomic number  6 and mass  12.00000

 Molecular mass:   268.15354 amu.
 Principal axes and moments of inertia in atomic units:
                           1         2         3
     Eigenvalues --  3127.109559207.00793**********
           X            0.99989   0.01447  -0.00266
           Y           -0.01439   0.99956   0.02587
           Z            0.00304  -0.02583   0.99966
 This molecule is an asymmetric top.
 Rotational symmetry number  1.
 Warning -- assumption of classical behavior for rotation
           may cause significant error
 Rotational temperatures (Kelvin)      0.02770     0.00941     0.00818
 Rotational constants (GHZ):           0.57713     0.19602     0.17042
 Zero-point vibrational energy     878543.1 (Joules/Mol)
                                  209.97683 (Kcal/Mol)
 Warning -- explicit consideration of  29 degrees of freedom as
           vibrations may cause significant error
 Vibrational temperatures:     12.19    50.52    61.83    71.23   101.71
          (Kelvin)            126.89   146.75   154.41   176.63   227.26
                              319.88   323.56   347.84   370.10   390.70
                              399.59   444.67   472.54   491.19   553.44
                              589.08   623.99   634.73   665.10   683.06
                              711.95   724.49   814.63   853.75   926.35
                             1008.79  1029.18  1070.03  1107.97  1134.56
                             1193.39  1212.37  1248.96  1274.70  1315.75
                             1330.89  1368.94  1430.47  1449.39  1469.80
                             1480.54  1486.96  1497.60  1536.87  1550.88
                             1596.72  1637.87  1662.70  1681.13  1682.12
                             1713.46  1714.85  1729.54  1735.91  1764.54
                             1803.99  1817.00  1826.11  1840.97  1877.44
                             1889.88  1917.58  1922.69  1968.59  1991.59
                             2008.36  2013.11  2016.45  2045.93  2056.89
                             2076.24  2095.88  2116.85  2159.40  2161.28
                             2178.64  2179.63  2188.59  2190.03  2202.29
                             2206.07  2231.81  2237.90  2332.71  2455.12
                             2550.40  4266.12  4276.04  4310.90  4314.49
                             4327.73  4383.78  4388.77  4396.04  4399.99
                             4459.33  4464.35  4476.50  4480.20  4497.38
                             4518.00  4739.69  4970.29  5094.77  5148.79
                             5269.37

 Zero-point correction=                           0.334619 (Hartree/Particle)
 Thermal correction to Energy=                    0.353491
 Thermal correction to Enthalpy=                  0.354436
 Thermal correction to Gibbs Free Energy=         0.284688
 Sum of electronic and zero-point Energies=           -913.698587
 Sum of electronic and thermal Energies=              -913.679715
 Sum of electronic and thermal Enthalpies=            -913.678771
 Sum of electronic and thermal Free Energies=         -913.748519

                     E (Thermal)             CV                S
                      KCal/Mol        Cal/Mol-Kelvin    Cal/Mol-Kelvin
 Total                  221.819             70.296            146.797
 Electronic               0.000              0.000              0.000
 Translational            0.889              2.981             42.658
 Rotational               0.889              2.981             34.077
 Vibrational            220.042             64.334             70.061
 Vibration     1          0.593              1.987              8.340
 Vibration     2          0.594              1.982              5.517
 Vibration     3          0.595              1.980              5.117
 Vibration     4          0.595              1.978              4.837
 Vibration     5          0.598              1.968              4.134
 Vibration     6          0.601              1.957              3.700
 Vibration     7          0.604              1.948              3.416
 Vibration     8          0.606              1.943              3.317
 Vibration     9          0.610              1.930              3.056
 Vibration    10          0.621              1.894              2.574
 Vibration    11          0.648              1.807              1.940
 Vibration    12          0.650              1.803              1.919
 Vibration    13          0.658              1.776              1.790
 Vibration    14          0.667              1.751              1.680
 Vibration    15          0.675              1.726              1.586
 Vibration    16          0.679              1.715              1.548
 Vibration    17          0.698              1.656              1.367
 Vibration    18          0.712              1.619              1.268
 Vibration    19          0.721              1.593              1.206
 Vibration    20          0.754              1.503              1.021
 Vibration    21          0.774              1.450              0.929
 Vibration    22          0.794              1.397              0.847
 Vibration    23          0.801              1.380              0.823
 Vibration    24          0.820              1.334              0.760
 Vibration    25          0.831              1.306              0.724
 Vibration    26          0.850              1.261              0.671
 Vibration    27          0.859              1.242              0.649
 Vibration    28          0.922              1.104              0.512
 Vibration    29          0.951              1.046              0.461

                           ! Non-Optimized Parameters !
 Normal termination of Gaussian 16 at Sat Dec 12 10:12:22 2020.

 ----------------------------------------------------------------------
 # B3LYP/6-311++G(d,p) empiricaldispersion=gd3bj scf=xqc pop=npa geom=c
 heck
 ----------------------------------------------------------------------

 ---------------------------------------
 CID_120991120_JID_9434_Energie_neutraal
 ---------------------------------------
 Structure from the checkpoint file:  "JID_9434.chk"
 Charge =  0 Multiplicity = 1

 SCF Done:  E(RB3LYP) =  -914.305227115     A.U. after   17 cycles
 Normal termination of Gaussian 16 at Sat Dec 12 10:22:19 2020.

 ----------------------------------------------------------------------
 # B3LYP/6-311++G(d,p) empiricaldispersion=gd3bj scf=xqc pop=npa geom=c
 heck
 ----------------------------------------------------------------------

 -------------------------------------
 CID_120991120_JID_9434_Energie_kation
 -------------------------------------
 Structure from the checkpoint file:  "JID_9434.chk"
 Charge =  1 Multiplicity = 2

 SCF Done:  E(UB3LYP) =  -914.006109721     A.U. after   30 cycles
 Normal termination of Gaussian 16 at Sat Dec 12 10:47:41 2020.
 Gaussian 16:  ES64L-G16RevA.03 25-Dec-2016

 ----------------------------------------------------------------------
 # B3LYP/6-311++G(d,p) empiricaldispersion=gd3bj scf=xqc pop=npa geom=c
 heck
 ----------------------------------------------------------------------

 ------------------------------------
 CID_120991120_JID_9434_Energie_anion
 ------------------------------------
 Structure from the checkpoint file:  "JID_9434.chk"
 Charge = -1 Multiplicity = 2

                         Standard orientation:
 ---------------------------------------------------------------------
 Center     Atomic      Atomic             Coordinates (Angstroms)
 Number     Number       Type             X           Y           Z
 ---------------------------------------------------------------------
      1          6           0       -1.978485   -3.100097   -1.338108
      2          8           0       -1.922408   -1.851006   -0.682168
      3          6           0       -2.805681   -1.770516    0.422145
      4          6           0       -2.774681   -0.348457    0.981560
      5          6           0       -3.202670    0.639563   -0.116344
      6          8           0       -4.381622    0.694927   -0.452814
      7          7           0       -2.281646    1.494320   -0.664806
      8          6           0       -0.898742    1.590096   -0.456350
      9          7           0       -0.341322    2.803190   -0.433225
     10          7           0        0.979077    2.541054   -0.279734
     11          6           0        1.271441    1.215486   -0.191376
     12          6           0        0.059172    0.555492   -0.317177
     13          6           0        2.665615    0.702318   -0.005529
     14          6           0        3.091781   -0.249265   -1.142029
     15          6           0        4.486382   -0.813543   -0.869047
     16          8           0        4.550637   -1.478196    0.384288
     17          6           0        4.251007   -0.601922    1.460813
     18          6           0        2.840751   -0.022458    1.345642
     19          7           0       -3.704870   -0.299470    2.113388
     20          1           0       -1.271703   -3.059643   -2.170579
     21          1           0       -2.986829   -3.301028   -1.730623
     22          1           0       -1.695656   -3.924384   -0.664614
     23          1           0       -3.834914   -2.003302    0.106343
     24          1           0       -2.519950   -2.477082    1.214839
     25          1           0       -1.769552   -0.126295    1.345335
     26          1           0       -2.690749    2.203792   -1.262862
     27          1           0        1.624649    3.315006   -0.238803
     28          1           0       -0.127299   -0.506455   -0.349499
     29          1           0        3.351353    1.564562   -0.015226
     30          1           0        2.375317   -1.076743   -1.205522
     31          1           0        3.074950    0.274022   -2.105493
     32          1           0        4.765587   -1.556023   -1.622032
     33          1           0        5.232727    0.000609   -0.900416
     34          1           0        4.991301    0.217668    1.494361
     35          1           0        4.360802   -1.193157    2.374367
     36          1           0        2.643392    0.664979    2.177045
     37          1           0        2.109352   -0.836496    1.412165
     38          1           0       -3.554593    0.565371    2.630905
     39          1           0       -4.645054   -0.225047    1.721309
 ---------------------------------------------------------------------

 SCF Done:  E(UB3LYP) =  -914.297318739     A.U. after   33 cycles
 SCF Done:  E(UB3LYP) =  -914.297318739     a.u. after    1 cycles

 The electronic state is 2-A.
 Alpha  occ. eigenvalues --  -19.05496 -19.03433 -19.01433 -14.29197 -14.26925
 Alpha  occ. eigenvalues --  -14.23964 -14.22521 -10.19704 -10.14518 -10.14242
 Alpha  occ. eigenvalues --  -10.13743 -10.13286 -10.12563 -10.12534 -10.12425
 Alpha  occ. eigenvalues --  -10.09986 -10.08095 -10.08065 -10.07252  -0.97194
 Alpha  occ. eigenvalues --   -0.96506  -0.95771  -0.94968  -0.85491  -0.81987
 Alpha  occ. eigenvalues --   -0.74883  -0.71269  -0.68143  -0.67691  -0.67664
 Alpha  occ. eigenvalues --   -0.60443  -0.57557  -0.56390  -0.55208  -0.54363
 Alpha  occ. eigenvalues --   -0.51556  -0.48564  -0.47557  -0.44982  -0.43803
 Alpha  occ. eigenvalues --   -0.42226  -0.41173  -0.40412  -0.39652  -0.38835
 Alpha  occ. eigenvalues --   -0.38789  -0.37381  -0.36607  -0.36231  -0.35471
 Alpha  occ. eigenvalues --   -0.34745  -0.34006  -0.33520  -0.33044  -0.32949
 Alpha  occ. eigenvalues --   -0.30457  -0.30348  -0.29706  -0.28159  -0.26968
 Alpha  occ. eigenvalues --   -0.25589  -0.25007  -0.24722  -0.22869  -0.22068
 Alpha  occ. eigenvalues --   -0.21199  -0.19973  -0.19156  -0.17533  -0.17037
 Alpha  occ. eigenvalues --   -0.15675  -0.14424   0.03877
 Alpha virt. eigenvalues --    0.05344   0.06301   0.07052   0.07140   0.07550
 Alpha virt. eigenvalues --    0.08124   0.08320   0.09237   0.09541   0.09802
 Alpha virt. eigenvalues --    0.10140   0.10222   0.10587   0.10881   0.11589

  Beta  occ. eigenvalues --  -19.05492 -19.03421 -19.01431 -14.29147 -14.26924
  Beta  occ. eigenvalues --  -14.23960 -14.22514 -10.19703 -10.14519 -10.14236
  Beta  occ. eigenvalues --  -10.13718 -10.13283 -10.12544 -10.12515 -10.12426
  Beta  occ. eigenvalues --  -10.09956 -10.08080 -10.08050 -10.07244  -0.97186
  Beta  occ. eigenvalues --   -0.96494  -0.95744  -0.94947  -0.85483  -0.81976
  Beta  occ. eigenvalues --   -0.74850  -0.71210  -0.68115  -0.67674  -0.67631
  Beta  occ. eigenvalues --   -0.60413  -0.57523  -0.56351  -0.55160  -0.54324
  Beta  occ. eigenvalues --   -0.51509  -0.48546  -0.47497  -0.44966  -0.43773
  Beta  occ. eigenvalues --   -0.42203  -0.41125  -0.40388  -0.39626  -0.38803
  Beta  occ. eigenvalues --   -0.38755  -0.37365  -0.36562  -0.36204  -0.35446
  Beta  occ. eigenvalues --   -0.34726  -0.33988  -0.33496  -0.33020  -0.32928
  Beta  occ. eigenvalues --   -0.30425  -0.30320  -0.29694  -0.28142  -0.26928
  Beta  occ. eigenvalues --   -0.25532  -0.24968  -0.24686  -0.22853  -0.22045
  Beta  occ. eigenvalues --   -0.21174  -0.19965  -0.19145  -0.17526  -0.16974
  Beta  occ. eigenvalues --   -0.15664  -0.14410
  Beta virt. eigenvalues --    0.05644   0.06399   0.06801   0.07343   0.07604
  Beta virt. eigenvalues --    0.08029   0.08386   0.08643   0.09325   0.09729
  Beta virt. eigenvalues --    0.10150   0.10375   0.10475   0.10945   0.11151

 Mulliken charges and spin densities:
               1          2
     1  C    0.176197  -0.479274
     2  O   -0.125185   0.035197
     3  C   -0.141408  -0.077954
     4  C   -0.126515  -0.329962
     5  C   -0.190254   0.056457
     6  O   -0.301206  -0.001203
     7  N   -0.197798  -0.005984
     8  C   -0.323829  -0.095877
     9  N   -0.092325   0.042389
    10  N   -0.136446  -0.064951
    11  C   -0.000846   0.389748
    12  C    1.502367  -1.552940
    13  C    0.072776  -0.024468
    14  C   -0.363905   0.143664
    15  C    0.132874  -0.713869
    16  O   -0.156698   0.055369
    17  C    0.483211  -1.073528
    18  C   -0.669248   0.471269
    19  N   -0.264301   0.048720
    20  H   -0.139833   0.283057
    21  H   -0.074692   0.199363
    22  H   -0.061742   0.210875
    23  H    0.178649   0.006936
    24  H    0.101839   0.078196
    25  H    0.022159   0.202399
    26  H    0.259935   0.040027
    27  H   -0.389767   0.736068
    28  H    0.435899  -0.165510
    29  H   -0.440778   0.635324
    30  H    0.184235  -0.032592
    31  H   -0.214305   0.385522
    32  H   -0.096490   0.280663
    33  H   -0.129007   0.274406
    34  H   -0.217323   0.366102
    35  H   -0.001713   0.186429
    36  H   -0.194906   0.360666
    37  H    0.128894   0.021254
    38  H    0.170235   0.070242
    39  H    0.201249   0.037771
 Sum of Mulliken charges =  -1.00000   1.00000

 Dipole moment (field-independent basis, Debye):
    X=             -5.4478    Y=             -3.5114    Z=              0.5800  Tot=              6.5073
 Quadrupole moment (field-independent basis, Debye-Ang):
   XX=           -209.4689   YY=           -172.6798   ZZ=           -148.1048
   XY=            -12.8580   XZ=             -2.6816   YZ=              0.1546

 Summary of Natural Population Analysis:

                                       Natural Population
                Natural  -----------------------------------------------
    Atom  No    Charge         Core      Valence    Rydberg      Total
 -----------------------------------------------------------------------
      C    1   -0.09786      0.99962     2.08865    0.00958     3.09786
      O    2   -0.30080      0.99988     3.29162    0.00930     4.30080
      C    3   -0.00496      0.99956     1.99396    0.01143     3.00496
      C    4   -0.06387      0.99957     2.05291    0.01139     3.06387
      C    5    0.34200      0.99966     1.63378    0.02455     2.65800
      O    6   -0.33165      0.99988     3.32554    0.00623     4.33165
      N    7   -0.30464      0.99962     2.79515    0.00987     3.80464
      C    8    0.15375      0.99955     1.83053    0.01617     2.84625
      N    9   -0.17030      0.99970     2.65805    0.01255     3.67030
      N   10   -0.16156      0.99964     2.64857    0.01335     3.66156
      C   11    0.09733      0.99954     1.88886    0.01428     2.90267
      C   12   -0.17645      0.99944     2.16897    0.00804     3.17645
      C   13   -0.13154      0.99956     2.11757    0.01441     3.13154
      C   14   -0.19706      0.99961     2.18828    0.00917     3.19706
      C   15   -0.00927      0.99958     1.99689    0.01280     3.00927
      O   16   -0.29970      0.99989     3.29079    0.00903     4.29970
      C   17   -0.00942      0.99958     1.99696    0.01288     3.00942
      C   18   -0.19679      0.99961     2.18789    0.00928     3.19679
      N   19   -0.41436      0.99977     2.90567    0.00891     3.91436
      H   20    0.09366      0.00000     0.40536    0.00098     0.40634
      H   21    0.07929      0.00000     0.41947    0.00124     0.42071
      H   22    0.07951      0.00000     0.41912    0.00137     0.42049
      H   23    0.08352      0.00000     0.41456    0.00191     0.41648
      H   24    0.08622      0.00000     0.41201    0.00177     0.41378
      H   25    0.10765      0.00000     0.39002    0.00233     0.39235
      H   26    0.20023      0.00000     0.29693    0.00284     0.29977
      H   27    0.20700      0.00000     0.28361    0.00939     0.29300
      H   28    0.12339      0.00000     0.37458    0.00203     0.37661
      H   29    0.10878      0.00000     0.38412    0.00710     0.39122
      H   30    0.09882      0.00000     0.39964    0.00154     0.40118
      H   31    0.10606      0.00000     0.39277    0.00118     0.39394
      H   32    0.09117      0.00000     0.40767    0.00116     0.40883
      H   33    0.07929      0.00000     0.41913    0.00158     0.42071
      H   34    0.07957      0.00000     0.41883    0.00159     0.42043
      H   35    0.09075      0.00000     0.40812    0.00113     0.40925
      H   36    0.10611      0.00000     0.39259    0.00130     0.39389
      H   37    0.09842      0.00000     0.40008    0.00150     0.40158
      H   38    0.17655      0.00000     0.32200    0.00145     0.32345
      H   39    0.18116      0.00000     0.31685    0.00198     0.31884
 =======================================================================
   * Total *   -0.00000     18.99327    52.73814    0.26860    72.00000

 Normal termination of Gaussian 16 at Sat Dec 12 11:16:23 2020.
