 Gaussian 16, Revision A.03,

 -----------------------------------------------------------
 # opt freq B3LYP/6-31G(d) empiricaldispersion=gd3bj scf=xqc
 -----------------------------------------------------------

 ------------------------------
 CID_66916465_JID_6561_neutraal
 ------------------------------
 Symbolic Z-matrix:
 Charge =  0 Multiplicity = 1

 SCF Done:  E(RB3LYP) =  -656.295552555     A.U. after   13 cycles
 SCF Done:  E(RB3LYP) =  -656.299827786     A.U. after   12 cycles
 SCF Done:  E(RB3LYP) =  -656.297416496     A.U. after   12 cycles
 SCF Done:  E(RB3LYP) =  -656.300509219     A.U. after   11 cycles
 SCF Done:  E(RB3LYP) =  -656.301029780     A.U. after   11 cycles
 SCF Done:  E(RB3LYP) =  -656.301277892     A.U. after   11 cycles
 SCF Done:  E(RB3LYP) =  -656.301337477     A.U. after   10 cycles
 SCF Done:  E(RB3LYP) =  -656.301363263     A.U. after   10 cycles
 SCF Done:  E(RB3LYP) =  -656.301372907     A.U. after    9 cycles
 SCF Done:  E(RB3LYP) =  -656.301377455     A.U. after    9 cycles
 SCF Done:  E(RB3LYP) =  -656.301380490     A.U. after    9 cycles
 SCF Done:  E(RB3LYP) =  -656.301381370     A.U. after    9 cycles
 SCF Done:  E(RB3LYP) =  -656.301381712     A.U. after    7 cycles
 SCF Done:  E(RB3LYP) =  -656.301381757     A.U. after    6 cycles
 Optimization completed.
    -- Stationary point found.
 Normal termination of Gaussian 16 at Thu Dec 10 22:34:09 2020.

 --------------------------------------------------------------------
 #N Geom=AllCheck Guess=TCheck SCRF=Check GenChk RB3LYP/6-31G(d) Freq
 --------------------------------------------------------------------

 Structure from the checkpoint file:  "JID_6561.chk"
 ------------------------------
 CID_66916465_JID_6561_neutraal
 ------------------------------
 Charge =  0 Multiplicity = 1

 SCF Done:  E(RB3LYP) =  -656.301381757     A.U. after    1 cycles

  Exact polarizability: 178.498   8.481 152.337  15.329 -15.232 131.738
 Approx polarizability: 248.052  19.102 225.965  25.771 -30.911 202.477

                      1                      2                      3
                      A                      A                      A
 Frequencies --     29.9006                43.7849                62.1358
 Red. masses --      2.9720                 3.3881                 3.2369
 Frc consts  --      0.0016                 0.0038                 0.0074
 IR Inten    --      0.1203                 0.9176                 0.3503

                      4                      5                      6
                      A                      A                      A
 Frequencies --     91.1582               110.2082               146.0014
 Red. masses --      3.2521                 2.2729                 2.9300
 Frc consts  --      0.0159                 0.0163                 0.0368
 IR Inten    --      0.3520                 0.6656                 0.7075

                      7                      8                      9
                      A                      A                      A
 Frequencies --    160.3572               189.8305               214.9487
 Red. masses --      1.9302                 2.4766                 3.0880
 Frc consts  --      0.0292                 0.0526                 0.0841
 IR Inten    --      6.5235                 1.6029                 1.8665

                     10                     11                     12
                      A                      A                      A
 Frequencies --    232.4605               269.5048               272.6682
 Red. masses --      1.9171                 2.1334                 1.2763
 Frc consts  --      0.0610                 0.0913                 0.0559
 IR Inten    --      0.8078                 0.4377                32.0707

                     13                     14                     15
                      A                      A                      A
 Frequencies --    283.5730               322.6324               347.8071
 Red. masses --      1.9031                 2.0383                 3.2553
 Frc consts  --      0.0902                 0.1250                 0.2320
 IR Inten    --      6.9475                 3.2978                 7.0404

                     16                     17                     18
                      A                      A                      A
 Frequencies --    360.3414               404.4863               430.0308
 Red. masses --      3.0680                 3.0408                 2.9917
 Frc consts  --      0.2347                 0.2931                 0.3260
 IR Inten    --      5.4405                 2.0294                 0.2649

                     19                     20                     21
                      A                      A                      A
 Frequencies --    441.3470               495.4407               519.8230
 Red. masses --      2.5845                 3.7858                 3.4341
 Frc consts  --      0.2966                 0.5475                 0.5467
 IR Inten    --      2.4579                 0.8353                 2.2235

                     22                     23                     24
                      A                      A                      A
 Frequencies --    531.7155               574.7081               596.7745
 Red. masses --      3.0058                 4.3911                 2.8995
 Frc consts  --      0.5007                 0.8545                 0.6084
 IR Inten    --      9.0288                 9.5067                 0.0574

                     25                     26                     27
                      A                      A                      A
 Frequencies --    672.5019               724.6823               760.1646
 Red. masses --      4.1389                 3.7648                 1.4289
 Frc consts  --      1.1029                 1.1649                 0.4865
 IR Inten    --      0.4597                 0.6817                27.1764

                     28                     29                     30
                      A                      A                      A
 Frequencies --    782.7549               797.6370               805.6503
 Red. masses --      2.5887                 1.2091                 1.8937
 Frc consts  --      0.9345                 0.4532                 0.7242
 IR Inten    --      1.0896                23.4357                 1.8250

                     31                     32                     33
                      A                      A                      A
 Frequencies --    816.4657               835.2741               874.6184
 Red. masses --      1.4317                 2.4139                 1.3588
 Frc consts  --      0.5623                 0.9923                 0.6124
 IR Inten    --      9.4314                 1.2037               132.3915

                     34                     35                     36
                      A                      A                      A
 Frequencies --    882.5954               885.5350               906.7492
 Red. masses --      1.9045                 1.4608                 1.9174
 Frc consts  --      0.8741                 0.6749                 0.9288
 IR Inten    --      9.4654                 0.9762                 6.1239

                     37                     38                     39
                      A                      A                      A
 Frequencies --    931.7209               955.9628               974.7189
 Red. masses --      2.2247                 1.3957                 2.3420
 Frc consts  --      1.1379                 0.7515                 1.3110
 IR Inten    --      1.9340                 1.8151                 5.8352

                     40                     41                     42
                      A                      A                      A
 Frequencies --    984.3057               991.0539              1011.5380
 Red. masses --      1.2601                 2.1834                 2.3706
 Frc consts  --      0.7193                 1.2635                 1.4291
 IR Inten    --      0.5217                 6.3829                 4.1400

                     43                     44                     45
                      A                      A                      A
 Frequencies --   1061.4063              1069.3915              1084.7499
 Red. masses --      2.5174                 2.5761                 2.8176
 Frc consts  --      1.6710                 1.7357                 1.9534
 IR Inten    --     24.0173                10.0240                 3.4966

                     46                     47                     48
                      A                      A                      A
 Frequencies --   1099.2025              1099.7867              1114.2965
 Red. masses --      2.1200                 1.9067                 1.8109
 Frc consts  --      1.5092                 1.3588                 1.3248
 IR Inten    --     12.9447                 3.6551                20.4032

                     49                     50                     51
                      A                      A                      A
 Frequencies --   1132.1431              1149.5875              1154.4005
 Red. masses --      1.8394                 1.7508                 1.5838
 Frc consts  --      1.3891                 1.3632                 1.2435
 IR Inten    --     10.3016                 8.7855                23.7602

                     52                     53                     54
                      A                      A                      A
 Frequencies --   1186.9888              1194.5687              1201.1877
 Red. masses --      1.3286                 1.1032                 1.3527
 Frc consts  --      1.1029                 0.9275                 1.1499
 IR Inten    --      3.9106                 2.1446                 3.3082

                     55                     56                     57
                      A                      A                      A
 Frequencies --   1223.5893              1230.7667              1235.2008
 Red. masses --      2.0729                 2.5583                 2.3453
 Frc consts  --      1.8285                 2.2832                 2.1082
 IR Inten    --      4.2482                 4.7506                27.2820

                     58                     59                     60
                      A                      A                      A
 Frequencies --   1273.1037              1276.1780              1313.0240
 Red. masses --      1.8031                 1.4397                 1.2262
 Frc consts  --      1.7219                 1.3815                 1.2456
 IR Inten    --     12.8004                 2.5367                 0.9642

                     61                     62                     63
                      A                      A                      A
 Frequencies --   1321.5837              1336.6326              1355.0058
 Red. masses --      1.2277                 1.1581                 1.7762
 Frc consts  --      1.2634                 1.2191                 1.9214
 IR Inten    --      9.0161                19.5256                 5.6989

                     64                     65                     66
                      A                      A                      A
 Frequencies --   1362.4648              1372.1917              1386.0234
 Red. masses --      2.9853                 1.1958                 1.4117
 Frc consts  --      3.2651                 1.3266                 1.5978
 IR Inten    --      2.4355                18.0954                 1.5985

                     67                     68                     69
                      A                      A                      A
 Frequencies --   1391.2067              1403.6705              1405.6617
 Red. masses --      1.4932                 1.4064                 1.4874
 Frc consts  --      1.7027                 1.6327                 1.7316
 IR Inten    --      0.3402                 8.9504                 4.8786

                     70                     71                     72
                      A                      A                      A
 Frequencies --   1423.2720              1429.0463              1446.0383
 Red. masses --      1.2701                 1.3088                 1.3515
 Frc consts  --      1.5159                 1.5747                 1.6651
 IR Inten    --      4.2153                 0.9624                28.7526

                     73                     74                     75
                      A                      A                      A
 Frequencies --   1451.8023              1498.2014              1506.6057
 Red. masses --      1.4242                 2.2499                 1.1482
 Frc consts  --      1.7686                 2.9754                 1.5356
 IR Inten    --      3.9645                 6.3498                 1.5418

                     76                     77                     78
                      A                      A                      A
 Frequencies --   1508.1488              1520.0227              1521.6518
 Red. masses --      1.0819                 1.0800                 1.0694
 Frc consts  --      1.4498                 1.4702                 1.4589
 IR Inten    --      0.2904                12.5158                 1.2299

                     79                     80                     81
                      A                      A                      A
 Frequencies --   1526.7497              1529.7217              1540.9146
 Red. masses --      1.0800                 1.0659                 2.2888
 Frc consts  --      1.4833                 1.4696                 3.2019
 IR Inten    --      3.2868                 6.7665                15.0601

                     82                     83                     84
                      A                      A                      A
 Frequencies --   1543.4869              1551.0336              1639.2450
 Red. masses --      1.0801                 1.0876                 6.4058
 Frc consts  --      1.5161                 1.5416                10.1417
 IR Inten    --      1.8166                 5.5793                 1.3445

                     85                     86                     87
                      A                      A                      A
 Frequencies --   1666.8993              1696.7705              2934.8737
 Red. masses --      5.8354                 1.0888                 1.0736
 Frc consts  --      9.5530                 1.8470                 5.4482
 IR Inten    --      0.6731                24.7961                71.9581

                     88                     89                     90
                      A                      A                      A
 Frequencies --   3003.5908              3011.1143              3027.3121
 Red. masses --      1.0696                 1.0694                 1.0707
 Frc consts  --      5.6852                 5.7128                 5.7815
 IR Inten    --     50.7198                28.5734                28.1779

                     91                     92                     93
                      A                      A                      A
 Frequencies --   3038.3086              3051.2137              3052.0257
 Red. masses --      1.0644                 1.0617                 1.0434
 Frc consts  --      5.7889                 5.8236                 5.7265
 IR Inten    --     55.7067                22.3488                 9.1147

                     94                     95                     96
                      A                      A                      A
 Frequencies --   3063.0034              3066.4660              3070.6357
 Red. masses --      1.0753                 1.0878                 1.0890
 Frc consts  --      5.9441                 6.0266                 6.0498
 IR Inten    --     49.4213                 3.1575                34.5167

                     97                     98                     99
                      A                      A                      A
 Frequencies --   3071.5429              3088.3264              3091.6931
 Red. masses --      1.0900                 1.0951                 1.1004
 Frc consts  --      6.0586                 6.1541                 6.1973
 IR Inten    --     27.7282                40.0378                90.2489

                    100                    101                    102
                      A                      A                      A
 Frequencies --   3096.8749              3118.7844              3129.0289
 Red. masses --      1.1015                 1.1006                 1.1033
 Frc consts  --      6.2241                 6.3073                 6.3645
 IR Inten    --     24.3500                57.3741                30.8258

                    103                    104                    105
                      A                      A                      A
 Frequencies --   3170.1290              3185.0740              3199.7260
 Red. masses --      1.0868                 1.0880                 1.0927
 Frc consts  --      6.4348                 6.5029                 6.5916
 IR Inten    --     10.2048                12.1938                32.1317

                    106                    107                    108
                      A                      A                      A
 Frequencies --   3210.4502              3459.7204              3546.4258
 Red. masses --      1.0956                 1.0501                 1.0920
 Frc consts  --      6.6530                 7.4057                 8.0920
 IR Inten    --     20.9258                 2.9661                 1.2874

 - Thermochemistry -
 -------------------
 Temperature   298.150 Kelvin.  Pressure   1.00000 Atm.
 Atom     1 has atomic number  6 and mass  12.00000

 Molecular mass:   218.17830 amu.
 Principal axes and moments of inertia in atomic units:
                           1         2         3
     Eigenvalues --  2723.281224536.251805212.77912
           X            0.99980   0.01942   0.00423
           Y           -0.01942   0.99981   0.00009
           Z           -0.00423  -0.00017   0.99999
 This molecule is an asymmetric top.
 Rotational symmetry number  1.
 Warning -- assumption of classical behavior for rotation
           may cause significant error
 Rotational temperatures (Kelvin)      0.03180     0.01909     0.01662
 Rotational constants (GHZ):           0.66271     0.39785     0.34621
 Zero-point vibrational energy     902256.5 (Joules/Mol)
                                  215.64448 (Kcal/Mol)
 Warning -- explicit consideration of  24 degrees of freedom as
           vibrations may cause significant error
 Vibrational temperatures:     43.02    63.00    89.40   131.16   158.57
          (Kelvin)            210.06   230.72   273.12   309.26   334.46
                              387.76   392.31   408.00   464.20   500.42
                              518.45   581.97   618.72   635.00   712.83
                              747.91   765.02   826.88   858.63   967.58
                             1042.66  1093.71  1126.21  1147.62  1159.15
                             1174.71  1201.77  1258.38  1269.86  1274.09
                             1304.61  1340.54  1375.42  1402.40  1416.20
                             1425.91  1455.38  1527.13  1538.62  1560.71
                             1581.51  1582.35  1603.22  1628.90  1654.00
                             1660.92  1707.81  1718.72  1728.24  1760.47
                             1770.80  1777.18  1831.71  1836.14  1889.15
                             1901.46  1923.12  1949.55  1960.28  1974.28
                             1994.18  2001.64  2019.57  2022.43  2047.77
                             2056.08  2080.53  2088.82  2155.58  2167.67
                             2169.89  2186.97  2189.32  2196.65  2200.93
                             2217.03  2220.73  2231.59  2358.51  2398.30
                             2441.27  4222.63  4321.50  4332.32  4355.63
                             4371.45  4390.02  4391.18  4406.98  4411.96
                             4417.96  4419.27  4443.41  4448.26  4455.71
                             4487.24  4501.97  4561.11  4582.61  4603.69
                             4619.12  4977.77  5102.52

 Zero-point correction=                           0.343651 (Hartree/Particle)
 Thermal correction to Energy=                    0.359359
 Thermal correction to Enthalpy=                  0.360304
 Thermal correction to Gibbs Free Energy=         0.300347
 Sum of electronic and zero-point Energies=           -655.957730
 Sum of electronic and thermal Energies=              -655.942022
 Sum of electronic and thermal Enthalpies=            -655.941078
 Sum of electronic and thermal Free Energies=         -656.001034

                     E (Thermal)             CV                S
                      KCal/Mol        Cal/Mol-Kelvin    Cal/Mol-Kelvin
 Total                  225.501             61.447            126.188
 Electronic               0.000              0.000              0.000
 Translational            0.889              2.981             42.043
 Rotational               0.889              2.981             32.532
 Vibrational            223.724             55.485             51.613
 Vibration     1          0.594              1.984              5.836
 Vibration     2          0.595              1.980              5.080
 Vibration     3          0.597              1.972              4.388
 Vibration     4          0.602              1.955              3.635
 Vibration     5          0.606              1.941              3.265
 Vibration     6          0.617              1.907              2.724
 Vibration     7          0.622              1.891              2.546
 Vibration     8          0.633              1.854              2.229
 Vibration     9          0.645              1.818              2.001
 Vibration    10          0.653              1.791              1.860
 Vibration    11          0.674              1.729              1.599
 Vibration    12          0.676              1.724              1.579
 Vibration    13          0.682              1.704              1.512
 Vibration    14          0.708              1.630              1.297
 Vibration    15          0.725              1.580              1.176
 Vibration    16          0.735              1.554              1.121
 Vibration    17          0.770              1.460              0.946
 Vibration    18          0.791              1.405              0.859
 Vibration    19          0.801              1.380              0.822
 Vibration    20          0.851              1.260              0.670
 Vibration    21          0.875              1.206              0.610
 Vibration    22          0.887              1.180              0.583
 Vibration    23          0.931              1.086              0.495
 Vibration    24          0.955              1.039              0.455

 Optimization completed.
    -- Stationary point found.
 Normal termination of Gaussian 16 at Thu Dec 10 22:51:31 2020.

 ----------------------------------------------------------------------
 # B3LYP/6-311++G(d,p) empiricaldispersion=gd3bj scf=xqc pop=npa geom=c
 heck
 ----------------------------------------------------------------------

 --------------------------------------
 CID_66916465_JID_6561_Energie_neutraal
 --------------------------------------
 Structure from the checkpoint file:  "JID_6561.chk"
 Charge =  0 Multiplicity = 1

 SCF Done:  E(RB3LYP) =  -656.482460334     A.U. after   14 cycles
 Normal termination of Gaussian 16 at Thu Dec 10 22:59:54 2020.

 ----------------------------------------------------------------------
 # B3LYP/6-311++G(d,p) empiricaldispersion=gd3bj scf=xqc pop=npa geom=c
 heck
 ----------------------------------------------------------------------

 ------------------------------------
 CID_66916465_JID_6561_Energie_kation
 ------------------------------------
 Structure from the checkpoint file:  "JID_6561.chk"
 Charge =  1 Multiplicity = 2

 SCF Done:  E(UB3LYP) =  -656.214107790     A.U. after   23 cycles
 Normal termination of Gaussian 16 at Thu Dec 10 23:18:38 2020.
 Gaussian 16:  ES64L-G16RevA.03 25-Dec-2016

 ----------------------------------------------------------------------
 # B3LYP/6-311++G(d,p) empiricaldispersion=gd3bj scf=xqc pop=npa geom=c
 heck
 ----------------------------------------------------------------------

 -----------------------------------
 CID_66916465_JID_6561_Energie_anion
 -----------------------------------
 Structure from the checkpoint file:  "JID_6561.chk"
 Charge = -1 Multiplicity = 2

                         Standard orientation:
 ---------------------------------------------------------------------
 Center     Atomic      Atomic             Coordinates (Angstroms)
 Number     Number       Type             X           Y           Z
 ---------------------------------------------------------------------
      1          6           0        2.320557    2.872356    0.806849
      2          6           0        2.521446    1.435019    0.321725
      3          7           0        1.296322    0.801859   -0.149644
      4          6           0        1.498680   -0.221637   -1.168634
      5          6           0        2.499964   -1.349391   -0.858380
      6          7           0        2.514283   -2.284837   -1.987910
      7          6           0        0.259322    0.566446    0.862957
      8          6           0        0.510984   -0.594047    1.863855
      9          6           0       -0.164077   -1.907456    1.462487
     10          6           0       -1.674862   -1.694721    1.367777
     11          6           0       -2.018555   -0.557357    0.430631
     12          6           0       -3.262753   -0.541088   -0.217081
     13          6           0       -3.613423    0.486991   -1.084900
     14          6           0       -2.706858    1.523083   -1.326728
     15          6           0       -1.468587    1.512510   -0.695563
     16          6           0       -1.110270    0.485254    0.189166
     17          1           0        1.821859    3.466998    0.034359
     18          1           0        3.290081    3.331617    1.030579
     19          1           0        1.718279    2.926664    1.719677
     20          1           0        3.211487    1.454617   -0.529998
     21          1           0        3.032025    0.852546    1.112433
     22          1           0        0.520038   -0.660024   -1.395343
     23          1           0        1.839538    0.261812   -2.093857
     24          1           0        3.507321   -0.927076   -0.764383
     25          1           0        2.264972   -1.816853    0.110633
     26          1           0        3.219231   -3.004039   -1.837131
     27          1           0        1.619784   -2.772248   -2.034857
     28          1           0        0.245097    1.485036    1.459476
     29          1           0        0.113654   -0.300136    2.845610
     30          1           0        1.590367   -0.724078    1.997152
     31          1           0        0.211587   -2.256218    0.493108
     32          1           0        0.065535   -2.691894    2.193397
     33          1           0       -2.179118   -2.610281    1.035732
     34          1           0       -2.067317   -1.477444    2.373219
     35          1           0       -3.958698   -1.357398   -0.035539
     36          1           0       -4.582095    0.477950   -1.577219
     37          1           0       -2.964904    2.330214   -2.006904
     38          1           0       -0.742357    2.295301   -0.892232
 ---------------------------------------------------------------------

 SCF Done:  E(UB3LYP) =  -656.469161578     A.U. after   33 cycles
 SCF Done:  E(UB3LYP) =  -656.469161578     a.u. after    1 cycles

 The electronic state is 2-A.
 Alpha  occ. eigenvalues --  -14.20106 -14.19365 -10.10600 -10.09789 -10.08777
 Alpha  occ. eigenvalues --  -10.08611 -10.08561 -10.08278 -10.08179 -10.07954
 Alpha  occ. eigenvalues --  -10.07791 -10.07544 -10.07352 -10.06739 -10.06616
 Alpha  occ. eigenvalues --  -10.06519  -0.82889  -0.78096  -0.76743  -0.71341
 Alpha  occ. eigenvalues --   -0.67444  -0.65625  -0.64613  -0.62642  -0.59130
 Alpha  occ. eigenvalues --   -0.54434  -0.52738  -0.51194  -0.51000  -0.47699
 Alpha  occ. eigenvalues --   -0.44086  -0.41614  -0.40275  -0.39162  -0.38030
 Alpha  occ. eigenvalues --   -0.36783  -0.36074  -0.35577  -0.34329  -0.33607
 Alpha  occ. eigenvalues --   -0.32872  -0.31519  -0.31080  -0.30162  -0.29976
 Alpha  occ. eigenvalues --   -0.28633  -0.28101  -0.27277  -0.26819  -0.26179
 Alpha  occ. eigenvalues --   -0.25445  -0.24602  -0.24499  -0.23002  -0.22409
 Alpha  occ. eigenvalues --   -0.21733  -0.15664  -0.15069  -0.14687  -0.10763
 Alpha  occ. eigenvalues --    0.04226
 Alpha virt. eigenvalues --    0.06160   0.06203   0.06807   0.07552   0.07906
 Alpha virt. eigenvalues --    0.08198   0.08317   0.08857   0.09317   0.10115
 Alpha virt. eigenvalues --    0.10144   0.10378   0.11494   0.11828   0.12637

  Beta  occ. eigenvalues --  -14.20104 -14.19329 -10.10595 -10.09776 -10.08772
  Beta  occ. eigenvalues --  -10.08593 -10.08555 -10.08275 -10.08175 -10.07940
  Beta  occ. eigenvalues --  -10.07778 -10.07542 -10.07335 -10.06717 -10.06591
  Beta  occ. eigenvalues --  -10.06501  -0.82876  -0.78039  -0.76721  -0.71312
  Beta  occ. eigenvalues --   -0.67422  -0.65596  -0.64582  -0.62611  -0.59084
  Beta  occ. eigenvalues --   -0.54393  -0.52683  -0.51151  -0.50969  -0.47656
  Beta  occ. eigenvalues --   -0.44042  -0.41584  -0.40253  -0.39129  -0.38000
  Beta  occ. eigenvalues --   -0.36755  -0.36047  -0.35538  -0.34299  -0.33572
  Beta  occ. eigenvalues --   -0.32839  -0.31489  -0.31057  -0.30121  -0.29947
  Beta  occ. eigenvalues --   -0.28605  -0.28071  -0.27245  -0.26786  -0.26154
  Beta  occ. eigenvalues --   -0.25416  -0.24577  -0.24465  -0.22973  -0.22376
  Beta  occ. eigenvalues --   -0.21709  -0.15632  -0.15029  -0.14649  -0.10750
  Beta virt. eigenvalues --    0.06118   0.06648   0.06975   0.07264   0.07882
  Beta virt. eigenvalues --    0.08125   0.08491   0.08720   0.09279   0.09661
  Beta virt. eigenvalues --    0.10384   0.10594   0.10684   0.11795   0.12100

 Mulliken charges and spin densities:
               1          2
     1  C    0.416221  -0.982849
     2  C   -0.227643   0.172932
     3  N    0.179670   0.118386
     4  C   -0.020904  -0.420847
     5  C    0.473625  -0.921757
     6  N   -0.436387   0.110623
     7  C   -0.354209   0.163445
     8  C    0.843976  -1.400704
     9  C   -0.618332   0.578719
    10  C    1.415031  -2.156159
    11  C   -0.629504   1.040816
    12  C   -0.013083  -0.251732
    13  C    0.103793  -0.525203
    14  C   -0.474332  -0.069596
    15  C   -0.326131   0.183673
    16  C    0.159659   0.328939
    17  H    0.065037   0.068371
    18  H   -0.269315   0.414673
    19  H   -0.141321   0.281401
    20  H   -0.073630   0.215415
    21  H    0.015675   0.113071
    22  H    0.165555  -0.002403
    23  H    0.235242  -0.051564
    24  H   -0.181103   0.337135
    25  H   -0.469054   0.632930
    26  H   -0.179307   0.424806
    27  H   -0.004197   0.207713
    28  H    0.200195  -0.075266
    29  H   -0.229952   0.383158
    30  H    0.197028  -0.047010
    31  H    0.283548  -0.148372
    32  H   -0.702675   0.907523
    33  H   -0.311303   0.487725
    34  H    0.107748   0.057873
    35  H   -0.213812   0.374942
    36  H   -0.056667   0.205028
    37  H   -0.028323   0.173776
    38  H    0.099180   0.070393
 Sum of Mulliken charges =  -1.00000   1.00000

 Dipole moment (field-independent basis, Debye):
    X=             -3.2699    Y=              4.2987    Z=             -1.2094  Tot=              5.5348
 Quadrupole moment (field-independent basis, Debye-Ang):
   XX=           -164.0879   YY=           -156.1425   ZZ=           -145.8456
   XY=              2.7369   XZ=              2.9234   YZ=             -0.4443

 Summary of Natural Population Analysis:

                                       Natural Population
                Natural  -----------------------------------------------
    Atom  No    Charge         Core      Valence    Rydberg      Total
 -----------------------------------------------------------------------
      C    1   -0.28897      0.99966     2.28423    0.00508     3.28897
      C    2   -0.08274      0.99961     2.07217    0.01095     3.08274
      N    3   -0.28525      0.99970     2.77231    0.01323     3.78525
      C    4   -0.08658      0.99960     2.07492    0.01206     3.08658
      C    5   -0.10005      0.99963     2.09030    0.01012     3.10005
      N    6   -0.42263      0.99977     2.91239    0.01046     3.92263
      C    7   -0.00826      0.99953     1.99470    0.01403     3.00826
      C    8   -0.19893      0.99961     2.18985    0.00947     3.19893
      C    9   -0.19015      0.99963     2.18145    0.00908     3.19015
      C   10   -0.19428      0.99960     2.18557    0.00911     3.19428
      C   11   -0.01262      0.99946     2.00312    0.01003     3.01262
      C   12   -0.09837      0.99952     2.08916    0.00969     3.09837
      C   13   -0.10352      0.99956     2.09454    0.00942     3.10352
      C   14   -0.10573      0.99956     2.09664    0.00953     3.10573
      C   15   -0.09074      0.99951     2.08276    0.00847     3.09074
      C   16   -0.01637      0.99945     2.00682    0.01010     3.01637
      H   17    0.09769      0.00000     0.40111    0.00120     0.40231
      H   18    0.09937      0.00000     0.39971    0.00092     0.40063
      H   19    0.09586      0.00000     0.40303    0.00111     0.40414
      H   20    0.09487      0.00000     0.40379    0.00133     0.40513
      H   21    0.08199      0.00000     0.41636    0.00165     0.41801
      H   22    0.09797      0.00000     0.40060    0.00143     0.40203
      H   23    0.09372      0.00000     0.40495    0.00134     0.40628
      H   24    0.08809      0.00000     0.41041    0.00150     0.41191
      H   25    0.08091      0.00000     0.41648    0.00261     0.41909
      H   26    0.17717      0.00000     0.32060    0.00223     0.32283
      H   27    0.17187      0.00000     0.32621    0.00193     0.32813
      H   28    0.10282      0.00000     0.39517    0.00200     0.39718
      H   29    0.09660      0.00000     0.40202    0.00138     0.40340
      H   30    0.10426      0.00000     0.39430    0.00144     0.39574
      H   31    0.09458      0.00000     0.40313    0.00229     0.40542
      H   32    0.10283      0.00000     0.39526    0.00191     0.39717
      H   33    0.10316      0.00000     0.39559    0.00125     0.39684
      H   34    0.10154      0.00000     0.39712    0.00134     0.39846
      H   35    0.09850      0.00000     0.40013    0.00137     0.40150
      H   36    0.09819      0.00000     0.40101    0.00080     0.40181
      H   37    0.09791      0.00000     0.40130    0.00079     0.40209
      H   38    0.10529      0.00000     0.39287    0.00184     0.39471
 =======================================================================
   * Total *    0.00000     15.99342    43.81207    0.19451    60.00000

 Normal termination of Gaussian 16 at Thu Dec 10 23:45:23 2020.
