 Gaussian 16, Revision A.03,

 -----------------------------------------------------------
 # opt freq B3LYP/6-31G(d) empiricaldispersion=gd3bj scf=xqc
 -----------------------------------------------------------

 -------------------------------
 CID_116709688_JID_2052_neutraal
 -------------------------------
 Symbolic Z-matrix:
 Charge =  0 Multiplicity = 1

 SCF Done:  E(RB3LYP) =  -542.369368494     A.U. after   15 cycles
 SCF Done:  E(RB3LYP) =  -542.370993629     A.U. after   13 cycles
 SCF Done:  E(RB3LYP) =  -542.369691407     A.U. after   13 cycles
 SCF Done:  E(RB3LYP) =  -542.369378049     A.U. after   13 cycles
 SCF Done:  E(RB3LYP) =  -542.368791114     A.U. after   13 cycles
 SCF Done:  E(RB3LYP) =  -542.371547526     A.U. after    9 cycles
 SCF Done:  E(RB3LYP) =  -542.372891823     A.U. after   12 cycles
 SCF Done:  E(RB3LYP) =  -542.372886488     A.U. after   11 cycles
 SCF Done:  E(RB3LYP) =  -542.372852204     A.U. after   12 cycles
 SCF Done:  E(RB3LYP) =  -542.372976523     A.U. after   11 cycles
 SCF Done:  E(RB3LYP) =  -542.372994569     A.U. after   10 cycles
 SCF Done:  E(RB3LYP) =  -542.372997580     A.U. after   10 cycles
 SCF Done:  E(RB3LYP) =  -542.373000509     A.U. after    8 cycles
 SCF Done:  E(RB3LYP) =  -542.373000403     A.U. after    8 cycles
 Optimization completed.
    -- Stationary point found.
 Normal termination of Gaussian 16 at Wed Dec  9 16:49:52 2020.

 --------------------------------------------------------------------
 #N Geom=AllCheck Guess=TCheck SCRF=Check GenChk RB3LYP/6-31G(d) Freq
 --------------------------------------------------------------------

 Structure from the checkpoint file:  "JID_2052.chk"
 -------------------------------
 CID_116709688_JID_2052_neutraal
 -------------------------------
 Charge =  0 Multiplicity = 1

 SCF Done:  E(RB3LYP) =  -542.373000403     A.U. after    1 cycles

  Exact polarizability: 116.299  -0.775 105.059   4.329   9.972 106.337
 Approx polarizability: 145.163  -2.641 153.074   3.240  32.984 179.082

                      1                      2                      3
                      A                      A                      A
 Frequencies --     42.3712                56.2764                93.3437
 Red. masses --      3.2825                 3.0892                 3.5346
 Frc consts  --      0.0035                 0.0058                 0.0181
 IR Inten    --      0.7157                 0.3913                 2.3133

                      4                      5                      6
                      A                      A                      A
 Frequencies --    120.6457               173.1520               176.2969
 Red. masses --      2.3929                 1.3831                 1.6739
 Frc consts  --      0.0205                 0.0244                 0.0307
 IR Inten    --      2.0202                 1.1423                 1.4220

                      7                      8                      9
                      A                      A                      A
 Frequencies --    180.5547               195.3956               226.2718
 Red. masses --      1.4756                 2.6066                 1.1370
 Frc consts  --      0.0283                 0.0586                 0.0343
 IR Inten    --      0.0828                 1.9115                 0.4360

                     10                     11                     12
                      A                      A                      A
 Frequencies --    247.8142               279.9292               285.5600
 Red. masses --      1.8319                 1.5736                 1.3182
 Frc consts  --      0.0663                 0.0727                 0.0633
 IR Inten    --      0.4704                 1.0054                 0.4248

                     13                     14                     15
                      A                      A                      A
 Frequencies --    303.5016               308.0871               337.2257
 Red. masses --      1.8731                 2.6529                 3.0647
 Frc consts  --      0.1017                 0.1484                 0.2053
 IR Inten    --      0.7778                10.1685                 6.6941

                     16                     17                     18
                      A                      A                      A
 Frequencies --    346.6336               365.0105               392.5377
 Red. masses --      2.6794                 3.2893                 2.3690
 Frc consts  --      0.1897                 0.2582                 0.2151
 IR Inten    --      3.0028                 0.3560                 0.2236

                     19                     20                     21
                      A                      A                      A
 Frequencies --    422.7128               441.7882               515.6925
 Red. masses --      2.9463                 2.5597                 2.9297
 Frc consts  --      0.3102                 0.2944                 0.4590
 IR Inten    --      1.5871                 1.3429                 0.7079

                     22                     23                     24
                      A                      A                      A
 Frequencies --    544.2594               647.6665               657.4979
 Red. masses --      3.7383                 1.8452                 4.7666
 Frc consts  --      0.6524                 0.4560                 1.2141
 IR Inten    --      6.2909                 4.4262                10.9127

                     25                     26                     27
                      A                      A                      A
 Frequencies --    723.9038               771.6122               837.4980
 Red. masses --      2.2047                 3.0439                 2.5747
 Frc consts  --      0.6807                 1.0678                 1.0640
 IR Inten    --      9.6076                 5.2850                 3.5559

                     28                     29                     30
                      A                      A                      A
 Frequencies --    929.7643               952.5758               954.7326
 Red. masses --      2.4664                 1.8368                 1.7688
 Frc consts  --      1.2562                 0.9820                 0.9499
 IR Inten    --      3.5834                 3.8431                 2.3673

                     31                     32                     33
                      A                      A                      A
 Frequencies --    964.4346               979.9243               999.5321
 Red. masses --      1.7322                 1.2106                 1.4972
 Frc consts  --      0.9493                 0.6849                 0.8813
 IR Inten    --      4.0780                 0.0363                32.4443

                     34                     35                     36
                      A                      A                      A
 Frequencies --   1010.7764              1033.6914              1061.3045
 Red. masses --      2.3652                 1.4369                 1.4496
 Frc consts  --      1.4238                 0.9046                 0.9620
 IR Inten    --      7.2698                 6.0340                 3.6447

                     37                     38                     39
                      A                      A                      A
 Frequencies --   1081.8842              1086.5352              1143.7833
 Red. masses --      1.6123                 1.4811                 4.6299
 Frc consts  --      1.1119                 1.0302                 3.5687
 IR Inten    --      6.6220                 0.2271               105.8263

                     40                     41                     42
                      A                      A                      A
 Frequencies --   1165.0120              1193.5595              1220.5333
 Red. masses --      3.1428                 1.2799                 1.7234
 Frc consts  --      2.5132                 1.0743                 1.5126
 IR Inten    --     82.5461                 1.2622                27.4452

                     43                     44                     45
                      A                      A                      A
 Frequencies --   1243.5559              1271.4242              1284.3126
 Red. masses --      1.9798                 2.6307                 2.6872
 Frc consts  --      1.8039                 2.5055                 2.6115
 IR Inten    --     13.6863                 7.1366                 9.4504

                     46                     47                     48
                      A                      A                      A
 Frequencies --   1344.8688              1362.4865              1388.2634
 Red. masses --      2.3163                 1.9447                 1.1991
 Frc consts  --      2.4684                 2.1270                 1.3616
 IR Inten    --     26.8710                13.2062                13.2126

                     49                     50                     51
                      A                      A                      A
 Frequencies --   1423.6620              1432.5055              1439.0536
 Red. masses --      1.2362                 1.2302                 1.2324
 Frc consts  --      1.4762                 1.4874                 1.5037
 IR Inten    --      4.7986                 4.8593                 7.9569

                     52                     53                     54
                      A                      A                      A
 Frequencies --   1461.4934              1464.9875              1502.6003
 Red. masses --      1.2233                 1.2324                 1.0469
 Frc consts  --      1.5395                 1.5583                 1.3927
 IR Inten    --     11.0729                 9.5598                 6.3788

                     55                     56                     57
                      A                      A                      A
 Frequencies --   1503.4206              1510.2445              1515.1440
 Red. masses --      1.1408                 1.0488                 1.0472
 Frc consts  --      1.5192                 1.4095                 1.4164
 IR Inten    --      1.0671                 0.8591                 0.8388

                     58                     59                     60
                      A                      A                      A
 Frequencies --   1518.0874              1520.0647              1523.6272
 Red. masses --      1.0534                 1.0639                 1.0451
 Frc consts  --      1.4303                 1.4483                 1.4294
 IR Inten    --     15.4734                 3.0680                 0.8904

                     61                     62                     63
                      A                      A                      A
 Frequencies --   1533.4435              1535.8393              1538.6827
 Red. masses --      1.0522                 1.0562                 1.0543
 Frc consts  --      1.4577                 1.4679                 1.4707
 IR Inten    --      1.0137                 6.0735                 6.8926

                     64                     65                     66
                      A                      A                      A
 Frequencies --   1552.1337              1704.5007              1743.7481
 Red. masses --      1.0579                 4.8043                11.4562
 Frc consts  --      1.5016                 8.2239                20.5238
 IR Inten    --     14.9680                 6.1127               128.2157

                     67                     68                     69
                      A                      A                      A
 Frequencies --   3004.7990              3012.6920              3047.1963
 Red. masses --      1.0732                 1.0447                 1.0371
 Frc consts  --      5.7088                 5.5867                 5.6738
 IR Inten    --     19.2663                62.2305                26.5054

                     70                     71                     72
                      A                      A                      A
 Frequencies --   3053.6082              3059.8385              3060.0199
 Red. masses --      1.0362                 1.0374                 1.0354
 Frc consts  --      5.6925                 5.7224                 5.7125
 IR Inten    --     20.3585                26.7058                15.6421

                     73                     74                     75
                      A                      A                      A
 Frequencies --   3064.3737              3108.4243              3117.8529
 Red. masses --      1.1049                 1.1018                 1.1000
 Frc consts  --      6.1128                 6.2725                 6.3001
 IR Inten    --     45.1333                18.2861                11.5294

                     76                     77                     78
                      A                      A                      A
 Frequencies --   3118.9200              3122.9387              3135.6221
 Red. masses --      1.1012                 1.1007                 1.1019
 Frc consts  --      6.3112                 6.3249                 6.3830
 IR Inten    --      6.1911                61.6612                16.6723

                     79                     80                     81
                      A                      A                      A
 Frequencies --   3139.2210              3140.4839              3142.0146
 Red. masses --      1.1021                 1.1042                 1.0991
 Frc consts  --      6.3989                 6.4166                 6.3928
 IR Inten    --     25.8137                13.7982                27.7545

                     82                     83                     84
                      A                      A                      A
 Frequencies --   3144.1863              3171.2278              3290.3431
 Red. masses --      1.1000                 1.0661                 1.1094
 Frc consts  --      6.4071                 6.3169                 7.0766
 IR Inten    --     26.1806                22.1267                 0.3921

 - Thermochemistry -
 -------------------
 Temperature   298.150 Kelvin.  Pressure   1.00000 Atm.
 Atom     1 has atomic number  6 and mass  12.00000

 Molecular mass:   170.13068 amu.
 Principal axes and moments of inertia in atomic units:
                           1         2         3
     Eigenvalues --  1508.604152433.327382855.72723
           X            0.99983   0.01570   0.01000
           Y           -0.01523   0.99888  -0.04482
           Z           -0.01070   0.04466   0.99895
 This molecule is an asymmetric top.
 Rotational symmetry number  1.
 Warning -- assumption of classical behavior for rotation
           may cause significant error
 Rotational temperatures (Kelvin)      0.05741     0.03559     0.03033
 Rotational constants (GHZ):           1.19630     0.74168     0.63197
 Zero-point vibrational energy     698159.8 (Joules/Mol)
                                  166.86419 (Kcal/Mol)
 Warning -- explicit consideration of  22 degrees of freedom as
           vibrations may cause significant error
 Vibrational temperatures:     60.96    80.97   134.30   173.58   249.13
          (Kelvin)            253.65   259.78   281.13   325.55   356.55
                              402.76   410.86   436.67   443.27   485.19
                              498.73   525.17   564.77   608.19   635.63
                              741.97   783.07   931.85   945.99  1041.54
                             1110.18  1204.97  1337.72  1370.54  1373.65
                             1387.61  1409.89  1438.10  1454.28  1487.25
                             1526.98  1556.59  1563.28  1645.65  1676.19
                             1717.27  1756.08  1789.20  1829.30  1847.84
                             1934.97  1960.31  1997.40  2048.33  2061.06
                             2070.48  2102.76  2107.79  2161.91  2163.09
                             2172.91  2179.95  2184.19  2187.03  2192.16
                             2206.28  2209.73  2213.82  2233.17  2452.40
                             2508.86  4323.24  4334.59  4384.24  4393.46
                             4402.43  4402.69  4408.95  4472.33  4485.89
                             4487.43  4493.21  4511.46  4516.64  4518.46
                             4520.66  4523.78  4562.69  4734.07

 Zero-point correction=                           0.265915 (Hartree/Particle)
 Thermal correction to Energy=                    0.280466
 Thermal correction to Enthalpy=                  0.281410
 Thermal correction to Gibbs Free Energy=         0.225565
 Sum of electronic and zero-point Energies=           -542.107085
 Sum of electronic and thermal Energies=              -542.092535
 Sum of electronic and thermal Enthalpies=            -542.091591
 Sum of electronic and thermal Free Energies=         -542.147435

                     E (Thermal)             CV                S
                      KCal/Mol        Cal/Mol-Kelvin    Cal/Mol-Kelvin
 Total                  175.995             54.008            117.535
 Electronic               0.000              0.000              0.000
 Translational            0.889              2.981             41.302
 Rotational               0.889              2.981             30.728
 Vibrational            174.217             48.047             45.504
 Vibration     1          0.595              1.980              5.145
 Vibration     2          0.596              1.975              4.584
 Vibration     3          0.602              1.954              3.589
 Vibration     4          0.609              1.932              3.090
 Vibration     5          0.627              1.876              2.401
 Vibration     6          0.628              1.872              2.367
 Vibration     7          0.630              1.866              2.323
 Vibration     8          0.636              1.846              2.176
 Vibration     9          0.650              1.801              1.908
 Vibration    10          0.661              1.766              1.746
 Vibration    11          0.680              1.711              1.534
 Vibration    12          0.683              1.700              1.500
 Vibration    13          0.695              1.667              1.398
 Vibration    14          0.698              1.658              1.373
 Vibration    15          0.718              1.601              1.225
 Vibration    16          0.725              1.582              1.181
 Vibration    17          0.738              1.544              1.101
 Vibration    18          0.760              1.486              0.990
 Vibration    19          0.785              1.421              0.883
 Vibration    20          0.802              1.379              0.821
 Vibration    21          0.871              1.215              0.620
 Vibration    22          0.899              1.152              0.556

                           ! Non-Optimized Parameters !
 Normal termination of Gaussian 16 at Wed Dec  9 16:57:39 2020.

 ----------------------------------------------------------------------
 # B3LYP/6-311++G(d,p) empiricaldispersion=gd3bj scf=xqc pop=npa geom=c
 heck
 ----------------------------------------------------------------------

 ---------------------------------------
 CID_116709688_JID_2052_Energie_neutraal
 ---------------------------------------
 Structure from the checkpoint file:  "JID_2052.chk"
 Charge =  0 Multiplicity = 1

 SCF Done:  E(RB3LYP) =  -542.529247537     A.U. after   15 cycles
 Normal termination of Gaussian 16 at Wed Dec  9 17:00:46 2020.

 ----------------------------------------------------------------------
 # B3LYP/6-311++G(d,p) empiricaldispersion=gd3bj scf=xqc pop=npa geom=c
 heck
 ----------------------------------------------------------------------

 -------------------------------------
 CID_116709688_JID_2052_Energie_kation
 -------------------------------------
 Structure from the checkpoint file:  "JID_2052.chk"
 Charge =  1 Multiplicity = 2

 SCF Done:  E(UB3LYP) =  -542.211293872     A.U. after   22 cycles
 Normal termination of Gaussian 16 at Wed Dec  9 17:07:11 2020.
 Gaussian 16:  ES64L-G16RevA.03 25-Dec-2016

 ----------------------------------------------------------------------
 # B3LYP/6-311++G(d,p) empiricaldispersion=gd3bj scf=xqc pop=npa geom=c
 heck
 ----------------------------------------------------------------------

 ------------------------------------
 CID_116709688_JID_2052_Energie_anion
 ------------------------------------
 Structure from the checkpoint file:  "JID_2052.chk"
 Charge = -1 Multiplicity = 2

                         Standard orientation:
 ---------------------------------------------------------------------
 Center     Atomic      Atomic             Coordinates (Angstroms)
 Number     Number       Type             X           Y           Z
 ---------------------------------------------------------------------
      1          6           0        3.206652   -0.948419    0.083515
      2          6           0        1.962810   -0.148874    0.376462
      3          6           0        1.855778    0.645635    1.453519
      4          6           0        0.872405   -0.316108   -0.632396
      5          8           0        1.065396   -1.048572   -1.596003
      6          6           0       -0.516543    0.350451   -0.532990
      7          6           0       -1.582717   -0.528209    0.189307
      8          6           0       -1.296143   -0.646844    1.694590
      9          6           0       -2.947875    0.154639   -0.014538
     10          6           0       -1.623239   -1.929841   -0.441780
     11          8           0       -0.518563    1.637150    0.067502
     12          6           0        0.079132    2.633753   -0.741193
     13          1           0        3.967490   -0.781406    0.851076
     14          1           0        3.621310   -0.679906   -0.893918
     15          1           0        2.978919   -2.018661    0.034133
     16          1           0        0.965492    1.226827    1.651123
     17          1           0        2.678590    0.727810    2.159918
     18          1           0       -0.835885    0.439637   -1.582741
     19          1           0       -1.268848    0.337779    2.170518
     20          1           0       -2.087761   -1.233065    2.175056
     21          1           0       -0.342981   -1.147879    1.888434
     22          1           0       -3.199054    0.218106   -1.080243
     23          1           0       -3.736146   -0.422254    0.482292
     24          1           0       -2.945496    1.166760    0.397789
     25          1           0       -1.770383   -1.877934   -1.525673
     26          1           0       -0.701240   -2.489761   -0.262055
     27          1           0       -2.454381   -2.499091   -0.010447
     28          1           0       -0.036475    3.583039   -0.212567
     29          1           0        1.149717    2.443297   -0.902047
     30          1           0       -0.419074    2.700976   -1.719612
 ---------------------------------------------------------------------

 SCF Done:  E(UB3LYP) =  -542.533951587     A.U. after   31 cycles

 The electronic state is 2-A.
 Alpha  occ. eigenvalues --  -18.99151 -18.89900 -10.08748 -10.07356 -10.05580
 Alpha  occ. eigenvalues --  -10.03880 -10.03723 -10.02894 -10.02517 -10.01078
 Alpha  occ. eigenvalues --   -9.99894  -9.97693  -0.90612  -0.84258  -0.69240
 Alpha  occ. eigenvalues --   -0.62728  -0.58705  -0.56310  -0.55700  -0.52937
 Alpha  occ. eigenvalues --   -0.51404  -0.44163  -0.41024  -0.36879  -0.35595
 Alpha  occ. eigenvalues --   -0.34909  -0.31487  -0.30888  -0.30588  -0.29618
 Alpha  occ. eigenvalues --   -0.27720  -0.27049  -0.26562  -0.26113  -0.25535
 Alpha  occ. eigenvalues --   -0.23921  -0.23171  -0.22011  -0.21321  -0.20942
 Alpha  occ. eigenvalues --   -0.19965  -0.19590  -0.19097  -0.17309  -0.13487
 Alpha  occ. eigenvalues --   -0.10048  -0.06100   0.05795
 Alpha virt. eigenvalues --    0.08203   0.09275   0.10150   0.10767   0.11022
 Alpha virt. eigenvalues --    0.11781   0.11976   0.12529   0.13539   0.14362
 Alpha virt. eigenvalues --    0.14424   0.14702   0.15192   0.15536   0.16422

  Beta  occ. eigenvalues --  -18.99135 -18.89272 -10.08746 -10.07388 -10.05547
  Beta  occ. eigenvalues --  -10.03715 -10.03474 -10.02896 -10.02513 -10.01083
  Beta  occ. eigenvalues --   -9.99865  -9.97258  -0.90561  -0.83124  -0.69187
  Beta  occ. eigenvalues --   -0.62288  -0.58652  -0.56286  -0.55683  -0.52609
  Beta  occ. eigenvalues --   -0.51127  -0.43168  -0.40792  -0.36716  -0.35514
  Beta  occ. eigenvalues --   -0.34813  -0.31415  -0.30718  -0.30409  -0.29595
  Beta  occ. eigenvalues --   -0.27625  -0.26599  -0.26366  -0.25942  -0.25491
  Beta  occ. eigenvalues --   -0.23899  -0.22934  -0.21889  -0.20824  -0.20516
  Beta  occ. eigenvalues --   -0.19877  -0.19484  -0.18238  -0.15803  -0.13294
  Beta  occ. eigenvalues --   -0.07707  -0.05600
  Beta virt. eigenvalues --    0.08138   0.09072   0.10055   0.10603   0.10901
  Beta virt. eigenvalues --    0.11716   0.11836   0.12324   0.12906   0.13716
  Beta virt. eigenvalues --    0.14266   0.14315   0.14792   0.15058   0.15616

 Mulliken charges and spin densities:
               1          2
     1  C   -0.464105   0.041204
     2  C    0.861740  -0.103165
     3  C   -1.244198   0.518757
     4  C   -0.580640   0.263559
     5  O   -0.349430   0.224397
     6  C   -0.016508  -0.050757
     7  C    0.684357   0.109461
     8  C   -0.529089  -0.176189
     9  C   -0.461960  -0.067556
    10  C   -0.634561  -0.014359
    11  O   -0.088777   0.002416
    12  C   -0.192193  -0.073584
    13  H    0.100132  -0.001348
    14  H    0.132483   0.013813
    15  H    0.134483   0.005647
    16  H    0.105571  -0.016384
    17  H    0.083373  -0.027954
    18  H    0.171091   0.032643
    19  H    0.103072   0.046650
    20  H    0.064531   0.063184
    21  H    0.120327   0.019081
    22  H    0.112043  -0.000794
    23  H    0.070626   0.054172
    24  H    0.138187   0.006896
    25  H    0.131464  -0.001157
    26  H    0.185576   0.002161
    27  H    0.083643   0.027948
    28  H    0.095765   0.030783
    29  H    0.115150   0.040574
    30  H    0.067846   0.029902
 Sum of Mulliken charges =  -1.00000   1.00000

 Dipole moment (field-independent basis, Debye):
    X=             -3.9238    Y=              1.4048    Z=              0.3526  Tot=              4.1826
 Quadrupole moment (field-independent basis, Debye-Ang):
   XX=           -103.8369   YY=            -92.0399   ZZ=            -97.9925
   XY=              0.2094   XZ=              1.8475   YZ=             -5.7331

 Summary of Natural Population Analysis:

                                       Natural Population
                Natural  -----------------------------------------------
    Atom  No    Charge         Core      Valence    Rydberg      Total
 -----------------------------------------------------------------------
      C    1   -0.29172      0.99964     2.28528    0.00680     3.29172
      C    2   -0.06541      0.99950     2.05518    0.01073     3.06541
      C    3   -0.09522      0.99953     2.08665    0.00904     3.09522
      C    4    0.29216      0.99957     1.68392    0.02435     2.70784
      O    5   -0.25165      0.99988     3.24596    0.00581     4.25165
      C    6    0.04191      0.99946     1.94092    0.01772     2.95809
      C    7   -0.04830      0.99957     2.03904    0.00969     3.04830
      C    8   -0.28842      0.99963     2.28107    0.00773     3.28842
      C    9   -0.28299      0.99963     2.27726    0.00610     3.28299
      C   10   -0.28373      0.99963     2.27801    0.00609     3.28373
      O   11   -0.30696      0.99988     3.29730    0.00978     4.30696
      C   12   -0.09590      0.99961     2.08828    0.00802     3.09590
      H   13    0.08749      0.00000     0.41166    0.00085     0.41251
      H   14    0.10028      0.00000     0.39874    0.00098     0.39972
      H   15    0.09911      0.00000     0.39992    0.00098     0.40089
      H   16    0.09288      0.00000     0.40589    0.00123     0.40712
      H   17    0.07384      0.00000     0.42517    0.00099     0.42616
      H   18    0.08579      0.00000     0.41267    0.00154     0.41421
      H   19    0.10326      0.00000     0.39579    0.00095     0.39674
      H   20    0.08881      0.00000     0.41041    0.00079     0.41119
      H   21    0.11100      0.00000     0.38817    0.00084     0.38900
      H   22    0.09401      0.00000     0.40518    0.00081     0.40599
      H   23    0.09137      0.00000     0.40747    0.00116     0.40863
      H   24    0.10381      0.00000     0.39511    0.00108     0.39619
      H   25    0.10149      0.00000     0.39774    0.00076     0.39851
      H   26    0.11055      0.00000     0.38856    0.00089     0.38945
      H   27    0.08804      0.00000     0.41102    0.00094     0.41196
      H   28    0.08249      0.00000     0.41649    0.00101     0.41751
      H   29    0.08945      0.00000     0.40891    0.00164     0.41055
      H   30    0.07256      0.00000     0.42574    0.00169     0.42744
 =======================================================================
   * Total *   -0.00000     11.99552    34.86348    0.14099    47.00000

 Normal termination of Gaussian 16 at Wed Dec  9 17:16:46 2020.
