 Gaussian 16, Revision A.03,

 -----------------------------------------------------------
 # opt freq B3LYP/6-31G(d) empiricaldispersion=gd3bj scf=xqc
 -----------------------------------------------------------

 ------------------------------
 CID_61489349_JID_6736_neutraal
 ------------------------------
 Symbolic Z-matrix:
 Charge =  0 Multiplicity = 1

 SCF Done:  E(RB3LYP) =  -1065.89472046     A.U. after   15 cycles
 SCF Done:  E(RB3LYP) =  -1065.90113369     A.U. after   13 cycles
 SCF Done:  E(RB3LYP) =  -1065.90125516     A.U. after   13 cycles
 SCF Done:  E(RB3LYP) =  -1065.90189947     A.U. after   12 cycles
 SCF Done:  E(RB3LYP) =  -1065.90227411     A.U. after   12 cycles
 SCF Done:  E(RB3LYP) =  -1065.90238222     A.U. after   12 cycles
 SCF Done:  E(RB3LYP) =  -1065.90238174     A.U. after   11 cycles
 SCF Done:  E(RB3LYP) =  -1065.90241300     A.U. after   11 cycles
 SCF Done:  E(RB3LYP) =  -1065.90242162     A.U. after    9 cycles
 SCF Done:  E(RB3LYP) =  -1065.90244039     A.U. after   10 cycles
 SCF Done:  E(RB3LYP) =  -1065.90279330     A.U. after    9 cycles
 SCF Done:  E(RB3LYP) =  -1065.90279354     A.U. after    8 cycles
 SCF Done:  E(RB3LYP) =  -1065.90279366     A.U. after    8 cycles
 SCF Done:  E(RB3LYP) =  -1065.90279370     A.U. after    7 cycles
 SCF Done:  E(RB3LYP) =  -1065.90279374     A.U. after    7 cycles
 Optimization completed.
    -- Stationary point found.
 Normal termination of Gaussian 16 at Thu Dec 10 23:18:22 2020.

 --------------------------------------------------------------------
 #N Geom=AllCheck Guess=TCheck SCRF=Check GenChk RB3LYP/6-31G(d) Freq
 --------------------------------------------------------------------

 Structure from the checkpoint file:  "JID_6736.chk"
 ------------------------------
 CID_61489349_JID_6736_neutraal
 ------------------------------
 Charge =  0 Multiplicity = 1

 SCF Done:  E(RB3LYP) =  -1065.90279374     A.U. after    1 cycles

  Exact polarizability: 202.865  23.980 118.065  -7.388   4.744 138.296
 Approx polarizability: 274.801  51.008 187.502 -13.283   6.462 241.200

                      1                      2                      3
                      A                      A                      A
 Frequencies --     12.2645                24.4909                40.3880
 Red. masses --      4.9194                 5.4042                 5.7740
 Frc consts  --      0.0004                 0.0019                 0.0055
 IR Inten    --      2.1632                 1.4937                 2.7807

                      4                      5                      6
                      A                      A                      A
 Frequencies --     59.7281                88.2476                99.8768
 Red. masses --      2.9848                 1.5614                 2.4261
 Frc consts  --      0.0063                 0.0072                 0.0143
 IR Inten    --      1.6966                 0.1690                 0.4395

                      7                      8                      9
                      A                      A                      A
 Frequencies --    102.9675               138.7268               184.8732
 Red. masses --      3.4422                 4.4868                 2.9680
 Frc consts  --      0.0215                 0.0509                 0.0598
 IR Inten    --      0.5684                 0.7567                 0.9913

                     10                     11                     12
                      A                      A                      A
 Frequencies --    225.6653               237.9025               264.6440
 Red. masses --      3.9518                 3.8752                 5.8154
 Frc consts  --      0.1186                 0.1292                 0.2400
 IR Inten    --      1.4894                 1.3854                 1.5436

                     13                     14                     15
                      A                      A                      A
 Frequencies --    298.4155               347.8423               358.9689
 Red. masses --      4.4497                 2.8757                 1.0947
 Frc consts  --      0.2335                 0.2050                 0.0831
 IR Inten    --     11.9566                16.5727                29.4635

                     16                     17                     18
                      A                      A                      A
 Frequencies --    397.1969               405.0765               419.0608
 Red. masses --      4.1583                 5.4108                 2.9610
 Frc consts  --      0.3865                 0.5231                 0.3064
 IR Inten    --     12.0417                 4.2940                 0.3934

                     19                     20                     21
                      A                      A                      A
 Frequencies --    460.6640               479.4601               506.3670
 Red. masses --      3.9259                 3.8248                 2.6103
 Frc consts  --      0.4909                 0.5180                 0.3943
 IR Inten    --      0.4205                 9.8618                 8.0615

                     22                     23                     24
                      A                      A                      A
 Frequencies --    553.9819               569.3190               575.7959
 Red. masses --      3.2137                 4.3747                 6.9485
 Frc consts  --      0.5811                 0.8354                 1.3573
 IR Inten    --     23.6012                 8.1535                 4.3713

                     25                     26                     27
                      A                      A                      A
 Frequencies --    641.6093               669.8705               694.3150
 Red. masses --      3.9944                 1.5705                 5.9183
 Frc consts  --      0.9688                 0.4152                 1.6810
 IR Inten    --     10.8965               244.9635                18.3902

                     28                     29                     30
                      A                      A                      A
 Frequencies --    724.5044               762.2155               790.2825
 Red. masses --      3.7122                 3.1797                 2.5107
 Frc consts  --      1.1481                 1.0884                 0.9239
 IR Inten    --      4.5701                 7.0192                 2.2817

                     31                     32                     33
                      A                      A                      A
 Frequencies --    801.2686               812.1694               843.2512
 Red. masses --      1.5236                 1.6193                 1.3360
 Frc consts  --      0.5763                 0.6293                 0.5597
 IR Inten    --      0.2222                44.7889                10.0093

                     34                     35                     36
                      A                      A                      A
 Frequencies --    861.6891               897.1614               914.6705
 Red. masses --      5.2357                 2.4992                 1.3787
 Frc consts  --      2.2905                 1.1852                 0.6796
 IR Inten    --      7.8667                 8.9458                 2.0779

                     37                     38                     39
                      A                      A                      A
 Frequencies --    933.7939               967.4516               970.8236
 Red. masses --      2.1474                 1.3034                 3.5811
 Frc consts  --      1.1032                 0.7188                 1.9886
 IR Inten    --      4.2235                 0.8693                 1.0775

                     40                     41                     42
                      A                      A                      A
 Frequencies --   1004.1240              1070.5404              1075.0542
 Red. masses --      2.3623                 3.0527                 1.3166
 Frc consts  --      1.4033                 2.0613                 0.8965
 IR Inten    --      3.5918                 4.2085                13.4285

                     43                     44                     45
                      A                      A                      A
 Frequencies --   1094.9377              1098.7341              1100.5372
 Red. masses --      1.9803                 1.8929                 1.3569
 Frc consts  --      1.3988                 1.3464                 0.9683
 IR Inten    --     15.3246                34.2376                 1.2904

                     46                     47                     48
                      A                      A                      A
 Frequencies --   1135.9453              1138.3471              1145.8291
 Red. masses --      1.4202                 2.1808                 1.2150
 Frc consts  --      1.0797                 1.6650                 0.9399
 IR Inten    --    100.3197                20.8282                38.0585

                     49                     50                     51
                      A                      A                      A
 Frequencies --   1168.2182              1174.1230              1211.4104
 Red. masses --      1.3321                 1.2168                 1.3307
 Frc consts  --      1.0711                 0.9884                 1.1505
 IR Inten    --     12.9567                22.2795                 1.7057

                     52                     53                     54
                      A                      A                      A
 Frequencies --   1219.2460              1234.5727              1266.6581
 Red. masses --      1.4106                 2.2281                 1.5472
 Frc consts  --      1.2355                 2.0009                 1.4625
 IR Inten    --      0.4326                 5.7542                 8.6791

                     55                     56                     57
                      A                      A                      A
 Frequencies --   1281.5585              1318.4069              1333.1075
 Red. masses --      1.6579                 2.3787                 5.8996
 Frc consts  --      1.6043                 2.4361                 6.1774
 IR Inten    --      6.5512                83.0389                18.7305

                     58                     59                     60
                      A                      A                      A
 Frequencies --   1354.4243              1412.4147              1418.6609
 Red. masses --      2.0029                 2.1035                 2.1467
 Frc consts  --      2.1648                 2.4724                 2.5455
 IR Inten    --     23.6931               117.8966               135.2880

                     61                     62                     63
                      A                      A                      A
 Frequencies --   1461.0139              1482.7424              1488.7599
 Red. masses --      1.2539                 2.4054                 1.0907
 Frc consts  --      1.5769                 3.1157                 1.4243
 IR Inten    --     28.2435                67.9319                 0.7998

                     64                     65                     66
                      A                      A                      A
 Frequencies --   1494.1449              1505.3712              1529.3664
 Red. masses --      1.1634                 2.5785                 1.2769
 Frc consts  --      1.5302                 3.4428                 1.7597
 IR Inten    --     16.0260                56.3447                 2.6655

                     67                     68                     69
                      A                      A                      A
 Frequencies --   1533.4008              1539.7076              1619.8269
 Red. masses --      1.1063                 1.1032                 5.1267
 Frc consts  --      1.5326                 1.5409                 7.9255
 IR Inten    --     14.3261                13.4127                 9.6298

                     70                     71                     72
                      A                      A                      A
 Frequencies --   1637.1462              1682.5022              1759.2459
 Red. masses --      3.4644                 1.3598                 9.9270
 Frc consts  --      5.4708                 2.2680                18.1018
 IR Inten    --      8.7243               105.1750               235.2276

                     73                     74                     75
                      A                      A                      A
 Frequencies --   3044.9144              3101.7485              3107.4889
 Red. masses --      1.0420                 1.0999                 1.0875
 Frc consts  --      5.6919                 6.2348                 6.1873
 IR Inten    --     59.5273                34.7235                31.1696

                     76                     77                     78
                      A                      A                      A
 Frequencies --   3123.2874              3157.5279              3161.3660
 Red. masses --      1.0598                 1.0515                 1.0595
 Frc consts  --      6.0913                 6.1767                 6.2388
 IR Inten    --      8.9011                12.0888                 8.3142

                     79                     80                     81
                      A                      A                      A
 Frequencies --   3180.8315              3186.5403              3190.8582
 Red. masses --      1.0873                 1.0904                 1.1063
 Frc consts  --      6.4817                 6.5236                 6.6364
 IR Inten    --      5.3587                28.6002                 3.7117

                     82                     83                     84
                      A                      A                      A
 Frequencies --   3193.7021              3213.0775              3236.6779
 Red. masses --      1.0974                 1.0967                 1.1199
 Frc consts  --      6.5948                 6.6706                 6.9121
 IR Inten    --      1.2255                29.9387                 1.5755

                     85                     86                     87
                      A                      A                      A
 Frequencies --   3249.7225              3524.1304              3633.2749
 Red. masses --      1.1163                 1.0486                 1.0972
 Frc consts  --      6.9456                 7.6726                 8.5333
 IR Inten    --     13.3144                19.5599                20.1019

 - Thermochemistry -
 -------------------
 Temperature   298.150 Kelvin.  Pressure   1.00000 Atm.
 Atom     1 has atomic number  6 and mass  12.00000

 Molecular mass:   237.09358 amu.
 Principal axes and moments of inertia in atomic units:
                           1         2         3
     Eigenvalues --  1801.382336675.193256888.49176
           X            0.99998   0.00593  -0.00079
           Y           -0.00584   0.99649   0.08355
           Z            0.00128  -0.08354   0.99650
 This molecule is an asymmetric top.
 Rotational symmetry number  1.
 Warning -- assumption of classical behavior for rotation
           may cause significant error
 Rotational temperatures (Kelvin)      0.04808     0.01298     0.01257
 Rotational constants (GHZ):           1.00186     0.27037     0.26199
 Zero-point vibrational energy     666512.7 (Joules/Mol)
                                  159.30037 (Kcal/Mol)
 Warning -- explicit consideration of  24 degrees of freedom as
           vibrations may cause significant error
 Vibrational temperatures:     17.65    35.24    58.11    85.94   126.97
          (Kelvin)            143.70   148.15   199.60   265.99   324.68
                              342.29   380.76   429.35   500.47   516.48
                              571.48   582.81   602.94   662.79   689.84
                              728.55   797.06   819.12   828.44   923.13
                              963.79   998.96  1042.40  1096.66  1137.04
                             1152.85  1168.53  1213.25  1239.78  1290.82
                             1316.01  1343.52  1391.95  1396.80  1444.71
                             1540.27  1546.76  1575.37  1580.83  1583.43
                             1634.37  1637.83  1648.59  1680.81  1689.30
                             1742.95  1754.22  1776.27  1822.44  1843.88
                             1896.89  1918.04  1948.71  2032.15  2041.14
                             2102.07  2133.34  2141.99  2149.74  2165.89
                             2200.42  2206.22  2215.30  2330.57  2355.49
                             2420.75  2531.16  4380.95  4462.72  4470.98
                             4493.71  4542.98  4548.50  4576.51  4584.72
                             4590.93  4595.03  4622.90  4656.86  4675.63
                             5070.44  5227.47

 Zero-point correction=                           0.253861 (Hartree/Particle)
 Thermal correction to Energy=                    0.270031
 Thermal correction to Enthalpy=                  0.270975
 Thermal correction to Gibbs Free Energy=         0.207300
 Sum of electronic and zero-point Energies=          -1065.648932
 Sum of electronic and thermal Energies=             -1065.632763
 Sum of electronic and thermal Enthalpies=           -1065.631819
 Sum of electronic and thermal Free Energies=        -1065.695493

                     E (Thermal)             CV                S
                      KCal/Mol        Cal/Mol-Kelvin    Cal/Mol-Kelvin
 Total                  169.447             59.982            134.015
 Electronic               0.000              0.000              0.000
 Translational            0.889              2.981             42.291
 Rotational               0.889              2.981             32.782
 Vibrational            167.669             54.020             58.941
 Vibration     1          0.593              1.987              7.606
 Vibration     2          0.593              1.985              6.232
 Vibration     3          0.594              1.981              5.240
 Vibration     4          0.597              1.974              4.466
 Vibration     5          0.601              1.957              3.699
 Vibration     6          0.604              1.949              3.457
 Vibration     7          0.605              1.947              3.397
 Vibration     8          0.614              1.915              2.821
 Vibration     9          0.631              1.860              2.279
 Vibration    10          0.650              1.802              1.913
 Vibration    11          0.656              1.783              1.819
 Vibration    12          0.671              1.738              1.631
 Vibration    13          0.692              1.677              1.426
 Vibration    14          0.725              1.580              1.176
 Vibration    15          0.734              1.557              1.127
 Vibration    16          0.764              1.476              0.973
 Vibration    17          0.770              1.459              0.944
 Vibration    18          0.782              1.429              0.895
 Vibration    19          0.818              1.337              0.764
 Vibration    20          0.836              1.296              0.712
 Vibration    21          0.862              1.236              0.642
 Vibration    22          0.909              1.131              0.536
 Vibration    23          0.925              1.098              0.506
 Vibration    24          0.932              1.084              0.493

 Optimization completed.
    -- Stationary point found.
 Normal termination of Gaussian 16 at Thu Dec 10 23:27:50 2020.

 ----------------------------------------------------------------------
 # B3LYP/6-311++G(d,p) empiricaldispersion=gd3bj scf=xqc pop=npa geom=c
 heck
 ----------------------------------------------------------------------

 --------------------------------------
 CID_61489349_JID_6736_Energie_neutraal
 --------------------------------------
 Structure from the checkpoint file:  "JID_6736.chk"
 Charge =  0 Multiplicity = 1

 SCF Done:  E(RB3LYP) =  -1066.11914967     A.U. after   16 cycles
 Normal termination of Gaussian 16 at Thu Dec 10 23:32:11 2020.

 ----------------------------------------------------------------------
 # B3LYP/6-311++G(d,p) empiricaldispersion=gd3bj scf=xqc pop=npa geom=c
 heck
 ----------------------------------------------------------------------

 ------------------------------------
 CID_61489349_JID_6736_Energie_kation
 ------------------------------------
 Structure from the checkpoint file:  "JID_6736.chk"
 Charge =  1 Multiplicity = 2

 SCF Done:  E(UB3LYP) =  -1065.84343262     A.U. after   26 cycles
 Normal termination of Gaussian 16 at Thu Dec 10 23:41:49 2020.
 Gaussian 16:  ES64L-G16RevA.03 25-Dec-2016

 ----------------------------------------------------------------------
 # B3LYP/6-311++G(d,p) empiricaldispersion=gd3bj scf=xqc pop=npa geom=c
 heck
 ----------------------------------------------------------------------

 -----------------------------------
 CID_61489349_JID_6736_Energie_anion
 -----------------------------------
 Structure from the checkpoint file:  "JID_6736.chk"
 Charge = -1 Multiplicity = 2

                         Standard orientation:
 ---------------------------------------------------------------------
 Center     Atomic      Atomic             Coordinates (Angstroms)
 Number     Number       Type             X           Y           Z
 ---------------------------------------------------------------------
      1          6           0       -2.934844    2.172886    0.279076
      2          7           0       -2.438192    0.883223   -0.189165
      3          6           0       -3.422035   -0.135467   -0.440639
      4          6           0       -3.291509   -1.498793    0.193878
      5          6           0       -4.338722   -0.540601    0.688628
      6          6           0       -1.120719    0.801147   -0.591418
      7          8           0       -0.324343    1.717719   -0.416255
      8          6           0       -0.653350   -0.490482   -1.244308
      9         16           0        0.289513   -1.517525   -0.040476
     10          6           0        1.853616   -0.625754   -0.101770
     11          6           0        2.403754   -0.107302    1.092226
     12          6           0        3.629487    0.566441    0.974207
     13          6           0        4.220260    0.709056   -0.273860
     14          6           0        3.575633    0.173256   -1.389734
     15          7           0        2.420437   -0.488616   -1.294458
     16          7           0        1.790470   -0.290078    2.323371
     17          1           0       -3.395088    2.075800    1.267737
     18          1           0       -3.687635    2.568867   -0.414405
     19          1           0       -2.091146    2.858842    0.333845
     20          1           0       -3.878898   -0.097319   -1.431364
     21          1           0       -3.597141   -2.360508   -0.392559
     22          1           0       -2.428563   -1.666132    0.829955
     23          1           0       -4.172587   -0.080820    1.657716
     24          1           0       -5.381419   -0.726665    0.450183
     25          1           0       -1.453285   -1.116050   -1.636262
     26          1           0        0.047991   -0.240053   -2.042015
     27          1           0        4.097297    0.984158    1.862495
     28          1           0        5.163813    1.234930   -0.382808
     29          1           0        3.996717    0.273073   -2.387067
     30          1           0        0.793389   -0.467118    2.254798
     31          1           0        2.010650    0.419604    3.011457
 ---------------------------------------------------------------------

 SCF Done:  E(UB3LYP) =  -1066.11385680     A.U. after   33 cycles
 SCF Done:  E(UB3LYP) =  -1066.11385680     a.u. after    1 cycles

 The electronic state is 2-A.
 Alpha  occ. eigenvalues --  -88.72605 -18.96584 -14.23352 -14.21436 -14.17771
 Alpha  occ. eigenvalues --  -10.15087 -10.11166 -10.10602 -10.09849 -10.09141
 Alpha  occ. eigenvalues --  -10.07876 -10.07828 -10.07824 -10.07657 -10.05880
 Alpha  occ. eigenvalues --  -10.05691  -7.81210  -5.77594  -5.77229  -5.76614
 Alpha  occ. eigenvalues --   -0.92113  -0.83473  -0.83339  -0.80174  -0.74564
 Alpha  occ. eigenvalues --   -0.68825  -0.66784  -0.63017  -0.59786  -0.55166
 Alpha  occ. eigenvalues --   -0.52683  -0.51088  -0.50809  -0.48540  -0.43887
 Alpha  occ. eigenvalues --   -0.41598  -0.40756  -0.40471  -0.39108  -0.37438
 Alpha  occ. eigenvalues --   -0.36311  -0.34228  -0.34216  -0.31902  -0.31772
 Alpha  occ. eigenvalues --   -0.30982  -0.29581  -0.29157  -0.28023  -0.27971
 Alpha  occ. eigenvalues --   -0.27141  -0.26959  -0.24603  -0.22500  -0.21854
 Alpha  occ. eigenvalues --   -0.20865  -0.20462  -0.16813  -0.14756  -0.13760
 Alpha  occ. eigenvalues --   -0.13647  -0.12314  -0.09667   0.04407
 Alpha virt. eigenvalues --    0.06304   0.07441   0.07981   0.08277   0.08682
 Alpha virt. eigenvalues --    0.09349   0.10227   0.10484   0.11059   0.11444
 Alpha virt. eigenvalues --    0.11637   0.11974   0.12849   0.13266   0.13618

  Beta  occ. eigenvalues --  -88.72585 -18.96514 -14.23354 -14.21441 -14.17513
  Beta  occ. eigenvalues --  -10.15008 -10.11139 -10.10648 -10.09727 -10.09128
  Beta  occ. eigenvalues --  -10.07916 -10.07806 -10.07740 -10.07646 -10.05724
  Beta  occ. eigenvalues --  -10.05583  -7.81187  -5.77546  -5.77213  -5.76598
  Beta  occ. eigenvalues --   -0.91982  -0.83414  -0.83134  -0.80008  -0.74527
  Beta  occ. eigenvalues --   -0.68573  -0.66483  -0.62845  -0.59698  -0.54939
  Beta  occ. eigenvalues --   -0.52576  -0.50994  -0.50747  -0.48333  -0.43811
  Beta  occ. eigenvalues --   -0.41514  -0.40673  -0.40391  -0.39015  -0.37331
  Beta  occ. eigenvalues --   -0.36225  -0.34124  -0.34100  -0.31829  -0.31651
  Beta  occ. eigenvalues --   -0.30680  -0.29474  -0.28883  -0.27897  -0.27846
  Beta  occ. eigenvalues --   -0.27048  -0.26758  -0.24388  -0.22150  -0.21774
  Beta  occ. eigenvalues --   -0.20660  -0.20366  -0.15898  -0.14625  -0.13523
  Beta  occ. eigenvalues --   -0.13442  -0.11966  -0.09349
  Beta virt. eigenvalues --    0.06960   0.07457   0.08032   0.08545   0.08646
  Beta virt. eigenvalues --    0.09113   0.09626   0.10438   0.10637   0.11368
  Beta virt. eigenvalues --    0.11496   0.11966   0.12106   0.12908   0.13430

 Mulliken charges and spin densities:
               1          2
     1  C    0.345123  -0.571224
     2  N    0.164769   0.032886
     3  C   -1.227654   0.893621
     4  C    0.412901  -0.652644
     5  C    0.891719  -1.294937
     6  C   -0.366161  -0.186001
     7  O   -0.285612   0.025639
     8  C   -0.078187   0.089064
     9  S   -0.268182   0.132351
    10  C   -0.330850   0.145874
    11  C    0.095127  -0.069544
    12  C   -0.308841   0.081518
    13  C   -0.057624   0.113891
    14  C   -0.192492  -0.033412
    15  N    0.013417   0.119750
    16  N   -0.287631   0.010097
    17  H    0.066099   0.042276
    18  H   -0.206949   0.357652
    19  H    0.175984  -0.001297
    20  H   -0.614229   0.843431
    21  H   -0.002736   0.162964
    22  H    0.203690  -0.060627
    23  H    0.166078  -0.050022
    24  H   -0.480092   0.645352
    25  H    0.056214   0.236971
    26  H    0.257726   0.002917
    27  H    0.121927  -0.012074
    28  H    0.122012  -0.006236
    29  H    0.145340   0.000958
    30  H    0.251141  -0.002036
    31  H    0.217973   0.002841
 Sum of Mulliken charges =  -1.00000   1.00000

 Dipole moment (field-independent basis, Debye):
    X=              4.1429    Y=              1.2693    Z=              4.5754  Tot=              6.3016
 Quadrupole moment (field-independent basis, Debye-Ang):
   XX=           -180.6842   YY=           -131.3001   ZZ=           -119.6145
   XY=              1.7647   XZ=             -8.3734   YZ=              3.2213

 Summary of Natural Population Analysis:

                                       Natural Population
                Natural  -----------------------------------------------
    Atom  No    Charge         Core      Valence    Rydberg      Total
 -----------------------------------------------------------------------
      C    1   -0.17841      0.99964     2.17102    0.00775     3.17841
      N    2   -0.26322      0.99963     2.75183    0.01176     3.76322
      C    3   -0.01617      0.99956     2.00253    0.01407     3.01617
      C    4   -0.20242      0.99961     2.19262    0.01019     3.20242
      C    5   -0.19853      0.99961     2.18926    0.00967     3.19853
      C    6    0.35162      0.99963     1.62393    0.02481     2.64838
      O    7   -0.32021      0.99988     3.31488    0.00545     4.32021
      C    8   -0.27888      0.99955     2.26746    0.01188     3.27888
      S    9    0.09668      4.99957     2.88407    0.01969     7.90332
      C   10    0.04402      0.99942     1.93860    0.01796     2.95598
      C   11    0.06014      0.99942     1.92974    0.01070     2.93986
      C   12   -0.08517      0.99953     2.07732    0.00832     3.08517
      C   13   -0.10152      0.99957     2.09358    0.00837     3.10152
      C   14   -0.00018      0.99960     1.98645    0.01413     3.00018
      N   15   -0.20383      0.99965     2.69122    0.01297     3.70383
      N   16   -0.39997      0.99971     2.89189    0.00837     3.89997
      H   17    0.08853      0.00000     0.41052    0.00095     0.41147
      H   18    0.09264      0.00000     0.40625    0.00112     0.40736
      H   19    0.11452      0.00000     0.38433    0.00115     0.38548
      H   20    0.10254      0.00000     0.39194    0.00552     0.39746
      H   21    0.10506      0.00000     0.39383    0.00111     0.39494
      H   22    0.11051      0.00000     0.38810    0.00139     0.38949
      H   23    0.10135      0.00000     0.39767    0.00097     0.39865
      H   24    0.10698      0.00000     0.39104    0.00197     0.39302
      H   25    0.10948      0.00000     0.38892    0.00160     0.39052
      H   26    0.12483      0.00000     0.37352    0.00165     0.37517
      H   27    0.09001      0.00000     0.40850    0.00150     0.40999
      H   28    0.09363      0.00000     0.40522    0.00115     0.40637
      H   29    0.08361      0.00000     0.41518    0.00121     0.41639
      H   30    0.19350      0.00000     0.30478    0.00172     0.30650
      H   31    0.17886      0.00000     0.31961    0.00153     0.32114
 =======================================================================
   * Total *    0.00000     19.99357    42.78583    0.22061    63.00000

 Normal termination of Gaussian 16 at Thu Dec 10 23:54:13 2020.
