 Gaussian 16, Revision A.03,

 -----------------------------------------------------------
 # opt freq B3LYP/6-31G(d) empiricaldispersion=gd3bj scf=xqc
 -----------------------------------------------------------

 ------------------------------
 CID_152870742_JID_924_neutraal
 ------------------------------
 Symbolic Z-matrix:
 Charge =  0 Multiplicity = 1

 SCF Done:  E(RB3LYP) =  -406.712118012     A.U. after   13 cycles
 SCF Done:  E(RB3LYP) =  -406.729031813     A.U. after   11 cycles
 SCF Done:  E(RB3LYP) =  -406.731305511     A.U. after   11 cycles
 SCF Done:  E(RB3LYP) =  -406.731576668     A.U. after   10 cycles
 SCF Done:  E(RB3LYP) =  -406.731633310     A.U. after   10 cycles
 SCF Done:  E(RB3LYP) =  -406.731657301     A.U. after    9 cycles
 SCF Done:  E(RB3LYP) =  -406.731671117     A.U. after    9 cycles
 SCF Done:  E(RB3LYP) =  -406.731678949     A.U. after    9 cycles
 SCF Done:  E(RB3LYP) =  -406.731681871     A.U. after    8 cycles
 SCF Done:  E(RB3LYP) =  -406.731682922     A.U. after    7 cycles
 SCF Done:  E(RB3LYP) =  -406.731683542     A.U. after    7 cycles
 SCF Done:  E(RB3LYP) =  -406.731683810     A.U. after    7 cycles
 SCF Done:  E(RB3LYP) =  -406.731683906     A.U. after    7 cycles
 SCF Done:  E(RB3LYP) =  -406.731683951     A.U. after    7 cycles
 SCF Done:  E(RB3LYP) =  -406.731683981     A.U. after    7 cycles
 SCF Done:  E(RB3LYP) =  -406.731683995     A.U. after    7 cycles
 Optimization completed.
    -- Stationary point found.

 1\1\GINC-NODE123\FOpt\RB3LYP\6-31G(d)\C9H15N1\VSC10255\08-Dec-2020\0\\
 # opt freq B3LYP/6-31G(d) empiricaldispersion=gd3bj scf=xqc\\CID_15287
 0742_JID_924_neutraal\\0,1\C,1.0002095281,0.0856389999,0.0555843551\C,
 0.5475196629,1.517384837,0.0275149798\C,0.0806968705,2.1763774152,-1.0
 364925753\C,-0.0288372782,1.642434533,-2.4600039957\C,-0.1724992189,2.
 8960478227,-3.3431385506\C,-1.5941508646,3.3875780244,-3.7396931332\C,
 -1.2004404281,4.8092865038,-3.2262101437\C,-0.0382100831,4.1593050253,
 -2.434355334\C,-0.3701028575,3.6263201187,-1.0248063469\N,-2.114564743

 Normal termination of Gaussian 16 at Tue Dec  8 13:33:04 2020.

 --------------------------------------------------------------------
 #N Geom=AllCheck Guess=TCheck SCRF=Check GenChk RB3LYP/6-31G(d) Freq
 --------------------------------------------------------------------

 Structure from the checkpoint file:  "JID_924.chk"
 ------------------------------
 CID_152870742_JID_924_neutraal
 ------------------------------
 Charge =  0 Multiplicity = 1

 SCF Done:  E(RB3LYP) =  -406.731683995     A.U. after    1 cycles

  Exact polarizability: 128.285  -4.982  89.916   0.422   0.310  74.202
 Approx polarizability: 159.182  -9.042 130.097   0.386   1.384 112.612

                      1                      2                      3
                      A                      A                      A
 Frequencies --     40.1174               105.3524               126.7635
 Red. masses --      2.8718                 2.4275                 1.0623
 Frc consts  --      0.0027                 0.0159                 0.0101
 IR Inten    --      0.0705                 1.3327                 0.2872

                      4                      5                      6
                      A                      A                      A
 Frequencies --    163.7860               224.0902               242.8577
 Red. masses --      3.2824                 3.1091                 1.1990
 Frc consts  --      0.0519                 0.0920                 0.0417
 IR Inten    --      0.1766                 1.7209                44.4078

                      7                      8                      9
                      A                      A                      A
 Frequencies --    264.9319               332.4678               391.0874
 Red. masses --      1.8684                 2.6454                 2.3695
 Frc consts  --      0.0773                 0.1723                 0.2135
 IR Inten    --     23.3939                 1.2646                 9.2982

                     10                     11                     12
                      A                      A                      A
 Frequencies --    406.1289               473.1051               514.2474
 Red. masses --      1.9191                 3.0983                 3.2078
 Frc consts  --      0.1865                 0.4086                 0.4998
 IR Inten    --      3.2257                 0.5052                 0.4701

                     13                     14                     15
                      A                      A                      A
 Frequencies --    601.5724               638.2269               671.6893
 Red. masses --      2.4726                 3.6734                 2.4404
 Frc consts  --      0.5272                 0.8816                 0.6487
 IR Inten    --      1.3681                 2.8335                 5.7669

                     16                     17                     18
                      A                      A                      A
 Frequencies --    791.5856               807.3754               822.4255
 Red. masses --      2.5617                 1.9812                 1.6388
 Frc consts  --      0.9457                 0.7609                 0.6531
 IR Inten    --      2.5749                 7.0047                 5.9950

                     19                     20                     21
                      A                      A                      A
 Frequencies --    847.9510               871.5404               891.3999
 Red. masses --      2.3549                 1.6797                 1.6990
 Frc consts  --      0.9976                 0.7517                 0.7954
 IR Inten    --     14.4716               112.3588                 3.7124

                     22                     23                     24
                      A                      A                      A
 Frequencies --    903.6384               952.7651               985.2550
 Red. masses --      1.6734                 1.7279                 1.6751
 Frc consts  --      0.8051                 0.9241                 0.9581
 IR Inten    --      2.2847                35.3449                 8.6277

                     25                     26                     27
                      A                      A                      A
 Frequencies --   1015.4824              1037.2837              1054.6382
 Red. masses --      1.8174                 1.8267                 1.9655
 Frc consts  --      1.1042                 1.1580                 1.2880
 IR Inten    --      7.6442                 8.1100                 9.2124

                     28                     29                     30
                      A                      A                      A
 Frequencies --   1070.9980              1074.5838              1086.2541
 Red. masses --      1.7386                 1.8349                 2.1242
 Frc consts  --      1.1749                 1.2484                 1.4767
 IR Inten    --      6.0070                 5.4967                 4.0057

                     31                     32                     33
                      A                      A                      A
 Frequencies --   1108.7834              1165.6849              1176.1397
 Red. masses --      2.0192                 1.3086                 1.6533
 Frc consts  --      1.4626                 1.0477                 1.3475
 IR Inten    --      6.8126                 4.3894                 3.8231

                     34                     35                     36
                      A                      A                      A
 Frequencies --   1196.2359              1216.9356              1217.8065
 Red. masses --      1.7653                 2.2579                 1.3489
 Frc consts  --      1.4884                 1.9701                 1.1787
 IR Inten    --      3.1475                 1.9516                 2.9535

                     37                     38                     39
                      A                      A                      A
 Frequencies --   1258.7428              1268.3375              1278.0537
 Red. masses --      1.4524                 1.3454                 1.6057
 Frc consts  --      1.3558                 1.2752                 1.5453
 IR Inten    --      1.6943                 2.2011                 5.1088

                     40                     41                     42
                      A                      A                      A
 Frequencies --   1299.4060              1314.5022              1323.6419
 Red. masses --      1.4494                 1.3299                 1.5386
 Frc consts  --      1.4419                 1.3539                 1.5883
 IR Inten    --      1.9481                 2.2910                 5.9183

                     43                     44                     45
                      A                      A                      A
 Frequencies --   1349.9203              1368.7740              1395.5420
 Red. masses --      1.4149                 1.4353                 1.4914
 Frc consts  --      1.5192                 1.5843                 1.7113
 IR Inten    --     10.3417                 1.0717                 0.7075

                     46                     47                     48
                      A                      A                      A
 Frequencies --   1442.7210              1450.0059              1504.0072
 Red. masses --      1.2649                 1.3604                 1.0907
 Frc consts  --      1.5512                 1.6853                 1.4536
 IR Inten    --      1.0527                18.7607                 3.7861

                     49                     50                     51
                      A                      A                      A
 Frequencies --   1507.4628              1515.6083              1520.6764
 Red. masses --      1.0965                 1.0483                 1.0964
 Frc consts  --      1.4681                 1.4188                 1.4938
 IR Inten    --      0.0737                 3.4070                 4.8901

                     52                     53                     54
                      A                      A                      A
 Frequencies --   1522.9369              1697.6807              1768.7730
 Red. masses --      1.0649                 1.0934                 7.5732
 Frc consts  --      1.4552                 1.8568                13.9596
 IR Inten    --      5.1873                37.6613                 0.7239

                     55                     56                     57
                      A                      A                      A
 Frequencies --   3011.0344              3029.1947              3030.7321
 Red. masses --      1.0718                 1.0440                 1.0625
 Frc consts  --      5.7255                 5.6442                 5.7503
 IR Inten    --     31.2666                30.4867                36.3773

                     58                     59                     60
                      A                      A                      A
 Frequencies --   3049.2716              3063.0945              3071.2342
 Red. masses --      1.0620                 1.0846                 1.0992
 Frc consts  --      5.8177                 5.9955                 6.1089
 IR Inten    --     36.9389                19.9026                34.9037

                     61                     62                     63
                      A                      A                      A
 Frequencies --   3073.4534              3084.4855              3094.7936
 Red. masses --      1.0958                 1.0875                 1.0934
 Frc consts  --      6.0988                 6.0958                 6.1701
 IR Inten    --      8.6449                21.1488                25.5519

                     64                     65                     66
                      A                      A                      A
 Frequencies --   3107.6235              3113.7304              3123.2250
 Red. masses --      1.0935                 1.0982                 1.0945
 Frc consts  --      6.2220                 6.2732                 6.2905
 IR Inten    --     59.0617                65.3875                 4.8736

                     67                     68                     69
                      A                      A                      A
 Frequencies --   3142.6480              3466.5354              3548.6889
 Red. masses --      1.0908                 1.0493                 1.0919
 Frc consts  --      6.3475                 7.4294                 8.1019
 IR Inten    --     46.6154                 2.0627                 1.2627

 - Thermochemistry -
 -------------------
 Temperature   298.150 Kelvin.  Pressure   1.00000 Atm.
 Atom     1 has atomic number  6 and mass  12.00000

 Molecular mass:   137.12045 amu.
 Principal axes and moments of inertia in atomic units:
                           1         2         3
     Eigenvalues --   563.488812357.504152670.87063
           X            1.00000  -0.00042   0.00238
           Y            0.00041   0.99999   0.00406
           Z           -0.00238  -0.00406   0.99999
 This molecule is an asymmetric top.
 Rotational symmetry number  1.
 Warning -- assumption of classical behavior for rotation
           may cause significant error
 Rotational temperatures (Kelvin)      0.15371     0.03674     0.03243
 Rotational constants (GHZ):           3.20280     0.76553     0.67571
 Zero-point vibrational energy     593872.5 (Joules/Mol)
                                  141.93893 (Kcal/Mol)
 Warning -- explicit consideration of  13 degrees of freedom as
           vibrations may cause significant error
 Vibrational temperatures:     57.72   151.58   182.38   235.65   322.42
          (Kelvin)            349.42   381.18   478.35   562.69   584.33
                              680.69   739.89   865.53   918.27   966.41
                             1138.92  1161.63  1183.29  1220.01  1253.95
                             1282.53  1300.13  1370.82  1417.56  1461.05
                             1492.42  1517.39  1540.93  1546.09  1562.88
                             1595.29  1677.16  1692.20  1721.12  1750.90
                             1752.15  1811.05  1824.85  1838.83  1869.56
                             1891.28  1904.43  1942.23  1969.36  2007.87
                             2075.75  2086.24  2163.93  2168.90  2180.62
                             2187.91  2191.17  2442.58  2544.87  4332.21
                             4358.34  4360.55  4387.22  4407.11  4418.82
                             4422.01  4437.89  4452.72  4471.18  4479.96
                             4493.62  4521.57  4987.57  5105.77

 Zero-point correction=                           0.226194 (Hartree/Particle)
 Thermal correction to Energy=                    0.236253
 Thermal correction to Enthalpy=                  0.237197
 Thermal correction to Gibbs Free Energy=         0.190661
 Sum of electronic and zero-point Energies=           -406.505490
 Sum of electronic and thermal Energies=              -406.495431
 Sum of electronic and thermal Enthalpies=            -406.494487
 Sum of electronic and thermal Free Energies=         -406.541023

                     E (Thermal)             CV                S
                      KCal/Mol        Cal/Mol-Kelvin    Cal/Mol-Kelvin
 Total                  148.251             38.943             97.942
 Electronic               0.000              0.000              0.000
 Translational            0.889              2.981             40.659
 Rotational               0.889              2.981             29.652
 Vibrational            146.473             32.982             27.632
 Vibration     1          0.594              1.981              5.253
 Vibration     2          0.605              1.945              3.353
 Vibration     3          0.611              1.926              2.995
 Vibration     4          0.623              1.887              2.506
 Vibration     5          0.649              1.804              1.926
 Vibration     6          0.659              1.775              1.782
 Vibration     7          0.671              1.737              1.629
 Vibration     8          0.714              1.611              1.248
 Vibration     9          0.759              1.489              0.996
 Vibration    10          0.771              1.457              0.940
 Vibration    11          0.830              1.310              0.729
 Vibration    12          0.869              1.218              0.623
 Vibration    13          0.960              1.028              0.447

                           ! Non-Optimized Parameters !

 1\1\GINC-NODE123\Freq\RB3LYP\6-31G(d)\C9H15N1\VSC10255\08-Dec-2020\0\\
 #N Geom=AllCheck Guess=TCheck SCRF=Check GenChk RB3LYP/6-31G(d) Freq\\
 CID_152870742_JID_924_neutraal\\0,1\C,1.0002095281,0.0856389999,0.0555
 843551\C,0.5475196629,1.517384837,0.0275149798\C,0.0806968705,2.176377
 4152,-1.0364925753\C,-0.0288372782,1.642434533,-2.4600039957\C,-0.1724
 992189,2.8960478227,-3.3431385506\C,-1.5941508646,3.3875780244,-3.7396
 931332\C,-1.2004404281,4.8092865038,-3.2262101437\C,-0.0382100831,4.15
 93050253,-2.434355334\C,-0.3701028575,3.6263201187,-1.0248063469\N,-2.

 Normal termination of Gaussian 16 at Tue Dec  8 13:38:41 2020.

 ----------------------------------------------------------------------
 # B3LYP/6-311++G(d,p) empiricaldispersion=gd3bj scf=xqc pop=npa geom=c
 heck
 ----------------------------------------------------------------------

 --------------------------------------
 CID_152870742_JID_924_Energie_neutraal
 --------------------------------------
 Structure from the checkpoint file:  "JID_924.chk"
 Charge =  0 Multiplicity = 1

 SCF Done:  E(RB3LYP) =  -406.848929202     A.U. after   13 cycles
 Normal termination of Gaussian 16 at Tue Dec  8 13:41:53 2020.

 ----------------------------------------------------------------------
 # B3LYP/6-311++G(d,p) empiricaldispersion=gd3bj scf=xqc pop=npa geom=c
 heck
 ----------------------------------------------------------------------

 ------------------------------------
 CID_152870742_JID_924_Energie_kation
 ------------------------------------
 Structure from the checkpoint file:  "JID_924.chk"
 Charge =  1 Multiplicity = 2

 SCF Done:  E(UB3LYP) =  -406.549070226     A.U. after   21 cycles
 Normal termination of Gaussian 16 at Tue Dec  8 13:49:58 2020.
 Gaussian 16:  ES64L-G16RevA.03 25-Dec-2016

 -----------------------------------
 CID_152870742_JID_924_Energie_anion
 -----------------------------------
 Structure from the checkpoint file:  "JID_924.chk"
 Charge = -1 Multiplicity = 2

                         Standard orientation:
 ---------------------------------------------------------------------
 Center     Atomic      Atomic             Coordinates (Angstroms)
 Number     Number       Type             X           Y           Z
 ---------------------------------------------------------------------
      1          6           0        3.805756   -0.010423   -0.202232
      2          6           0        2.536264   -0.797862   -0.047500
      3          6           0        1.296886   -0.300073   -0.026169
      4          6           0        0.907926    1.172594   -0.084813
      5          6           0       -0.543188    1.219615    0.429162
      6          6           0       -1.713786    1.180513   -0.594616
      7          6           0       -2.337670    0.007340    0.226580
      8          6           0       -0.953270   -0.217002    0.884907
      9          6           0        0.035323   -1.130511    0.130427
     10          7           0       -3.001893   -1.130886   -0.383141
     11          1           0        3.623146    1.068159   -0.216338
     12          1           0        4.322448   -0.270399   -1.136723
     13          1           0        4.509022   -0.225500    0.613543
     14          1           0        2.657037   -1.877922    0.047072
     15          1           0        1.576820    1.782727    0.532886
     16          1           0        0.980364    1.570845   -1.106571
     17          1           0       -0.699835    1.988197    1.190955
     18          1           0       -1.373585    0.843760   -1.582026
     19          1           0       -2.311397    2.088870   -0.725512
     20          1           0       -3.021298    0.417665    0.978620
     21          1           0       -0.951899   -0.435758    1.957171
     22          1           0       -0.353639   -1.382588   -0.867736
     23          1           0        0.213891   -2.082374    0.638782
     24          1           0       -3.904418   -0.846208   -0.760665
     25          1           0       -2.458855   -1.468409   -1.175947
 ---------------------------------------------------------------------

 SCF Done:  E(UB3LYP) =  -406.832184397     A.U. after   32 cycles

 The electronic state is 2-A.
 Alpha  occ. eigenvalues --  -14.18643 -10.08813 -10.06689 -10.06329 -10.06282
 Alpha  occ. eigenvalues --  -10.06160 -10.06082 -10.06067 -10.05747 -10.05284
 Alpha  occ. eigenvalues --   -0.79043  -0.74219  -0.68840  -0.63157  -0.61141
 Alpha  occ. eigenvalues --   -0.55550  -0.51754  -0.49272  -0.42640  -0.41485
 Alpha  occ. eigenvalues --   -0.40068  -0.37724  -0.35597  -0.33272  -0.32519
 Alpha  occ. eigenvalues --   -0.31614  -0.30325  -0.28720  -0.27476  -0.27157
 Alpha  occ. eigenvalues --   -0.25739  -0.24075  -0.22651  -0.20922  -0.19590
 Alpha  occ. eigenvalues --   -0.19288  -0.13369  -0.12924   0.04673
 Alpha virt. eigenvalues --    0.06553   0.07465   0.08194   0.08922   0.09320
 Alpha virt. eigenvalues --    0.09868   0.10642   0.10821   0.11410   0.11879
 Alpha virt. eigenvalues --    0.12394   0.13071   0.13722   0.14384   0.15057

  Beta  occ. eigenvalues --  -14.18607 -10.08800 -10.06691 -10.06317 -10.06263
  Beta  occ. eigenvalues --  -10.06128 -10.06063 -10.06061 -10.05738 -10.05258
  Beta  occ. eigenvalues --   -0.78990  -0.74177  -0.68809  -0.63117  -0.61100
  Beta  occ. eigenvalues --   -0.55501  -0.51691  -0.49215  -0.42599  -0.41441
  Beta  occ. eigenvalues --   -0.40005  -0.37689  -0.35535  -0.33229  -0.32491
  Beta  occ. eigenvalues --   -0.31572  -0.30291  -0.28682  -0.27437  -0.27116
  Beta  occ. eigenvalues --   -0.25704  -0.24049  -0.22620  -0.20884  -0.19562
  Beta  occ. eigenvalues --   -0.19251  -0.13340  -0.12894
  Beta virt. eigenvalues --    0.06874   0.07663   0.08207   0.08653   0.09498
  Beta virt. eigenvalues --    0.10002   0.10401   0.10913   0.11212   0.11815
  Beta virt. eigenvalues --    0.12395   0.12799   0.13530   0.14124   0.14743

 Mulliken charges and spin densities:
               1          2
     1  C    1.666547  -2.404621
     2  C    0.416209  -0.741799
     3  C   -1.516119   2.661992
     4  C    1.586017  -2.707306
     5  C   -2.243726   2.594268
     6  C    1.095216  -1.595257
     7  C    0.197735  -0.797843
     8  C    0.632007  -0.288821
     9  C    0.166116  -0.922927
    10  N   -0.320158   0.033927
    11  H   -0.109954   0.260106
    12  H   -0.209750   0.346769
    13  H   -0.266191   0.400639
    14  H   -0.260776   0.421320
    15  H   -0.121869   0.256141
    16  H   -0.087245   0.250719
    17  H   -0.500602   0.715331
    18  H   -0.181600   0.310691
    19  H   -0.477861   0.638751
    20  H   -0.241948   0.407406
    21  H   -0.082096   0.282291
    22  H   -0.066082   0.195274
    23  H    0.119200   0.047122
    24  H   -0.216363   0.458536
    25  H    0.023291   0.177289
 Sum of Mulliken charges =  -1.00000   1.00000

 Dipole moment (field-independent basis, Debye):
    X=              1.4695    Y=             -1.2807    Z=              0.3952  Tot=              1.9889
 Quadrupole moment (field-independent basis, Debye-Ang):
   XX=           -139.6808   YY=           -101.1964   ZZ=            -93.4013
   XY=              1.4848   XZ=             -2.4570   YZ=             -0.5191

 Summary of Natural Population Analysis:

                                       Natural Population
                Natural  -----------------------------------------------
    Atom  No    Charge         Core      Valence    Rydberg      Total
 -----------------------------------------------------------------------
      C    1   -0.29636      0.99965     2.29200    0.00471     3.29636
      C    2   -0.09925      0.99944     2.09122    0.00859     3.09925
      C    3   -0.00140      0.99950     1.99139    0.01051     3.00140
      C    4   -0.20889      0.99958     2.20079    0.00853     3.20889
      C    5   -0.10624      0.99961     2.09532    0.01131     3.10624
      C    6   -0.19416      0.99961     2.18499    0.00956     3.19416
      C    7   -0.00988      0.99957     1.99555    0.01477     3.00988
      C    8   -0.09943      0.99958     2.08956    0.01028     3.09943
      C    9   -0.20353      0.99958     2.19503    0.00893     3.20353
      N   10   -0.42040      0.99975     2.91001    0.01063     3.92040
      H   11    0.10140      0.00000     0.39735    0.00125     0.39860
      H   12    0.10058      0.00000     0.39780    0.00163     0.39942
      H   13    0.09973      0.00000     0.39860    0.00167     0.40027
      H   14    0.08967      0.00000     0.40874    0.00159     0.41033
      H   15    0.10631      0.00000     0.39227    0.00142     0.39369
      H   16    0.10418      0.00000     0.39454    0.00128     0.39582
      H   17    0.10098      0.00000     0.39768    0.00134     0.39902
      H   18    0.09318      0.00000     0.40477    0.00205     0.40682
      H   19    0.10027      0.00000     0.39739    0.00233     0.39973
      H   20    0.09245      0.00000     0.40605    0.00150     0.40755
      H   21    0.09736      0.00000     0.40140    0.00124     0.40264
      H   22    0.09858      0.00000     0.39953    0.00190     0.40142
      H   23    0.10618      0.00000     0.39252    0.00130     0.39382
      H   24    0.17751      0.00000     0.31990    0.00259     0.32249
      H   25    0.17116      0.00000     0.32654    0.00231     0.32884
 =======================================================================
   * Total *   -0.00000      9.99587    27.88093    0.12320    38.00000

 Normal termination of Gaussian 16 at Tue Dec  8 13:57:47 2020.
