 Gaussian 16, Revision A.03,

 -----------------------------------------------------------
 # opt freq B3LYP/6-31G(d) empiricaldispersion=gd3bj scf=xqc
 -----------------------------------------------------------

 ------------------------------
 CID_62383257_JID_2438_neutraal
 ------------------------------
 Symbolic Z-matrix:
 Charge =  0 Multiplicity = 1

 SCF Done:  E(RB3LYP) =  -559.570011174     A.U. after   13 cycles
 SCF Done:  E(RB3LYP) =  -559.570587572     A.U. after   12 cycles
 SCF Done:  E(RB3LYP) =  -559.566582045     A.U. after   12 cycles
 SCF Done:  E(RB3LYP) =  -559.571741580     A.U. after   11 cycles
 SCF Done:  E(RB3LYP) =  -559.573208652     A.U. after   12 cycles
 SCF Done:  E(RB3LYP) =  -559.574103190     A.U. after   11 cycles
 SCF Done:  E(RB3LYP) =  -559.574449401     A.U. after   11 cycles
 SCF Done:  E(RB3LYP) =  -559.574615905     A.U. after   10 cycles
 SCF Done:  E(RB3LYP) =  -559.574690740     A.U. after   10 cycles
 SCF Done:  E(RB3LYP) =  -559.574716089     A.U. after   10 cycles
 SCF Done:  E(RB3LYP) =  -559.574750330     A.U. after    7 cycles
 SCF Done:  E(RB3LYP) =  -559.574750510     A.U. after    8 cycles
 SCF Done:  E(RB3LYP) =  -559.574750610     A.U. after    7 cycles
 SCF Done:  E(RB3LYP) =  -559.574750704     A.U. after    7 cycles
 SCF Done:  E(RB3LYP) =  -559.574750787     A.U. after    7 cycles
 SCF Done:  E(RB3LYP) =  -559.574750824     A.U. after    7 cycles
 Optimization completed.
    -- Stationary point found.
 Normal termination of Gaussian 16 at Wed Dec  9 17:27:19 2020.

 --------------------------------------------------------------------
 #N Geom=AllCheck Guess=TCheck SCRF=Check GenChk RB3LYP/6-31G(d) Freq
 --------------------------------------------------------------------

 Structure from the checkpoint file:  "JID_2438.chk"
 ------------------------------
 CID_62383257_JID_2438_neutraal
 ------------------------------
 Charge =  0 Multiplicity = 1

 SCF Done:  E(RB3LYP) =  -559.574750824     A.U. after    1 cycles

  Exact polarizability: 109.913   1.644 108.604  -1.365   2.404 105.632
 Approx polarizability: 139.732   7.484 148.158  -0.551   7.804 159.497

                      1                      2                      3
                      A                      A                      A
 Frequencies --     26.1840                61.5382                86.5480
 Red. masses --      4.5505                 3.0708                 3.4873
 Frc consts  --      0.0018                 0.0069                 0.0154
 IR Inten    --      0.3835                 0.5608                 1.8690

                      4                      5                      6
                      A                      A                      A
 Frequencies --     99.7157               111.6084               132.6397
 Red. masses --      2.8569                 1.2084                 2.4834
 Frc consts  --      0.0167                 0.0089                 0.0257
 IR Inten    --      1.9514                 0.2728                 4.0108

                      7                      8                      9
                      A                      A                      A
 Frequencies --    135.7898               184.9867               198.1598
 Red. masses --      2.1066                 2.5254                 2.6950
 Frc consts  --      0.0229                 0.0509                 0.0624
 IR Inten    --      2.7419                 0.1986                 1.0390

                     10                     11                     12
                      A                      A                      A
 Frequencies --    207.5788               238.8158               242.9542
 Red. masses --      3.6347                 2.5245                 1.7109
 Frc consts  --      0.0923                 0.0848                 0.0595
 IR Inten    --      4.2434                 3.0454                 5.9924

                     13                     14                     15
                      A                      A                      A
 Frequencies --    283.2442               316.6368               344.6308
 Red. masses --      2.3543                 1.1508                 2.0243
 Frc consts  --      0.1113                 0.0680                 0.1417
 IR Inten    --      1.4819                 0.9197                 0.5239

                     16                     17                     18
                      A                      A                      A
 Frequencies --    370.6338               388.1647               445.2962
 Red. masses --      2.9198                 2.6446                 2.9555
 Frc consts  --      0.2363                 0.2348                 0.3453
 IR Inten    --      2.8062                 0.7611                 0.7540

                     19                     20                     21
                      A                      A                      A
 Frequencies --    455.4491               462.3696               510.7779
 Red. masses --      1.4057                 1.4786                 2.3881
 Frc consts  --      0.1718                 0.1862                 0.3671
 IR Inten    --     34.4079                94.7569                 4.9190

                     22                     23                     24
                      A                      A                      A
 Frequencies --    587.1849               638.6230               680.9873
 Red. masses --      2.4151                 3.1030                 1.9808
 Frc consts  --      0.4906                 0.7456                 0.5412
 IR Inten    --      2.8846                 4.1266                 5.2081

                     25                     26                     27
                      A                      A                      A
 Frequencies --    779.7547               853.2715               873.6533
 Red. masses --      2.3427                 3.0612                 2.2235
 Frc consts  --      0.8392                 1.3131                 0.9999
 IR Inten    --      0.4104                 5.0835                 0.3788

                     28                     29                     30
                      A                      A                      A
 Frequencies --    924.5789               936.8634               966.4400
 Red. masses --      1.9482                 1.3463                 2.4837
 Frc consts  --      0.9812                 0.6962                 1.3668
 IR Inten    --     16.2240                35.6226                19.5044

                     31                     32                     33
                      A                      A                      A
 Frequencies --    999.1303              1038.0703              1042.7517
 Red. masses --      1.7432                 2.1487                 1.1623
 Frc consts  --      1.0253                 1.3642                 0.7446
 IR Inten    --      0.8064                11.5623                20.7373

                     34                     35                     36
                      A                      A                      A
 Frequencies --   1061.4896              1082.5195              1095.6605
 Red. masses --      1.5716                 1.6201                 2.7754
 Frc consts  --      1.0434                 1.1185                 1.9630
 IR Inten    --     30.1180                39.1464                64.4002

                     37                     38                     39
                      A                      A                      A
 Frequencies --   1120.3314              1133.8484              1158.3490
 Red. masses --      2.6259                 1.8863                 1.3562
 Frc consts  --      1.9419                 1.4288                 1.0721
 IR Inten    --     23.9531                 5.1377                16.3475

                     40                     41                     42
                      A                      A                      A
 Frequencies --   1163.9081              1174.6128              1194.0622
 Red. masses --      3.9748                 1.5755                 1.3246
 Frc consts  --      3.1725                 1.2807                 1.1127
 IR Inten    --    138.6857                12.6432                 7.3367

                     43                     44                     45
                      A                      A                      A
 Frequencies --   1211.2438              1231.1402              1275.8156
 Red. masses --      1.6228                 1.6469                 1.3409
 Frc consts  --      1.4028                 1.4708                 1.2860
 IR Inten    --      0.9064                46.6908                43.7293

                     46                     47                     48
                      A                      A                      A
 Frequencies --   1302.9179              1312.7736              1334.3672
 Red. masses --      1.3685                 1.4496                 1.3507
 Frc consts  --      1.3688                 1.4719                 1.4170
 IR Inten    --     20.2245                 7.8006                 7.2905

                     49                     50                     51
                      A                      A                      A
 Frequencies --   1351.2600              1367.9261              1401.6641
 Red. masses --      1.7310                 1.6221                 1.5502
 Frc consts  --      1.8622                 1.7883                 1.7945
 IR Inten    --     41.6715                28.1928                11.7428

                     52                     53                     54
                      A                      A                      A
 Frequencies --   1411.5415              1419.1261              1431.1221
 Red. masses --      1.3013                 1.3001                 1.3603
 Frc consts  --      1.5277                 1.5426                 1.6415
 IR Inten    --      3.8434                26.0827                20.0090

                     55                     56                     57
                      A                      A                      A
 Frequencies --   1441.3581              1459.6818              1463.1753
 Red. masses --      1.2404                 1.3705                 1.2068
 Frc consts  --      1.5182                 1.7205                 1.5222
 IR Inten    --     14.0536                47.1185                 9.8686

                     58                     59                     60
                      A                      A                      A
 Frequencies --   1484.4143              1501.7477              1505.8719
 Red. masses --      1.1037                 1.1483                 1.0811
 Frc consts  --      1.4329                 1.5258                 1.4445
 IR Inten    --      3.5350                 6.9683                 6.7226

                     61                     62                     63
                      A                      A                      A
 Frequencies --   1515.3501              1526.5117              1528.7511
 Red. masses --      1.0483                 1.0993                 1.0595
 Frc consts  --      1.4183                 1.5092                 1.4588
 IR Inten    --      6.5753                 4.6601                 3.6284

                     64                     65                     66
                      A                      A                      A
 Frequencies --   1533.5647              1543.2601              1553.9017
 Red. masses --      1.0532                 1.0659                 1.0646
 Frc consts  --      1.4594                 1.4957                 1.5145
 IR Inten    --      9.4787                 5.4833                 6.9417

                     67                     68                     69
                      A                      A                      A
 Frequencies --   1556.6786              1729.0445              2927.2159
 Red. masses --      1.0774                 4.5886                 1.0812
 Frc consts  --      1.5382                 8.0824                 5.4585
 IR Inten    --      7.5014                 6.3512                65.5715

                     70                     71                     72
                      A                      A                      A
 Frequencies --   2977.3240              2998.9730              3010.3857
 Red. masses --      1.0561                 1.0400                 1.0622
 Frc consts  --      5.5157                 5.5108                 5.6718
 IR Inten    --     77.4301                39.0122                72.6438

                     73                     74                     75
                      A                      A                      A
 Frequencies --   3038.9615              3040.4000              3049.0593
 Red. masses --      1.0779                 1.0686                 1.1053
 Frc consts  --      5.8653                 5.8199                 6.0543
 IR Inten    --     27.6105                75.1607                58.6025

                     76                     77                     78
                      A                      A                      A
 Frequencies --   3062.9284              3069.8857              3089.1973
 Red. masses --      1.0363                 1.0856                 1.0956
 Frc consts  --      5.7282                 6.0280                 6.1601
 IR Inten    --     19.8488                27.9151                12.5563

                     79                     80                     81
                      A                      A                      A
 Frequencies --   3089.8718              3118.4626              3125.8453
 Red. masses --      1.1016                 1.0960                 1.0906
 Frc consts  --      6.1969                 6.2797                 6.2782
 IR Inten    --     39.4221                22.8479                16.6978

                     82                     83                     84
                      A                      A                      A
 Frequencies --   3130.2910              3138.7086              3149.0490
 Red. masses --      1.0966                 1.0981                 1.1015
 Frc consts  --      6.3307                 6.3738                 6.4356
 IR Inten    --     46.4005                29.7509                13.3879

                     85                     86                     87
                      A                      A                      A
 Frequencies --   3174.4986              3252.9309              3704.1790
 Red. masses --      1.0636                 1.1144                 1.0651
 Frc consts  --      6.3150                 6.9479                 8.6107
 IR Inten    --      8.2694                18.6741                32.4051

 - Thermochemistry -
 -------------------
 Temperature   298.150 Kelvin.  Pressure   1.00000 Atm.
 Atom     1 has atomic number  6 and mass  12.00000

 Molecular mass:   173.14158 amu.
 Principal axes and moments of inertia in atomic units:
                           1         2         3
     Eigenvalues --  1631.382512675.103683282.90900
           X            0.99895  -0.04571   0.00117
           Y            0.04570   0.99892   0.00858
           Z           -0.00156  -0.00852   0.99996
 This molecule is an asymmetric top.
 Rotational symmetry number  1.
 Warning -- assumption of classical behavior for rotation
           may cause significant error
 Rotational temperatures (Kelvin)      0.05309     0.03238     0.02638
 Rotational constants (GHZ):           1.10626     0.67464     0.54974
 Zero-point vibrational energy     731828.6 (Joules/Mol)
                                  174.91124 (Kcal/Mol)
 Warning -- explicit consideration of  22 degrees of freedom as
           vibrations may cause significant error
 Vibrational temperatures:     37.67    88.54   124.52   143.47   160.58
          (Kelvin)            190.84   195.37   266.15   285.11   298.66
                              343.60   349.56   407.53   455.57   495.85
                              533.26   558.48   640.68   655.29   665.25
                              734.90   844.83   918.84   979.79  1121.89
                             1227.67  1256.99  1330.26  1347.94  1390.49
                             1437.53  1493.55  1500.29  1527.25  1557.50
                             1576.41  1611.91  1631.35  1666.61  1674.60
                             1690.01  1717.99  1742.71  1771.34  1835.61
                             1874.61  1888.79  1919.86  1944.16  1968.14
                             2016.68  2030.89  2041.81  2059.07  2073.79
                             2100.16  2105.18  2135.74  2160.68  2166.61
                             2180.25  2196.31  2199.53  2206.46  2220.41
                             2235.72  2239.71  2487.71  4211.61  4283.71
                             4314.85  4331.27  4372.39  4374.46  4386.92
                             4406.87  4416.88  4444.67  4445.64  4486.77
                             4497.39  4503.79  4515.90  4530.78  4567.40
                             4680.24  5329.49

 Zero-point correction=                           0.278739 (Hartree/Particle)
 Thermal correction to Energy=                    0.293639
 Thermal correction to Enthalpy=                  0.294584
 Thermal correction to Gibbs Free Energy=         0.236817
 Sum of electronic and zero-point Energies=           -559.296012
 Sum of electronic and thermal Energies=              -559.281111
 Sum of electronic and thermal Enthalpies=            -559.280167
 Sum of electronic and thermal Free Energies=         -559.337933

                     E (Thermal)             CV                S
                      KCal/Mol        Cal/Mol-Kelvin    Cal/Mol-Kelvin
 Total                  184.262             53.878            121.579
 Electronic               0.000              0.000              0.000
 Translational            0.889              2.981             41.354
 Rotational               0.889              2.981             31.039
 Vibrational            182.484             47.917             49.186
 Vibration     1          0.593              1.985              6.099
 Vibration     2          0.597              1.973              4.407
 Vibration     3          0.601              1.959              3.737
 Vibration     4          0.604              1.949              3.460
 Vibration     5          0.607              1.940              3.241
 Vibration     6          0.613              1.921              2.907
 Vibration     7          0.614              1.918              2.862
 Vibration     8          0.631              1.860              2.277
 Vibration     9          0.637              1.842              2.150
 Vibration    10          0.641              1.829              2.065
 Vibration    11          0.657              1.781              1.812
 Vibration    12          0.659              1.774              1.781
 Vibration    13          0.682              1.705              1.514
 Vibration    14          0.704              1.642              1.327
 Vibration    15          0.723              1.586              1.191
 Vibration    16          0.743              1.533              1.077
 Vibration    17          0.756              1.495              1.007
 Vibration    18          0.805              1.371              0.810
 Vibration    19          0.814              1.349              0.779
 Vibration    20          0.820              1.334              0.759
 Vibration    21          0.866              1.226              0.632
 Vibration    22          0.944              1.059              0.472

 Optimization completed.
    -- Stationary point found.
 Normal termination of Gaussian 16 at Wed Dec  9 17:35:36 2020.

 ----------------------------------------------------------------------
 # B3LYP/6-311++G(d,p) empiricaldispersion=gd3bj scf=xqc pop=npa geom=c
 heck
 ----------------------------------------------------------------------

 --------------------------------------
 CID_62383257_JID_2438_Energie_neutraal
 --------------------------------------
 Structure from the checkpoint file:  "JID_2438.chk"
 Charge =  0 Multiplicity = 1

 SCF Done:  E(RB3LYP) =  -559.748499000     A.U. after   13 cycles
 Normal termination of Gaussian 16 at Wed Dec  9 17:39:25 2020.

 ----------------------------------------------------------------------
 # B3LYP/6-311++G(d,p) empiricaldispersion=gd3bj scf=xqc pop=npa geom=c
 heck
 ----------------------------------------------------------------------

 ------------------------------------
 CID_62383257_JID_2438_Energie_kation
 ------------------------------------
 Structure from the checkpoint file:  "JID_2438.chk"
 Charge =  1 Multiplicity = 2

 SCF Done:  E(UB3LYP) =  -559.479421702     A.U. after   19 cycles
 Normal termination of Gaussian 16 at Wed Dec  9 17:47:16 2020.
 Gaussian 16:  ES64L-G16RevA.03 25-Dec-2016

 ----------------------------------------------------------------------
 # B3LYP/6-311++G(d,p) empiricaldispersion=gd3bj scf=xqc pop=npa geom=c
 heck
 ----------------------------------------------------------------------

 -----------------------------------
 CID_62383257_JID_2438_Energie_anion
 -----------------------------------
 Structure from the checkpoint file:  "JID_2438.chk"
 Charge = -1 Multiplicity = 2

                         Standard orientation:
 ---------------------------------------------------------------------
 Center     Atomic      Atomic             Coordinates (Angstroms)
 Number     Number       Type             X           Y           Z
 ---------------------------------------------------------------------
      1          6           0       -0.880297   -1.474534   -1.604103
      2          6           0       -1.799476   -0.687128   -0.656967
      3          6           0       -1.993484   -1.454637    0.640757
      4          6           0       -1.747661   -1.017331    1.875387
      5          7           0       -1.413785    0.704992   -0.517991
      6          6           0       -2.385424    1.613549    0.044528
      7          6           0       -0.086153    1.220107   -0.766440
      8          6           0        0.895027    1.282970    0.429420
      9          6           0        1.481094   -0.069694    0.818567
     10          8           0        2.269677   -0.507133   -0.286891
     11          6           0        3.002930   -1.681365   -0.007015
     12          8           0        1.962829    2.178187    0.125133
     13          1           0       -0.853423   -1.005336   -2.592787
     14          1           0       -1.265047   -2.492743   -1.721303
     15          1           0        0.143292   -1.538294   -1.225347
     16          1           0       -2.797182   -0.689532   -1.135688
     17          1           0       -2.409463   -2.455673    0.507420
     18          1           0       -1.938747   -1.637386    2.746772
     19          1           0       -1.349960   -0.024752    2.059679
     20          1           0       -2.326068    1.747701    1.137840
     21          1           0       -2.275209    2.605466   -0.414118
     22          1           0       -3.397003    1.251040   -0.176479
     23          1           0        0.395056    0.658141   -1.571466
     24          1           0       -0.183463    2.254457   -1.121646
     25          1           0        0.375250    1.704012    1.298087
     26          1           0        2.122723    0.050402    1.705467
     27          1           0        0.699986   -0.804035    1.047588
     28          1           0        3.697095   -1.531019    0.834183
     29          1           0        2.336051   -2.522026    0.237596
     30          1           0        3.574805   -1.928653   -0.904982
     31          1           0        2.568422    1.663220   -0.435609
 ---------------------------------------------------------------------

 SCF Done:  E(UB3LYP) =  -559.733371596     A.U. after   32 cycles

 The electronic state is 2-A.
 Alpha  occ. eigenvalues --  -19.03683 -19.02384 -14.20144 -10.12165 -10.11658
 Alpha  occ. eigenvalues --  -10.11405 -10.10783 -10.09253 -10.09176 -10.06939
 Alpha  occ. eigenvalues --  -10.05965 -10.05740  -0.95303  -0.92191  -0.82512
 Alpha  occ. eigenvalues --   -0.69269  -0.66731  -0.63522  -0.61534  -0.57193
 Alpha  occ. eigenvalues --   -0.55456  -0.51880  -0.48662  -0.44400  -0.41470
 Alpha  occ. eigenvalues --   -0.40311  -0.39344  -0.38177  -0.37684  -0.36536
 Alpha  occ. eigenvalues --   -0.34891  -0.33012  -0.31852  -0.31764  -0.30999
 Alpha  occ. eigenvalues --   -0.30425  -0.28976  -0.27319  -0.26752  -0.26095
 Alpha  occ. eigenvalues --   -0.25789  -0.24456  -0.23827  -0.22880  -0.18924
 Alpha  occ. eigenvalues --   -0.17640  -0.15786  -0.10046   0.04507
 Alpha virt. eigenvalues --    0.06485   0.07374   0.07442   0.09050   0.09144
 Alpha virt. eigenvalues --    0.09609   0.09773   0.10081   0.10317   0.11565
 Alpha virt. eigenvalues --    0.11907   0.12412   0.12653   0.13577   0.13967

  Beta  occ. eigenvalues --  -19.03674 -19.02380 -14.20144 -10.12160 -10.11648
  Beta  occ. eigenvalues --  -10.11354 -10.10774 -10.09245 -10.09156 -10.06917
  Beta  occ. eigenvalues --  -10.05935 -10.05708  -0.95291  -0.92181  -0.82502
  Beta  occ. eigenvalues --   -0.69228  -0.66705  -0.63475  -0.61495  -0.57129
  Beta  occ. eigenvalues --   -0.55397  -0.51827  -0.48615  -0.44354  -0.41438
  Beta  occ. eigenvalues --   -0.40269  -0.39316  -0.38143  -0.37647  -0.36501
  Beta  occ. eigenvalues --   -0.34860  -0.32976  -0.31818  -0.31726  -0.30976
  Beta  occ. eigenvalues --   -0.30398  -0.28939  -0.27285  -0.26721  -0.26066
  Beta  occ. eigenvalues --   -0.25760  -0.24422  -0.23780  -0.22862  -0.18914
  Beta  occ. eigenvalues --   -0.17609  -0.15696  -0.10032
  Beta virt. eigenvalues --    0.06693   0.07413   0.07922   0.08066   0.09371
  Beta virt. eigenvalues --    0.09672   0.09937   0.10167   0.10485   0.10745
  Beta virt. eigenvalues --    0.11917   0.12528   0.12725   0.13074   0.13766

 Mulliken charges and spin densities:
               1          2
     1  C    0.921107  -1.585405
     2  C   -0.430265   0.390959
     3  C   -0.889460   0.933715
     4  C    1.169437  -1.656437
     5  N   -0.101390   0.166892
     6  C    0.257426  -0.503883
     7  C   -0.314950  -0.056456
     8  C   -0.491517  -0.075125
     9  C   -0.189412   0.059692
    10  O   -0.221477   0.064400
    11  C    1.048101  -1.284299
    12  O   -0.190353   0.009903
    13  H   -0.300877   0.459659
    14  H   -0.493665   0.658327
    15  H    0.638472  -0.547129
    16  H    0.032136   0.124270
    17  H   -0.671230   0.854007
    18  H   -0.506279   0.666818
    19  H    0.095689  -0.024538
    20  H   -0.014167   0.138256
    21  H    0.061757   0.057303
    22  H   -0.297520   0.443242
    23  H    0.186745   0.011221
    24  H    0.077574   0.078910
    25  H    0.148001   0.056850
    26  H   -0.041694   0.220814
    27  H    0.556663  -0.381222
    28  H   -0.427720   0.563190
    29  H   -0.465795   0.609908
    30  H   -0.355430   0.501796
    31  H    0.210093   0.044361
 Sum of Mulliken charges =  -1.00000   1.00000

 Dipole moment (field-independent basis, Debye):
    X=              0.1628    Y=              5.3899    Z=             -0.0072  Tot=              5.3924
 Quadrupole moment (field-independent basis, Debye-Ang):
   XX=           -142.2369   YY=           -130.6206   ZZ=           -113.6005
   XY=             -1.2023   XZ=             -0.3931   YZ=             -0.0650

 Summary of Natural Population Analysis:

                                       Natural Population
                Natural  -----------------------------------------------
    Atom  No    Charge         Core      Valence    Rydberg      Total
 -----------------------------------------------------------------------
      C    1   -0.28885      0.99963     2.28275    0.00646     3.28885
      C    2   -0.01689      0.99956     2.00151    0.01582     3.01689
      C    3   -0.08335      0.99954     2.07200    0.01182     3.08335
      C    4   -0.20085      0.99955     2.19297    0.00833     3.20085
      N    5   -0.29070      0.99970     2.77637    0.01463     3.79070
      C    6   -0.16944      0.99964     2.16148    0.00832     3.16944
      C    7   -0.09150      0.99957     2.07888    0.01304     3.09150
      C    8    0.04747      0.99956     1.93999    0.01298     2.95253
      C    9   -0.02800      0.99956     2.01624    0.01221     3.02800
      O   10   -0.31063      0.99988     3.30094    0.00980     4.31063
      C   11   -0.09584      0.99962     2.08665    0.00956     3.09584
      O   12   -0.37520      0.99990     3.36879    0.00650     4.37520
      H   13    0.10046      0.00000     0.39815    0.00139     0.39954
      H   14    0.10471      0.00000     0.39400    0.00129     0.39529
      H   15    0.10481      0.00000     0.39320    0.00199     0.39519
      H   16    0.09593      0.00000     0.40198    0.00209     0.40407
      H   17    0.09556      0.00000     0.40276    0.00168     0.40444
      H   18    0.09669      0.00000     0.40229    0.00102     0.40331
      H   19    0.08914      0.00000     0.40882    0.00204     0.41086
      H   20    0.08105      0.00000     0.41754    0.00141     0.41895
      H   21    0.08950      0.00000     0.40957    0.00093     0.41050
      H   22    0.09636      0.00000     0.40256    0.00108     0.40364
      H   23    0.10226      0.00000     0.39586    0.00187     0.39774
      H   24    0.09466      0.00000     0.40395    0.00139     0.40534
      H   25    0.08625      0.00000     0.41236    0.00139     0.41375
      H   26    0.08330      0.00000     0.41537    0.00133     0.41670
      H   27    0.09586      0.00000     0.40173    0.00241     0.40414
      H   28    0.07948      0.00000     0.41830    0.00221     0.42052
      H   29    0.08311      0.00000     0.41496    0.00193     0.41689
      H   30    0.09169      0.00000     0.40676    0.00155     0.40831
      H   31    0.23293      0.00000     0.26406    0.00302     0.26707
 =======================================================================
   * Total *   -0.00000     11.99571    35.84278    0.16151    48.00000

 Normal termination of Gaussian 16 at Wed Dec  9 17:58:57 2020.
