 Gaussian 16, Revision A.03,

 -----------------------------------------------------------
 # opt freq B3LYP/6-31G(d) empiricaldispersion=gd3bj scf=xqc
 -----------------------------------------------------------

 ------------------------------
 CID_80462532_JID_3343_neutraal
 ------------------------------
 Symbolic Z-matrix:
 Charge =  0 Multiplicity = 1

 SCF Done:  E(RB3LYP) =  -628.751033020     A.U. after   15 cycles
 SCF Done:  E(RB3LYP) =  -628.753986902     A.U. after   12 cycles
 SCF Done:  E(RB3LYP) =  -628.754431924     A.U. after   12 cycles
 SCF Done:  E(RB3LYP) =  -628.754480020     A.U. after   11 cycles
 SCF Done:  E(RB3LYP) =  -628.754531339     A.U. after   10 cycles
 SCF Done:  E(RB3LYP) =  -628.754544774     A.U. after   10 cycles
 SCF Done:  E(RB3LYP) =  -628.754557827     A.U. after   10 cycles
 SCF Done:  E(RB3LYP) =  -628.754552720     A.U. after   10 cycles
 SCF Done:  E(RB3LYP) =  -628.754604967     A.U. after   11 cycles
 SCF Done:  E(RB3LYP) =  -628.754799993     A.U. after   12 cycles
 SCF Done:  E(RB3LYP) =  -628.755533513     A.U. after    9 cycles
 SCF Done:  E(RB3LYP) =  -628.755537202     A.U. after    9 cycles
 SCF Done:  E(RB3LYP) =  -628.755538654     A.U. after    8 cycles
 SCF Done:  E(RB3LYP) =  -628.755539701     A.U. after    9 cycles
 SCF Done:  E(RB3LYP) =  -628.755539869     A.U. after    7 cycles
 Optimization completed.
    -- Stationary point found.
 Normal termination of Gaussian 16 at Wed Dec  9 23:08:32 2020.

 --------------------------------------------------------------------
 #N Geom=AllCheck Guess=TCheck SCRF=Check GenChk RB3LYP/6-31G(d) Freq
 --------------------------------------------------------------------

 Structure from the checkpoint file:  "JID_3343.chk"
 ------------------------------
 CID_80462532_JID_3343_neutraal
 ------------------------------
 Charge =  0 Multiplicity = 1

 SCF Done:  E(RB3LYP) =  -628.755539869     A.U. after    1 cycles

  Exact polarizability: 189.485   2.673 105.016  -0.906   0.515  51.670
 Approx polarizability: 257.275  -3.644 189.072  -0.492   1.188  78.121

                      1                      2                      3
                      A                      A                      A
 Frequencies --     35.6673                47.5143                84.8076
 Red. masses --      4.3969                 4.7456                 4.9100
 Frc consts  --      0.0033                 0.0063                 0.0208
 IR Inten    --      1.5719                 1.2322                 0.1576

                      4                      5                      6
                      A                      A                      A
 Frequencies --     95.4171               123.5917               186.8171
 Red. masses --      3.0042                 1.1398                 3.7321
 Frc consts  --      0.0161                 0.0103                 0.0767
 IR Inten    --      1.4243                 0.4122                10.9676

                      7                      8                      9
                      A                      A                      A
 Frequencies --    205.1571               260.8098               269.7313
 Red. masses --      3.3323                 3.0300                 1.8463
 Frc consts  --      0.0826                 0.1214                 0.0791
 IR Inten    --     20.4437                19.3167                57.5421

                     10                     11                     12
                      A                      A                      A
 Frequencies --    292.0925               349.5299               359.9325
 Red. masses --      2.2840                 4.2401                 5.9137
 Frc consts  --      0.1148                 0.3052                 0.4514
 IR Inten    --     57.7309                 0.6530                 0.9501

                     13                     14                     15
                      A                      A                      A
 Frequencies --    463.2396               532.2161               622.4309
 Red. masses --      5.3901                 4.7071                 4.7276
 Frc consts  --      0.6815                 0.7856                 1.0791
 IR Inten    --      2.3210                 0.5852                 0.1040

                     16                     17                     18
                      A                      A                      A
 Frequencies --    636.2928               647.5380               676.1228
 Red. masses --      4.9332                 5.6575                 4.4471
 Frc consts  --      1.1768                 1.3977                 1.1978
 IR Inten    --      0.0913                 2.2245                 2.6132

                     19                     20                     21
                      A                      A                      A
 Frequencies --    701.0844               729.2903               781.8142
 Red. masses --      3.7697                 4.4491                 1.4398
 Frc consts  --      1.0917                 1.3942                 0.5185
 IR Inten    --      0.3971                10.6100                19.9619

                     22                     23                     24
                      A                      A                      A
 Frequencies --    797.9588               855.3505               923.0555
 Red. masses --      1.2141                 1.3458                 7.9885
 Frc consts  --      0.4555                 0.5801                 4.0102
 IR Inten    --     46.9688                 0.0122                 7.1210

                     25                     26                     27
                      A                      A                      A
 Frequencies --    963.9038               982.9277              1000.7775
 Red. masses --     10.1601                 3.1295                 3.6768
 Frc consts  --      5.5618                 1.7814                 2.1697
 IR Inten    --     25.6123                 3.6244                 2.9986

                     28                     29                     30
                      A                      A                      A
 Frequencies --   1027.7150              1038.0074              1043.0242
 Red. masses --      2.3959                 1.7411                 6.7111
 Frc consts  --      1.4910                 1.1053                 4.3016
 IR Inten    --      9.5281                13.7214                24.5960

                     31                     32                     33
                      A                      A                      A
 Frequencies --   1055.8770              1079.8837              1093.6785
 Red. masses --      1.3198                 1.4714                 2.3877
 Frc consts  --      0.8670                 1.0110                 1.6827
 IR Inten    --     29.9966                 3.2841                68.5871

                     34                     35                     36
                      A                      A                      A
 Frequencies --   1115.7430              1211.7507              1245.3861
 Red. masses --      3.5553                 1.7890                 1.2427
 Frc consts  --      2.6077                 1.5477                 1.1356
 IR Inten    --     38.1653                 5.7030                22.4158

                     37                     38                     39
                      A                      A                      A
 Frequencies --   1258.2268              1265.5165              1314.7220
 Red. masses --      1.9254                 5.1511                 4.3020
 Frc consts  --      1.7959                 4.8606                 4.3811
 IR Inten    --      1.6767                 4.8037                25.5699

                     40                     41                     42
                      A                      A                      A
 Frequencies --   1341.3460              1408.2003              1438.2741
 Red. masses --      1.5196                 3.0758                 1.8246
 Frc consts  --      1.6109                 3.5937                 2.2239
 IR Inten    --      2.6022                23.3327               224.2137

                     43                     44                     45
                      A                      A                      A
 Frequencies --   1444.5496              1501.4645              1502.2546
 Red. masses --      1.2712                 1.0424                 2.4670
 Frc consts  --      1.5629                 1.3846                 3.2802
 IR Inten    --      4.1367                 7.1798                29.3956

                     46                     47                     48
                      A                      A                      A
 Frequencies --   1508.1490              1520.1783              1539.6846
 Red. masses --      3.4978                 1.2803                 1.1581
 Frc consts  --      4.6874                 1.7432                 1.6175
 IR Inten    --     24.2900                 0.6545                 2.1579

                     49                     50                     51
                      A                      A                      A
 Frequencies --   1589.9491              1633.6341              1675.6292
 Red. masses --      6.5419                 6.3256                 7.5554
 Frc consts  --      9.7436                 9.9462                12.4987
 IR Inten    --     10.8124               144.3944                60.7919

                     52                     53                     54
                      A                      A                      A
 Frequencies --   2976.5800              3051.0420              3070.7612
 Red. masses --      1.0739                 1.0377                 1.0882
 Frc consts  --      5.6060                 5.6916                 6.0459
 IR Inten    --     56.1703                27.6512                29.5260

                     55                     56                     57
                      A                      A                      A
 Frequencies --   3103.4148              3147.8976              3267.3395
 Red. masses --      1.1015                 1.1001                 1.0930
 Frc consts  --      6.2507                 6.4231                 6.8749
 IR Inten    --     11.7426                 9.3341                 6.8376

                     58                     59                     60
                      A                      A                      A
 Frequencies --   3280.0615              3289.2556              3715.3620
 Red. masses --      1.1013                 1.0978                 1.0660
 Frc consts  --      6.9811                 6.9978                 8.6698
 IR Inten    --      0.6013                 1.3341                40.8203

 - Thermochemistry -
 -------------------
 Temperature   298.150 Kelvin.  Pressure   1.00000 Atm.
 Atom     1 has atomic number  6 and mass  12.00000

 Molecular mass:   179.05824 amu.
 Principal axes and moments of inertia in atomic units:
                           1         2         3
     Eigenvalues --   579.576985212.789065765.44841
           X            0.99993   0.01162  -0.00160
           Y           -0.01162   0.99993   0.00082
           Z            0.00160  -0.00081   1.00000
 This molecule is an asymmetric top.
 Rotational symmetry number  1.
 Warning -- assumption of classical behavior for rotation
           may cause significant error
 Rotational temperatures (Kelvin)      0.14944     0.01662     0.01502
 Rotational constants (GHZ):           3.11389     0.34621     0.31303
 Zero-point vibrational energy     444889.0 (Joules/Mol)
                                  106.33102 (Kcal/Mol)
 Warning -- explicit consideration of  14 degrees of freedom as
           vibrations may cause significant error
 Vibrational temperatures:     51.32    68.36   122.02   137.28   177.82
          (Kelvin)            268.79   295.18   375.25   388.08   420.26
                              502.90   517.86   666.50   765.74   895.54
                              915.48   931.66   972.79  1008.70  1049.29
                             1124.86  1148.08  1230.66  1328.07  1386.84
                             1414.21  1439.90  1478.65  1493.46  1500.68
                             1519.17  1553.71  1573.56  1605.31  1743.44
                             1791.83  1810.31  1820.80  1891.59  1929.90
                             2026.09  2069.36  2078.38  2160.27  2161.41
                             2169.89  2187.20  2215.26  2287.58  2350.44
                             2410.86  4282.63  4389.77  4418.14  4465.12
                             4529.12  4700.97  4719.28  4732.51  5345.58

 Zero-point correction=                           0.169449 (Hartree/Particle)
 Thermal correction to Energy=                    0.181332
 Thermal correction to Enthalpy=                  0.182276
 Thermal correction to Gibbs Free Energy=         0.129971
 Sum of electronic and zero-point Energies=           -628.586091
 Sum of electronic and thermal Energies=              -628.574208
 Sum of electronic and thermal Enthalpies=            -628.573264
 Sum of electronic and thermal Free Energies=         -628.625569

                     E (Thermal)             CV                S
                      KCal/Mol        Cal/Mol-Kelvin    Cal/Mol-Kelvin
 Total                  113.787             43.120            110.085
 Electronic               0.000              0.000              0.000
 Translational            0.889              2.981             41.454
 Rotational               0.889              2.981             31.233
 Vibrational            112.010             37.158             37.398
 Vibration     1          0.594              1.982              5.486
 Vibration     2          0.595              1.979              4.918
 Vibration     3          0.601              1.960              3.776
 Vibration     4          0.603              1.952              3.546
 Vibration     5          0.610              1.929              3.043
 Vibration     6          0.632              1.858              2.259
 Vibration     7          0.640              1.833              2.086
 Vibration     8          0.669              1.744              1.656
 Vibration     9          0.674              1.729              1.598
 Vibration    10          0.687              1.688              1.462
 Vibration    11          0.727              1.576              1.168
 Vibration    12          0.734              1.555              1.122
 Vibration    13          0.821              1.332              0.757
 Vibration    14          0.887              1.179              0.582

                           ! Non-Optimized Parameters !
 Normal termination of Gaussian 16 at Wed Dec  9 23:12:43 2020.

 ----------------------------------------------------------------------
 # B3LYP/6-311++G(d,p) empiricaldispersion=gd3bj scf=xqc pop=npa geom=c
 heck
 ----------------------------------------------------------------------

 --------------------------------------
 CID_80462532_JID_3343_Energie_neutraal
 --------------------------------------
 Structure from the checkpoint file:  "JID_3343.chk"
 Charge =  0 Multiplicity = 1

 SCF Done:  E(RB3LYP) =  -628.936177458     A.U. after   16 cycles
 Normal termination of Gaussian 16 at Wed Dec  9 23:14:42 2020.

 ----------------------------------------------------------------------
 # B3LYP/6-311++G(d,p) empiricaldispersion=gd3bj scf=xqc pop=npa geom=c
 heck
 ----------------------------------------------------------------------

 ------------------------------------
 CID_80462532_JID_3343_Energie_kation
 ------------------------------------
 Structure from the checkpoint file:  "JID_3343.chk"
 Charge =  1 Multiplicity = 2

 SCF Done:  E(UB3LYP) =  -628.642867411     A.U. after   23 cycles
 Normal termination of Gaussian 16 at Wed Dec  9 23:18:45 2020.
 Gaussian 16:  ES64L-G16RevA.03 25-Dec-2016

 ----------------------------------------------------------------------
 # B3LYP/6-311++G(d,p) empiricaldispersion=gd3bj scf=xqc pop=npa geom=c
 heck
 ----------------------------------------------------------------------

 -----------------------------------
 CID_80462532_JID_3343_Energie_anion
 -----------------------------------
 Structure from the checkpoint file:  "JID_3343.chk"
 Charge = -1 Multiplicity = 2

                         Standard orientation:
 ---------------------------------------------------------------------
 Center     Atomic      Atomic             Coordinates (Angstroms)
 Number     Number       Type             X           Y           Z
 ---------------------------------------------------------------------
      1          6           0       -4.347653   -1.240019    0.002624
      2          6           0       -3.279749   -0.207012    0.009048
      3          6           0       -3.287771    1.161160    0.029790
      4          6           0       -1.924565    1.581633    0.024933
      5          6           0       -1.168964    0.437570    0.001408
      6          8           0       -1.991100   -0.658717   -0.008525
      7          6           0        0.250686    0.214962   -0.014485
      8          6           0        1.319494    1.074591   -0.012373
      9          6           0        2.447473    0.211744   -0.023063
     10          7           0        2.093978   -1.054167   -0.035211
     11          8           0        0.695627   -1.063160   -0.030256
     12          6           0        3.913063    0.549295   -0.078000
     13          8           0        4.743216   -0.564962    0.166950
     14          1           0       -4.285172   -1.871358   -0.891714
     15          1           0       -4.269617   -1.898201    0.876129
     16          1           0       -5.329052   -0.759278    0.018553
     17          1           0       -4.165326    1.791714    0.046918
     18          1           0       -1.549797    2.595261    0.037838
     19          1           0        1.303032    2.153709    0.000825
     20          1           0        4.125349    1.001464   -1.062631
     21          1           0        4.144087    1.311756    0.675767
     22          1           0        4.254624   -1.354726   -0.119847
 ---------------------------------------------------------------------

 SCF Done:  E(UB3LYP) =  -628.936952683     A.U. after   33 cycles
 SCF Done:  E(UB3LYP) =  -628.937042839     a.u. after    8 cycles

 The electronic state is 2-A.
 Alpha  occ. eigenvalues --  -19.04023 -19.03219 -19.01039 -14.19738 -10.11382
 Alpha  occ. eigenvalues --  -10.08035 -10.07834 -10.07501 -10.06788 -10.05809
 Alpha  occ. eigenvalues --  -10.03315 -10.02208 -10.02091  -0.98594  -0.96343
 Alpha  occ. eigenvalues --   -0.91590  -0.72641  -0.66786  -0.66228  -0.63290
 Alpha  occ. eigenvalues --   -0.58428  -0.56014  -0.48431  -0.45018  -0.44725
 Alpha  occ. eigenvalues --   -0.41871  -0.40539  -0.36443  -0.34489  -0.33931
 Alpha  occ. eigenvalues --   -0.33297  -0.31331  -0.30832  -0.30768  -0.28180
 Alpha  occ. eigenvalues --   -0.27792  -0.27123  -0.25585  -0.23773  -0.23163
 Alpha  occ. eigenvalues --   -0.22534  -0.17542  -0.16651  -0.15596  -0.14925
 Alpha  occ. eigenvalues --   -0.13862  -0.07236   0.05412
 Alpha virt. eigenvalues --    0.07377   0.08736   0.09416   0.10443   0.11156
 Alpha virt. eigenvalues --    0.11679   0.11974   0.12478   0.13899   0.15662
 Alpha virt. eigenvalues --    0.15819   0.16048   0.16442   0.17631   0.17957

  Beta  occ. eigenvalues --  -19.03704 -19.02983 -19.01035 -14.19434 -10.11379
  Beta  occ. eigenvalues --  -10.07764 -10.07540 -10.07418 -10.06820 -10.05822
  Beta  occ. eigenvalues --  -10.03417 -10.02122 -10.01855  -0.98071  -0.95942
  Beta  occ. eigenvalues --   -0.91579  -0.72255  -0.66281  -0.65931  -0.62971
  Beta  occ. eigenvalues --   -0.58336  -0.55768  -0.48148  -0.44639  -0.44474
  Beta  occ. eigenvalues --   -0.41621  -0.40370  -0.36316  -0.34343  -0.33554
  Beta  occ. eigenvalues --   -0.32558  -0.30897  -0.30657  -0.30060  -0.28037
  Beta  occ. eigenvalues --   -0.27138  -0.26979  -0.25419  -0.23506  -0.23022
  Beta  occ. eigenvalues --   -0.22372  -0.17392  -0.16247  -0.14056  -0.13908
  Beta  occ. eigenvalues --   -0.12663  -0.05755
  Beta virt. eigenvalues --    0.07600   0.08663   0.09430   0.10472   0.10835
  Beta virt. eigenvalues --    0.11246   0.11743   0.12147   0.12509   0.13831
  Beta virt. eigenvalues --    0.15574   0.15983   0.16567   0.16798   0.17691

 Mulliken charges and spin densities:
               1          2
     1  C    0.301183  -0.861352
     2  C   -0.230925   0.667964
     3  C   -0.206316  -0.105993
     4  C   -0.567551   0.237407
     5  C   -0.019435  -0.107078
     6  O   -0.046865   0.063763
     7  C   -0.528832   0.083826
     8  C    0.381828   0.172009
     9  C    0.317692  -0.049338
    10  N   -0.555062   0.144135
    11  O    0.152533   0.070456
    12  C   -0.356840   0.002633
    13  O   -0.293841  -0.001186
    14  H    0.159241  -0.017562
    15  H   -0.072084   0.224517
    16  H   -0.103572   0.246762
    17  H   -0.055652   0.180280
    18  H    0.064723   0.017830
    19  H    0.123270   0.000123
    20  H    0.140409   0.001707
    21  H    0.125374   0.027213
    22  H    0.270723   0.001886
 Sum of Mulliken charges =  -1.00000   1.00000

 Dipole moment (field-independent basis, Debye):
    X=              0.4203    Y=              2.3920    Z=             -1.2372  Tot=              2.7256
 Quadrupole moment (field-independent basis, Debye-Ang):
   XX=           -134.5712   YY=            -88.1873   ZZ=            -86.6462
   XY=              4.9644   XZ=             -0.4850   YZ=              1.1366

 Summary of Natural Population Analysis:

                                       Natural Population
                Natural  -----------------------------------------------
    Atom  No    Charge         Core      Valence    Rydberg      Total
 -----------------------------------------------------------------------
      C    1   -0.30507      0.99963     2.30090    0.00454     3.30507
      C    2    0.19389      0.99950     1.79150    0.01511     2.80611
      C    3   -0.18592      0.99951     2.17787    0.00855     3.18592
      C    4   -0.09605      0.99953     2.08731    0.00921     3.09605
      C    5    0.12942      0.99942     1.85818    0.01298     2.87058
      O    6   -0.21434      0.99985     3.20658    0.00790     4.21434
      C    7    0.20165      0.99946     1.78512    0.01377     2.79835
      C    8   -0.17136      0.99948     2.16406    0.00782     3.17136
      C    9    0.05053      0.99961     1.93736    0.01250     2.94947
      N   10   -0.08321      0.99963     2.56982    0.01376     3.58321
      O   11   -0.13674      0.99986     3.12574    0.01114     4.13674
      C   12   -0.01261      0.99956     2.00198    0.01107     3.01261
      O   13   -0.37618      0.99990     3.36826    0.00802     4.37618
      H   14    0.10195      0.00000     0.39648    0.00157     0.39805
      H   15    0.10477      0.00000     0.39293    0.00230     0.39523
      H   16    0.10118      0.00000     0.39786    0.00096     0.39882
      H   17    0.09948      0.00000     0.39967    0.00085     0.40052
      H   18    0.09806      0.00000     0.40115    0.00080     0.40194
      H   19    0.10304      0.00000     0.39615    0.00082     0.39696
      H   20    0.07558      0.00000     0.42279    0.00163     0.42442
      H   21    0.08317      0.00000     0.41526    0.00158     0.41683
      H   22    0.23878      0.00000     0.25821    0.00301     0.26122
 =======================================================================
   * Total *    0.00000     12.99494    33.85519    0.14987    47.00000

 Normal termination of Gaussian 16 at Wed Dec  9 23:58:46 2020.
