 Gaussian 16, Revision A.03,

 -----------------------------------------------------------
 # opt freq B3LYP/6-31G(d) empiricaldispersion=gd3bj scf=xqc
 -----------------------------------------------------------

 -------------------------------
 CID_148713185_JID_2766_neutraal
 -------------------------------
 Symbolic Z-matrix:
 Charge =  0 Multiplicity = 1

 SCF Done:  E(RB3LYP) =  -578.285631085     A.U. after   14 cycles
 SCF Done:  E(RB3LYP) =  -578.287294388     A.U. after   12 cycles
 SCF Done:  E(RB3LYP) =  -578.285321735     A.U. after   13 cycles
 SCF Done:  E(RB3LYP) =  -578.288323872     A.U. after   12 cycles
 SCF Done:  E(RB3LYP) =  -578.288409609     A.U. after   12 cycles
 SCF Done:  E(RB3LYP) =  -578.288458444     A.U. after   12 cycles
 SCF Done:  E(RB3LYP) =  -578.288475374     A.U. after   12 cycles
 SCF Done:  E(RB3LYP) =  -578.288491435     A.U. after   11 cycles
 SCF Done:  E(RB3LYP) =  -578.288531558     A.U. after   12 cycles
 SCF Done:  E(RB3LYP) =  -578.288558103     A.U. after   12 cycles
 SCF Done:  E(RB3LYP) =  -578.288583572     A.U. after   11 cycles
 SCF Done:  E(RB3LYP) =  -578.288585807     A.U. after   10 cycles
 SCF Done:  E(RB3LYP) =  -578.288586181     A.U. after    8 cycles
 SCF Done:  E(RB3LYP) =  -578.288586211     A.U. after    7 cycles
 SCF Done:  E(RB3LYP) =  -578.288586233     A.U. after    7 cycles
 Optimization completed.
    -- Stationary point found.

 1\1\GINC-NODE112\FOpt\RB3LYP\6-31G(d)\C9H16O3\VSC10255\09-Dec-2020\0\\
 # opt freq B3LYP/6-31G(d) empiricaldispersion=gd3bj scf=xqc\\CID_14871
 3185_JID_2766_neutraal\\0,1\C,0.7362182522,1.2340080841,-0.2530328719\
 C,-0.736083184,1.193063588,0.1846869754\C,-1.4440257903,-0.0896537625,
 -0.2547842424\C,-0.6741781405,-1.3466124823,0.1816903558\C,0.792902670
 4,-1.2817260669,-0.2662918399\C,1.5074237904,-0.0095977578,0.219374694
 6\C,2.9758307526,-0.0194597501,-0.2350721326\C,3.8300655022,1.18781423
 46,0.2169806434\C,3.8357433505,1.3231177218,1.7229739792\O,4.667905157

 Normal termination of Gaussian 16 at Wed Dec  9 18:00:31 2020.

 --------------------------------------------------------------------
 #N Geom=AllCheck Guess=TCheck SCRF=Check GenChk RB3LYP/6-31G(d) Freq
 --------------------------------------------------------------------

 Structure from the checkpoint file:  "JID_2766.chk"
 -------------------------------
 CID_148713185_JID_2766_neutraal
 -------------------------------
 Charge =  0 Multiplicity = 1

 SCF Done:  E(RB3LYP) =  -578.288586233     A.U. after    1 cycles

  Exact polarizability: 115.002   3.561  92.855   0.918  -1.092  90.716
 Approx polarizability: 145.167   8.989 137.242   8.250   3.924 140.445

                      1                      2                      3
                      A                      A                      A
 Frequencies --     20.3147                41.5456                69.7244
 Red. masses --      7.2377                 4.8230                 3.7895
 Frc consts  --      0.0018                 0.0049                 0.0109
 IR Inten    --      6.7757                 2.1672                 2.5978

                      4                      5                      6
                      A                      A                      A
 Frequencies --    125.1253               175.1501               186.9248
 Red. masses --      3.4225                 3.2576                 2.6752
 Frc consts  --      0.0316                 0.0589                 0.0551
 IR Inten    --      2.7461                 0.4538                 1.9600

                      7                      8                      9
                      A                      A                      A
 Frequencies --    235.3687               260.1053               275.3693
 Red. masses --      2.8660                 2.7175                 4.1879
 Frc consts  --      0.0935                 0.1083                 0.1871
 IR Inten    --      2.2354                 1.4736                 5.1256

                     10                     11                     12
                      A                      A                      A
 Frequencies --    317.6576               360.0304               387.3678
 Red. masses --      1.1052                 2.4936                 2.8592
 Frc consts  --      0.0657                 0.1904                 0.2528
 IR Inten    --     58.0187                 5.0687                 3.5775

                     13                     14                     15
                      A                      A                      A
 Frequencies --    418.3968               425.1612               447.2103
 Red. masses --      2.2343                 3.7885                 2.4467
 Frc consts  --      0.2304                 0.4035                 0.2883
 IR Inten    --      1.3642                 1.1639                 1.1919

                     16                     17                     18
                      A                      A                      A
 Frequencies --    513.1928               529.0040               533.7910
 Red. masses --      2.1237                 1.5461                 1.8031
 Frc consts  --      0.3295                 0.2549                 0.3027
 IR Inten    --      4.4527                71.3919                69.6417

                     19                     20                     21
                      A                      A                      A
 Frequencies --    608.4134               678.0100               768.6752
 Red. masses --      2.7964                 2.3378                 1.7291
 Frc consts  --      0.6099                 0.6332                 0.6020
 IR Inten    --     11.7988                 1.3785                 0.5502

                     22                     23                     24
                      A                      A                      A
 Frequencies --    802.1389               839.2577               873.5426
 Red. masses --      2.1376                 2.4261                 2.7147
 Frc consts  --      0.8104                 1.0068                 1.2205
 IR Inten    --     17.1513                 1.2144                21.0294

                     25                     26                     27
                      A                      A                      A
 Frequencies --    899.9528               927.8943               953.2754
 Red. masses --      2.2010                 1.7428                 1.7623
 Frc consts  --      1.0503                 0.8841                 0.9435
 IR Inten    --      4.8461                 1.2232                 7.1502

                     28                     29                     30
                      A                      A                      A
 Frequencies --    970.1776               995.4109              1026.6544
 Red. masses --      2.1701                 2.0712                 1.7950
 Frc consts  --      1.2035                 1.2091                 1.1147
 IR Inten    --     11.5498                15.3497                10.8433

                     31                     32                     33
                      A                      A                      A
 Frequencies --   1048.9795              1071.1343              1086.2562
 Red. masses --      2.3495                 2.3340                 2.2442
 Frc consts  --      1.5232                 1.5778                 1.5602
 IR Inten    --     10.7340                25.7871                41.7194

                     34                     35                     36
                      A                      A                      A
 Frequencies --   1095.3001              1124.1734              1132.1497
 Red. masses --      1.5868                 2.3171                 2.3192
 Frc consts  --      1.1216                 1.7253                 1.7514
 IR Inten    --      2.7530                85.4735                33.3123

                     37                     38                     39
                      A                      A                      A
 Frequencies --   1149.2553              1175.5087              1196.0991
 Red. masses --      2.1626                 1.6200                 1.3508
 Frc consts  --      1.6829                 1.3189                 1.1386
 IR Inten    --      2.3940                 0.3623                35.2606

                     40                     41                     42
                      A                      A                      A
 Frequencies --   1240.9950              1248.0253              1263.4903
 Red. masses --      1.2414                 1.4285                 1.3309
 Frc consts  --      1.1265                 1.3110                 1.2519
 IR Inten    --     16.1791                15.1012                 3.2200

                     43                     44                     45
                      A                      A                      A
 Frequencies --   1288.2846              1303.6981              1327.4178
 Red. masses --      1.4302                 1.2522                 1.3716
 Frc consts  --      1.3985                 1.2540                 1.4239
 IR Inten    --     13.6216                 9.9964                 6.7561

                     46                     47                     48
                      A                      A                      A
 Frequencies --   1347.9110              1360.7350              1367.7992
 Red. masses --      1.3469                 1.3047                 1.3979
 Frc consts  --      1.4418                 1.4233                 1.5408
 IR Inten    --      4.2275                 8.2600                 0.7129

                     49                     50                     51
                      A                      A                      A
 Frequencies --   1379.9741              1396.0079              1407.0866
 Red. masses --      1.3446                 1.4012                 1.4582
 Frc consts  --      1.5086                 1.6089                 1.7010
 IR Inten    --      2.0042                 2.0515                 2.4066

                     52                     53                     54
                      A                      A                      A
 Frequencies --   1414.2109              1420.8918              1445.0738
 Red. masses --      1.4451                 1.5796                 1.2219
 Frc consts  --      1.7029                 1.8790                 1.5034
 IR Inten    --      5.5929                 5.8479                47.6635

                     55                     56                     57
                      A                      A                      A
 Frequencies --   1446.1171              1461.1137              1508.0340
 Red. masses --      1.2115                 1.3016                 1.0901
 Frc consts  --      1.4928                 1.6372                 1.4606
 IR Inten    --      5.6591                80.6609                11.2627

                     58                     59                     60
                      A                      A                      A
 Frequencies --   1509.2727              1516.0562              1523.1667
 Red. masses --      1.0978                 1.0976                 1.0908
 Frc consts  --      1.4733                 1.4863                 1.4911
 IR Inten    --      8.9888                 0.9416                 3.9948

                     61                     62                     63
                      A                      A                      A
 Frequencies --   1534.7711              1834.5665              2889.9477
 Red. masses --      1.0900                 9.4464                 1.0832
 Frc consts  --      1.5127                18.7319                 5.3299
 IR Inten    --      8.2016               162.1303               109.2352

                     64                     65                     66
                      A                      A                      A
 Frequencies --   2994.4590              3003.0363              3015.2549
 Red. masses --      1.0765                 1.0742                 1.0731
 Frc consts  --      5.6870                 5.7078                 5.7480
 IR Inten    --      2.8222                10.6232                35.7806

                     67                     68                     69
                      A                      A                      A
 Frequencies --   3039.6753              3042.7422              3052.9346
 Red. masses --      1.0626                 1.0661                 1.0818
 Frc consts  --      5.7845                 5.8151                 5.9407
 IR Inten    --     37.0555                 7.0433                51.8548

                     70                     71                     72
                      A                      A                      A
 Frequencies --   3059.2038              3083.2306              3084.1564
 Red. masses --      1.0643                 1.0882                 1.0985
 Frc consts  --      5.8685                 6.0952                 6.1563
 IR Inten    --      7.5644                51.4930                12.5646

                     73                     74                     75
                      A                      A                      A
 Frequencies --   3092.9650              3094.6467              3098.0530
 Red. masses --      1.0979                 1.0950                 1.0890
 Frc consts  --      6.1880                 6.1785                 6.1583
 IR Inten    --      7.8810                72.4435                36.0563

                     76                     77                     78
                      A                      A                      A
 Frequencies --   3118.9091              3673.4033              3740.8937
 Red. masses --      1.1039                 1.0648                 1.0654
 Frc consts  --      6.3268                 8.4656                 8.7847
 IR Inten    --     24.2346                37.4255                 7.8587

 - Thermochemistry -
 -------------------
 Temperature   298.150 Kelvin.  Pressure   1.00000 Atm.
 Atom     1 has atomic number  6 and mass  12.00000

 Molecular mass:   172.10994 amu.
 Principal axes and moments of inertia in atomic units:
                           1         2         3
     Eigenvalues --   952.336594123.505704440.01522
           X            0.99994  -0.00266  -0.01061
           Y            0.00212   0.99873  -0.05035
           Z            0.01073   0.05033   0.99868
 This molecule is an asymmetric top.
 Rotational symmetry number  1.
 Warning -- assumption of classical behavior for rotation
           may cause significant error
 Rotational temperatures (Kelvin)      0.09095     0.02100     0.01951
 Rotational constants (GHZ):           1.89507     0.43767     0.40647
 Zero-point vibrational energy     648208.0 (Joules/Mol)
                                  154.92542 (Kcal/Mol)
 Warning -- explicit consideration of  19 degrees of freedom as
           vibrations may cause significant error
 Vibrational temperatures:     29.23    59.77   100.32   180.03   252.00
          (Kelvin)            268.94   338.64   374.23   396.20   457.04
                              518.00   557.34   601.98   611.71   643.44
                              738.37   761.12   768.01   875.37   975.51
                             1105.95  1154.10  1207.50  1256.83  1294.83
                             1335.03  1371.55  1395.87  1432.17  1477.13
                             1509.25  1541.12  1562.88  1575.89  1617.43
                             1628.91  1653.52  1691.29  1720.92  1785.52
                             1795.63  1817.88  1853.55  1875.73  1909.86
                             1939.34  1957.79  1967.96  1985.47  2008.54
                             2024.48  2034.73  2044.35  2079.14  2080.64
                             2102.22  2169.72  2171.51  2181.27  2191.50
                             2208.19  2639.53  4157.99  4308.36  4320.70
                             4338.28  4373.41  4377.83  4392.49  4401.51
                             4436.08  4437.41  4450.09  4452.51  4457.41
                             4487.41  5285.21  5382.31

 Zero-point correction=                           0.246889 (Hartree/Particle)
 Thermal correction to Energy=                    0.259321
 Thermal correction to Enthalpy=                  0.260265
 Thermal correction to Gibbs Free Energy=         0.206943
 Sum of electronic and zero-point Energies=           -578.041697
 Sum of electronic and thermal Energies=              -578.029265
 Sum of electronic and thermal Enthalpies=            -578.028321
 Sum of electronic and thermal Free Energies=         -578.081643

                     E (Thermal)             CV                S
                      KCal/Mol        Cal/Mol-Kelvin    Cal/Mol-Kelvin
 Total                  162.726             47.071            112.226
 Electronic               0.000              0.000              0.000
 Translational            0.889              2.981             41.336
 Rotational               0.889              2.981             31.234
 Vibrational            160.949             41.109             39.655
 Vibration     1          0.593              1.986              6.603
 Vibration     2          0.594              1.981              5.184
 Vibration     3          0.598              1.969              4.161
 Vibration     4          0.610              1.928              3.020
 Vibration     5          0.627              1.873              2.379
 Vibration     6          0.632              1.858              2.258
 Vibration     7          0.655              1.787              1.838
 Vibration     8          0.668              1.746              1.661
 Vibration     9          0.677              1.719              1.562
 Vibration    10          0.704              1.640              1.322
 Vibration    11          0.735              1.555              1.122
 Vibration    12          0.756              1.497              1.010
 Vibration    13          0.781              1.430              0.897
 Vibration    14          0.787              1.416              0.875
 Vibration    15          0.806              1.367              0.804
 Vibration    16          0.868              1.221              0.626
 Vibration    17          0.884              1.186              0.589
 Vibration    18          0.889              1.175              0.579
 Vibration    19          0.967              1.014              0.435

 Optimization completed on the basis of negligible forces.
    -- Stationary point found.

 1\1\GINC-NODE112\Freq\RB3LYP\6-31G(d)\C9H16O3\VSC10255\09-Dec-2020\0\\
 #N Geom=AllCheck Guess=TCheck SCRF=Check GenChk RB3LYP/6-31G(d) Freq\\
 CID_148713185_JID_2766_neutraal\\0,1\C,0.7362182522,1.2340080841,-0.25
 30328719\C,-0.736083184,1.193063588,0.1846869754\C,-1.4440257903,-0.08
 96537625,-0.2547842424\C,-0.6741781405,-1.3466124823,0.1816903558\C,0.
 7929026704,-1.2817260669,-0.2662918399\C,1.5074237904,-0.0095977578,0.
 2193746946\C,2.9758307526,-0.0194597501,-0.2350721326\C,3.8300655022,1
 .1878142346,0.2169806434\C,3.8357433505,1.3231177218,1.7229739792\O,4.

 Normal termination of Gaussian 16 at Wed Dec  9 18:07:58 2020.

 ----------------------------------------------------------------------
 # B3LYP/6-311++G(d,p) empiricaldispersion=gd3bj scf=xqc pop=npa geom=c
 heck
 ----------------------------------------------------------------------

 ---------------------------------------
 CID_148713185_JID_2766_Energie_neutraal
 ---------------------------------------
 Structure from the checkpoint file:  "JID_2766.chk"
 Charge =  0 Multiplicity = 1

 SCF Done:  E(RB3LYP) =  -578.475848562     A.U. after   14 cycles
 Normal termination of Gaussian 16 at Wed Dec  9 18:11:40 2020.

 ----------------------------------------------------------------------
 # B3LYP/6-311++G(d,p) empiricaldispersion=gd3bj scf=xqc pop=npa geom=c
 heck
 ----------------------------------------------------------------------

 -------------------------------------
 CID_148713185_JID_2766_Energie_kation
 -------------------------------------
 Structure from the checkpoint file:  "JID_2766.chk"
 Charge =  1 Multiplicity = 2

 SCF Done:  E(UB3LYP) =  -578.140013893     A.U. after   27 cycles
 Normal termination of Gaussian 16 at Wed Dec  9 18:20:45 2020.
 Gaussian 16:  ES64L-G16RevA.03 25-Dec-2016

 ------------------------------------
 CID_148713185_JID_2766_Energie_anion
 ------------------------------------
 Structure from the checkpoint file:  "JID_2766.chk"
 Charge = -1 Multiplicity = 2

                         Standard orientation:
 ---------------------------------------------------------------------
 Center     Atomic      Atomic             Coordinates (Angstroms)
 Number     Number       Type             X           Y           Z
 ---------------------------------------------------------------------
      1          6           0       -0.019470    1.278844    0.206086
      2          6           0        1.167590    1.585309   -0.720150
      3          6           0        2.341907    0.628870   -0.505939
      4          6           0        1.904686   -0.842418   -0.591205
      5          6           0        0.718145   -1.123199    0.341804
      6          6           0       -0.473672   -0.185409    0.087153
      7          6           0       -1.636016   -0.536572    1.029744
      8          6           0       -2.921616    0.305720    0.858404
      9          6           0       -3.455280    0.211970   -0.553251
     10          8           0       -4.274773   -0.604080   -0.914062
     11          8           0        3.004342   -1.689713   -0.304084
     12          8           0        3.009802    0.849052    0.748843
     13          1           0       -0.840818    1.965315   -0.027910
     14          1           0        0.247916    1.485214    1.255365
     15          1           0        0.836316    1.493334   -1.763374
     16          1           0        1.511960    2.616650   -0.583519
     17          1           0        3.119623    0.807564   -1.254565
     18          1           0        1.602580   -1.057408   -1.624504
     19          1           0        1.052990   -1.010551    1.385069
     20          1           0        0.421644   -2.171833    0.230250
     21          1           0       -0.805864   -0.346699   -0.950756
     22          1           0       -1.899622   -1.591420    0.885688
     23          1           0       -1.296883   -0.437366    2.069768
     24          1           0       -3.690713   -0.073093    1.538942
     25          1           0       -2.724222    1.356065    1.104130
     26          1           0       -3.023611    0.935069   -1.282749
     27          1           0        3.482803   -1.235526    0.413285
     28          1           0        2.333291    0.883915    1.443438
 ---------------------------------------------------------------------

 SCF Done:  E(UB3LYP) =  -578.470067575     A.U. after   33 cycles
 SCF Done:  E(UB3LYP) =  -578.470067575     a.u. after    1 cycles

 The electronic state is 2-A.
 Alpha  occ. eigenvalues --  -19.02788 -19.01763 -18.98381 -10.12210 -10.11811
 Alpha  occ. eigenvalues --  -10.11564 -10.07113 -10.07004 -10.06293 -10.06085
 Alpha  occ. eigenvalues --  -10.06026 -10.05737  -0.94029  -0.91665  -0.91135
 Alpha  occ. eigenvalues --   -0.73257  -0.67654  -0.64048  -0.62293  -0.55106
 Alpha  occ. eigenvalues --   -0.51730  -0.49953  -0.46682  -0.43581  -0.42327
 Alpha  occ. eigenvalues --   -0.38366  -0.37266  -0.36428  -0.35353  -0.34335
 Alpha  occ. eigenvalues --   -0.32803  -0.31849  -0.30928  -0.29921  -0.28587
 Alpha  occ. eigenvalues --   -0.27447  -0.25847  -0.25635  -0.25172  -0.24024
 Alpha  occ. eigenvalues --   -0.23040  -0.22448  -0.21778  -0.21160  -0.18669
 Alpha  occ. eigenvalues --   -0.16435  -0.12790   0.04737
 Alpha virt. eigenvalues --    0.07103   0.07408   0.08621   0.09106   0.09709
 Alpha virt. eigenvalues --    0.10683   0.10724   0.10991   0.11867   0.12485
 Alpha virt. eigenvalues --    0.13600   0.13862   0.14313   0.14714   0.15060

  Beta  occ. eigenvalues --  -19.02742 -19.01756 -18.98110 -10.12201 -10.11810
  Beta  occ. eigenvalues --  -10.11314 -10.07100 -10.06989 -10.06244 -10.06033
  Beta  occ. eigenvalues --  -10.06000 -10.05753  -0.93970  -0.91148  -0.91081
  Beta  occ. eigenvalues --   -0.73206  -0.67552  -0.63979  -0.62182  -0.54934
  Beta  occ. eigenvalues --   -0.51666  -0.49767  -0.46487  -0.43318  -0.42232
  Beta  occ. eigenvalues --   -0.38310  -0.37184  -0.36320  -0.35267  -0.34179
  Beta  occ. eigenvalues --   -0.32715  -0.31742  -0.30684  -0.29806  -0.28141
  Beta  occ. eigenvalues --   -0.27404  -0.25772  -0.25529  -0.24849  -0.23552
  Beta  occ. eigenvalues --   -0.22933  -0.22201  -0.21640  -0.21101  -0.18621
  Beta  occ. eigenvalues --   -0.16407  -0.12569
  Beta virt. eigenvalues --    0.07189   0.08257   0.08834   0.09078   0.09676
  Beta virt. eigenvalues --    0.10139   0.10871   0.11219   0.11477   0.12125
  Beta virt. eigenvalues --    0.12526   0.13831   0.14006   0.14753   0.14954

 Mulliken charges and spin densities:
               1          2
     1  C    1.418695  -1.822055
     2  C    0.242401  -0.979024
     3  C    0.101313   0.043017
     4  C   -0.879682   0.120453
     5  C    0.230296  -0.723829
     6  C   -1.391691   2.268461
     7  C    0.612455  -1.045944
     8  C    0.200023  -0.516463
     9  C   -0.195569   0.087924
    10  O   -0.300112   0.088272
    11  O   -0.165267   0.020859
    12  O   -0.207908  -0.011210
    13  H    0.083347   0.056209
    14  H   -0.530692   0.719675
    15  H    0.113219   0.004260
    16  H   -0.213211   0.429034
    17  H    0.036148   0.195476
    18  H    0.100664   0.069517
    19  H   -0.195378   0.428774
    20  H    0.141025  -0.013190
    21  H    0.045612   0.154162
    22  H    0.161340  -0.007625
    23  H   -0.514254   0.659677
    24  H   -0.006368   0.194352
    25  H   -0.093125   0.219921
    26  H    0.014105   0.045516
    27  H    0.202798   0.050964
    28  H   -0.010184   0.262819
 Sum of Mulliken charges =  -1.00000   1.00000

 Dipole moment (field-independent basis, Debye):
    X=              2.1778    Y=             -0.4096    Z=             -3.8202  Tot=              4.4164
 Quadrupole moment (field-independent basis, Debye-Ang):
   XX=           -143.6770   YY=           -104.4979   ZZ=           -107.0909
   XY=             -5.7056   XZ=             -6.2973   YZ=             -6.9969

 Summary of Natural Population Analysis:

                                       Natural Population
                Natural  -----------------------------------------------
    Atom  No    Charge         Core      Valence    Rydberg      Total
 -----------------------------------------------------------------------
      C    1   -0.19648      0.99960     2.18552    0.01136     3.19648
      C    2   -0.20199      0.99961     2.19323    0.00915     3.20199
      C    3    0.05401      0.99953     1.93099    0.01547     2.94599
      C    4    0.05766      0.99951     1.92984    0.01298     2.94234
      C    5   -0.20216      0.99959     2.19073    0.01184     3.20216
      C    6   -0.11261      0.99958     2.10347    0.00956     3.11261
      C    7   -0.17919      0.99960     2.16977    0.00982     3.17919
      C    8   -0.24041      0.99962     2.23091    0.00988     3.24041
      C    9    0.25336      0.99974     1.72694    0.01996     2.74664
      O   10   -0.26396      0.99988     3.25729    0.00678     4.26396
      O   11   -0.37647      0.99990     3.36977    0.00680     4.37647
      O   12   -0.38252      0.99990     3.37546    0.00716     4.38252
      H   13    0.10376      0.00000     0.39488    0.00136     0.39624
      H   14    0.09838      0.00000     0.39746    0.00416     0.40162
      H   15    0.09809      0.00000     0.40082    0.00109     0.40191
      H   16    0.10525      0.00000     0.39370    0.00105     0.39475
      H   17    0.09035      0.00000     0.40855    0.00110     0.40965
      H   18    0.08464      0.00000     0.41403    0.00133     0.41536
      H   19    0.09757      0.00000     0.40064    0.00179     0.40243
      H   20    0.10383      0.00000     0.39511    0.00105     0.39617
      H   21    0.09392      0.00000     0.40423    0.00185     0.40608
      H   22    0.09755      0.00000     0.40131    0.00114     0.40245
      H   23    0.10332      0.00000     0.39405    0.00263     0.39668
      H   24    0.10667      0.00000     0.39223    0.00110     0.39333
      H   25    0.10121      0.00000     0.39726    0.00153     0.39879
      H   26    0.03482      0.00000     0.46304    0.00214     0.46518
      H   27    0.23456      0.00000     0.26235    0.00309     0.26544
      H   28    0.23684      0.00000     0.25699    0.00617     0.26316
 =======================================================================
   * Total *   -0.00000     11.99607    34.84058    0.16335    47.00000

 Normal termination of Gaussian 16 at Wed Dec  9 18:31:41 2020.
