 Gaussian 16, Revision A.03,

 -----------------------------------------------------------
 # opt freq B3LYP/6-31G(d) empiricaldispersion=gd3bj scf=xqc
 -----------------------------------------------------------

 -------------------------------
 CID_151725794_JID_2563_neutraal
 -------------------------------
 Symbolic Z-matrix:
 Charge =  0 Multiplicity = 1

 SCF Done:  E(RB3LYP) =  -585.410986604     A.U. after   16 cycles
 SCF Done:  E(RB3LYP) =  -585.415096098     A.U. after   15 cycles
 SCF Done:  E(RB3LYP) =  -585.415148361     A.U. after   15 cycles
 SCF Done:  E(RB3LYP) =  -585.416313964     A.U. after   15 cycles
 SCF Done:  E(RB3LYP) =  -585.416878391     A.U. after   13 cycles
 SCF Done:  E(RB3LYP) =  -585.417357149     A.U. after   13 cycles
 SCF Done:  E(RB3LYP) =  -585.417637691     A.U. after   13 cycles
 SCF Done:  E(RB3LYP) =  -585.417818721     A.U. after   13 cycles
 SCF Done:  E(RB3LYP) =  -585.417980955     A.U. after   16 cycles
 SCF Done:  E(RB3LYP) =  -585.418376090     A.U. after   13 cycles
 SCF Done:  E(RB3LYP) =  -585.421523999     A.U. after   13 cycles
 SCF Done:  E(RB3LYP) =  -585.421553021     A.U. after   11 cycles
 SCF Done:  E(RB3LYP) =  -585.421562376     A.U. after   11 cycles
 SCF Done:  E(RB3LYP) =  -585.421566625     A.U. after   10 cycles
 SCF Done:  E(RB3LYP) =  -585.421567298     A.U. after    9 cycles
 SCF Done:  E(RB3LYP) =  -585.421567581     A.U. after    9 cycles
 Optimization completed.
    -- Stationary point found.
 Normal termination of Gaussian 16 at Wed Dec  9 18:00:59 2020.

 --------------------------------------------------------------------
 #N Geom=AllCheck Guess=TCheck SCRF=Check GenChk RB3LYP/6-31G(d) Freq
 --------------------------------------------------------------------

 Structure from the checkpoint file:  "JID_2563.chk"
 -------------------------------
 CID_151725794_JID_2563_neutraal
 -------------------------------
 Charge =  0 Multiplicity = 1

 SCF Done:  E(RB3LYP) =  -585.421567581     A.U. after    1 cycles

  Exact polarizability: 103.488   5.815  92.649   4.170  11.853  92.698
 Approx polarizability: 137.391  10.640 138.539   5.849  37.266 178.458

                      1                      2                      3
                      A                      A                      A
 Frequencies --     40.8260                43.1698                44.8510
 Red. masses --      3.4217                 7.1263                 5.8280
 Frc consts  --      0.0034                 0.0078                 0.0069
 IR Inten    --      0.2698                 0.4227                 2.2784

                      4                      5                      6
                      A                      A                      A
 Frequencies --     71.8295                95.9636               119.5230
 Red. masses --      4.1521                 8.5391                 3.1002
 Frc consts  --      0.0126                 0.0463                 0.0261
 IR Inten    --      0.5202                 0.9475                 2.0145

                      7                      8                      9
                      A                      A                      A
 Frequencies --    201.0314               234.5828               243.3357
 Red. masses --      6.4251                 3.2247                 1.7485
 Frc consts  --      0.1530                 0.1046                 0.0610
 IR Inten    --      2.3813                 1.8281                 2.3362

                     10                     11                     12
                      A                      A                      A
 Frequencies --    259.7957               277.1953               298.3844
 Red. masses --      1.1471                 1.4244                 2.2562
 Frc consts  --      0.0456                 0.0645                 0.1184
 IR Inten    --      0.5166                 3.9648                 4.9029

                     13                     14                     15
                      A                      A                      A
 Frequencies --    394.8618               405.5141               463.3625
 Red. masses --      2.8971                 2.4069                 2.2593
 Frc consts  --      0.2661                 0.2332                 0.2858
 IR Inten    --      4.6005                 4.7102                11.7293

                     16                     17                     18
                      A                      A                      A
 Frequencies --    499.4378               536.7135               564.5286
 Red. masses --      2.9498                 2.9375                 2.4450
 Frc consts  --      0.4335                 0.4985                 0.4591
 IR Inten    --      7.3056                 5.4533                36.3051

                     19                     20                     21
                      A                      A                      A
 Frequencies --    573.8414               628.9535               654.0140
 Red. masses --     12.5688                 2.5322                 4.4860
 Frc consts  --      2.4385                 0.5902                 1.1305
 IR Inten    --      8.9188                35.5107                14.9822

                     22                     23                     24
                      A                      A                      A
 Frequencies --    710.6852               776.7101               840.0720
 Red. masses --      1.7464                 3.5642                 3.8842
 Frc consts  --      0.5197                 1.2669                 1.6151
 IR Inten    --     86.1324                12.4335                15.0564

                     25                     26                     27
                      A                      A                      A
 Frequencies --    856.2645               977.3931               985.3169
 Red. masses --      3.6267                 2.1710                 2.4942
 Frc consts  --      1.5667                 1.2220                 1.4267
 IR Inten    --      8.5386                14.2425                16.9510

                     28                     29                     30
                      A                      A                      A
 Frequencies --   1016.0125              1064.7750              1076.9957
 Red. masses --      2.0400                 2.4180                 2.3064
 Frc consts  --      1.2407                 1.6152                 1.5762
 IR Inten    --     13.0838                86.0045                 7.1364

                     31                     32                     33
                      A                      A                      A
 Frequencies --   1080.5207              1094.7006              1131.4532
 Red. masses --      1.6566                 2.7116                 1.2715
 Frc consts  --      1.1396                 1.9145                 0.9591
 IR Inten    --      6.8827                22.0545                 6.6483

                     34                     35                     36
                      A                      A                      A
 Frequencies --   1194.8936              1219.5126              1232.5132
 Red. masses --      1.4819                 1.8774                 1.2442
 Frc consts  --      1.2466                 1.6450                 1.1136
 IR Inten    --     21.5951                32.4051                 2.8786

                     37                     38                     39
                      A                      A                      A
 Frequencies --   1271.1039              1311.3624              1329.6273
 Red. masses --      1.4563                 2.1564                 2.5781
 Frc consts  --      1.3863                 2.1849                 2.6854
 IR Inten    --      4.1498                99.1363                45.8507

                     40                     41                     42
                      A                      A                      A
 Frequencies --   1361.0041              1376.9168              1397.7225
 Red. masses --      2.6581                 1.5343                 1.3516
 Frc consts  --      2.9009                 1.7139                 1.5558
 IR Inten    --    149.9927                16.2592                 2.6607

                     43                     44                     45
                      A                      A                      A
 Frequencies --   1413.7253              1448.2711              1467.0584
 Red. masses --      1.2699                 1.6118                 1.1696
 Frc consts  --      1.4954                 1.9919                 1.4831
 IR Inten    --     31.5980                36.5433                 0.9589

                     46                     47                     48
                      A                      A                      A
 Frequencies --   1486.8441              1495.5469              1496.0374
 Red. masses --      1.1360                 1.1398                 1.5557
 Frc consts  --      1.4796                 1.5020                 2.0514
 IR Inten    --     11.6767                 6.2426                43.2181

                     49                     50                     51
                      A                      A                      A
 Frequencies --   1509.6584              1514.8255              1517.0657
 Red. masses --      1.0462                 1.0937                 1.1537
 Frc consts  --      1.4049                 1.4787                 1.5644
 IR Inten    --     11.2440                20.4142                17.5844

                     52                     53                     54
                      A                      A                      A
 Frequencies --   1526.0173              1537.0472              1552.3476
 Red. masses --      1.0710                 1.0517                 1.0536
 Frc consts  --      1.4694                 1.4640                 1.4959
 IR Inten    --     17.1558                 5.0248                 7.4852

                     55                     56                     57
                      A                      A                      A
 Frequencies --   1775.2694              2262.3110              2963.4942
 Red. masses --      7.7286                13.6289                 1.0587
 Frc consts  --     14.3509                41.0976                 5.4783
 IR Inten    --    310.6385               379.7859                57.7175

                     58                     59                     60
                      A                      A                      A
 Frequencies --   2996.1470              3053.0242              3078.4541
 Red. masses --      1.0538                 1.0696                 1.0717
 Frc consts  --      5.5734                 5.8742                 5.9842
 IR Inten    --     46.3673                 9.2148                18.3742

                     61                     62                     63
                      A                      A                      A
 Frequencies --   3083.4725              3090.8015              3094.1131
 Red. masses --      1.0683                 1.0787                 1.0601
 Frc consts  --      5.9843                 6.0717                 5.9796
 IR Inten    --     55.5613                29.4963                26.5022

                     64                     65                     66
                      A                      A                      A
 Frequencies --   3123.5024              3130.0435              3133.9885
 Red. masses --      1.1037                 1.1021                 1.0979
 Frc consts  --      6.3442                 6.3616                 6.3533
 IR Inten    --     21.3137                47.4328                 6.7459

                     67                     68                     69
                      A                      A                      A
 Frequencies --   3150.1295              3155.4422              3575.4360
 Red. masses --      1.1041                 1.0992                 1.0750
 Frc consts  --      6.4553                 6.4485                 8.0965
 IR Inten    --      0.8310                29.5923                15.4715

 - Thermochemistry -
 -------------------
 Temperature   298.150 Kelvin.  Pressure   1.00000 Atm.
 Atom     1 has atomic number  6 and mass  12.00000

 Molecular mass:   171.11201 amu.
 Principal axes and moments of inertia in atomic units:
                           1         2         3
     Eigenvalues --  1370.307452816.754453241.34657
           X            0.99904   0.03875   0.02023
           Y           -0.03936   0.99875   0.03069
           Z           -0.01901  -0.03146   0.99932
 This molecule is an asymmetric top.
 Rotational symmetry number  1.
 Warning -- assumption of classical behavior for rotation
           may cause significant error
 Rotational temperatures (Kelvin)      0.06321     0.03075     0.02672
 Rotational constants (GHZ):           1.31703     0.64072     0.55679
 Zero-point vibrational energy     553795.3 (Joules/Mol)
                                  132.36026 (Kcal/Mol)
 Warning -- explicit consideration of  19 degrees of freedom as
           vibrations may cause significant error
 Vibrational temperatures:     58.74    62.11    64.53   103.35   138.07
          (Kelvin)            171.97   289.24   337.51   350.11   373.79
                              398.82   429.31   568.12   583.44   666.68
                              718.58   772.21   812.23   825.63   904.92
                              940.98  1022.52  1117.51  1208.68  1231.97
                             1406.25  1417.65  1461.82  1531.97  1549.56
                             1554.63  1575.03  1627.91  1719.19  1754.61
                             1773.31  1828.84  1886.76  1913.04  1958.18
                             1981.08  2011.01  2034.04  2083.74  2110.77
                             2139.24  2151.76  2152.46  2172.06  2179.50
                             2182.72  2195.60  2211.47  2233.48  2554.22
                             3254.96  4263.81  4310.79  4392.62  4429.21
                             4436.43  4446.97  4451.74  4494.02  4503.43
                             4509.11  4532.33  4539.98  5144.25

 Zero-point correction=                           0.210929 (Hartree/Particle)
 Thermal correction to Energy=                    0.224113
 Thermal correction to Enthalpy=                  0.225057
 Thermal correction to Gibbs Free Energy=         0.169803
 Sum of electronic and zero-point Energies=           -585.210638
 Sum of electronic and thermal Energies=              -585.197455
 Sum of electronic and thermal Enthalpies=            -585.196511
 Sum of electronic and thermal Free Energies=         -585.251764

                     E (Thermal)             CV                S
                      KCal/Mol        Cal/Mol-Kelvin    Cal/Mol-Kelvin
 Total                  140.633             46.639            116.291
 Electronic               0.000              0.000              0.000
 Translational            0.889              2.981             41.319
 Rotational               0.889              2.981             30.904
 Vibrational            138.855             40.677             44.068
 Vibration     1          0.594              1.981              5.219
 Vibration     2          0.595              1.980              5.108
 Vibration     3          0.595              1.979              5.032
 Vibration     4          0.598              1.967              4.103
 Vibration     5          0.603              1.952              3.535
 Vibration     6          0.609              1.933              3.108
 Vibration     7          0.638              1.838              2.124
 Vibration     8          0.654              1.788              1.844
 Vibration     9          0.659              1.774              1.778
 Vibration    10          0.668              1.746              1.663
 Vibration    11          0.678              1.716              1.551
 Vibration    12          0.691              1.677              1.426
 Vibration    13          0.762              1.481              0.982
 Vibration    14          0.770              1.458              0.943
 Vibration    15          0.821              1.331              0.756
 Vibration    16          0.855              1.251              0.660
 Vibration    17          0.892              1.169              0.572
 Vibration    18          0.920              1.108              0.515
 Vibration    19          0.930              1.088              0.497

                           ! Non-Optimized Parameters !
 Normal termination of Gaussian 16 at Wed Dec  9 18:07:42 2020.

 ----------------------------------------------------------------------
 # B3LYP/6-311++G(d,p) empiricaldispersion=gd3bj scf=xqc pop=npa geom=c
 heck
 ----------------------------------------------------------------------

 ---------------------------------------
 CID_151725794_JID_2563_Energie_neutraal
 ---------------------------------------
 Structure from the checkpoint file:  "JID_2563.chk"
 Charge =  0 Multiplicity = 1

 SCF Done:  E(RB3LYP) =  -585.593033619     A.U. after   14 cycles
 Normal termination of Gaussian 16 at Wed Dec  9 18:10:37 2020.

 ----------------------------------------------------------------------
 # B3LYP/6-311++G(d,p) empiricaldispersion=gd3bj scf=xqc pop=npa geom=c
 heck
 ----------------------------------------------------------------------

 -------------------------------------
 CID_151725794_JID_2563_Energie_kation
 -------------------------------------
 Structure from the checkpoint file:  "JID_2563.chk"
 Charge =  1 Multiplicity = 2

 SCF Done:  E(UB3LYP) =  -585.282986308     A.U. after   27 cycles
 Normal termination of Gaussian 16 at Wed Dec  9 18:18:04 2020.
 Gaussian 16:  ES64L-G16RevA.03 25-Dec-2016

 ----------------------------------------------------------------------
 # B3LYP/6-311++G(d,p) empiricaldispersion=gd3bj scf=xqc pop=npa geom=c
 heck
 ----------------------------------------------------------------------

 ------------------------------------
 CID_151725794_JID_2563_Energie_anion
 ------------------------------------
 Structure from the checkpoint file:  "JID_2563.chk"
 Charge = -1 Multiplicity = 2

                         Standard orientation:
 ---------------------------------------------------------------------
 Center     Atomic      Atomic             Coordinates (Angstroms)
 Number     Number       Type             X           Y           Z
 ---------------------------------------------------------------------
      1          6           0        1.421149    1.336921   -0.922335
      2          7           0        2.452663    0.365989   -0.579602
      3          6           0        3.234417    0.791593    0.573939
      4          6           0        1.964197   -0.991071   -0.470684
      5          7           0        0.979553   -1.250133    0.587460
      6          6           0       -0.387722   -1.220543    0.531700
      7          8           0       -1.062189   -1.184831    1.555884
      8          6           0       -1.067462   -1.321762   -0.834743
      9          6           0       -2.438905   -0.645493   -0.808245
     10          7           0       -2.327619    0.830123   -0.828445
     11          7           0       -2.074818    1.382079    0.248367
     12          7           0       -1.843112    2.033004    1.157296
     13          1           0        1.894435    2.301133   -1.133675
     14          1           0        0.681057    1.493422   -0.119252
     15          1           0        0.890994    1.017176   -1.824689
     16          1           0        2.633124    0.930637    1.491148
     17          1           0        4.018642    0.054828    0.780195
     18          1           0        3.718337    1.747630    0.349477
     19          1           0        1.525323   -1.288209   -1.424444
     20          1           0        2.822431   -1.643877   -0.282295
     21          1           0        1.314588   -1.187148    1.542858
     22          1           0       -0.469457   -0.898213   -1.643745
     23          1           0       -1.196644   -2.390621   -1.053506
     24          1           0       -2.997633   -0.899365   -1.710789
     25          1           0       -2.998400   -0.984050    0.068318
 ---------------------------------------------------------------------

 SCF Done:  E(UB3LYP) =  -585.584956475     A.U. after   30 cycles

 The electronic state is 2-A.
 Alpha  occ. eigenvalues --  -18.98729 -14.35426 -14.25493 -14.24064 -14.23465
 Alpha  occ. eigenvalues --  -14.21357 -10.17371 -10.13497 -10.10793 -10.09248
 Alpha  occ. eigenvalues --  -10.08666 -10.08028  -1.01824  -0.93941  -0.86053
 Alpha  occ. eigenvalues --   -0.85254  -0.79519  -0.68767  -0.61953  -0.61295
 Alpha  occ. eigenvalues --   -0.58186  -0.51167  -0.47674  -0.42397  -0.41688
 Alpha  occ. eigenvalues --   -0.40733  -0.39405  -0.38880  -0.38425  -0.36296
 Alpha  occ. eigenvalues --   -0.34235  -0.34107  -0.33396  -0.31566  -0.29718
 Alpha  occ. eigenvalues --   -0.28916  -0.28754  -0.28312  -0.27393  -0.26855
 Alpha  occ. eigenvalues --   -0.25994  -0.18751  -0.17335  -0.15817  -0.14104
 Alpha  occ. eigenvalues --   -0.12815   0.04266
 Alpha virt. eigenvalues --    0.06195   0.07297   0.08147   0.08690   0.09548
 Alpha virt. eigenvalues --    0.10056   0.10461   0.11045   0.11696   0.11969
 Alpha virt. eigenvalues --    0.12838   0.12960   0.14040   0.14634   0.14984

  Beta  occ. eigenvalues --  -18.98717 -14.35281 -14.25298 -14.24099 -14.23452
  Beta  occ. eigenvalues --  -14.21354 -10.17359 -10.13468 -10.10737 -10.09211
  Beta  occ. eigenvalues --  -10.08638 -10.07992  -1.01540  -0.93914  -0.85912
  Beta  occ. eigenvalues --   -0.85231  -0.79493  -0.68681  -0.61896  -0.61239
  Beta  occ. eigenvalues --   -0.58048  -0.51110  -0.47603  -0.42322  -0.41524
  Beta  occ. eigenvalues --   -0.40634  -0.39318  -0.38484  -0.38326  -0.36209
  Beta  occ. eigenvalues --   -0.34132  -0.33999  -0.33105  -0.31410  -0.29676
  Beta  occ. eigenvalues --   -0.28877  -0.28679  -0.28254  -0.27336  -0.26773
  Beta  occ. eigenvalues --   -0.25936  -0.18431  -0.17271  -0.15790  -0.14047
  Beta  occ. eigenvalues --   -0.12788
  Beta virt. eigenvalues --    0.06795   0.07451   0.08415   0.08996   0.09464
  Beta virt. eigenvalues --    0.10093   0.10383   0.10843   0.11330   0.12054
  Beta virt. eigenvalues --    0.12491   0.12896   0.13356   0.14226   0.14878

 Mulliken charges and spin densities:
               1          2
     1  C    0.133020  -0.614366
     2  N   -0.183320   0.304713
     3  C    0.394822  -0.754238
     4  C    0.892877  -1.413772
     5  N   -0.178801   0.109213
     6  C   -0.800114   0.550228
     7  O   -0.321929   0.008910
     8  C    0.835220  -0.531703
     9  C    0.330818  -1.046019
    10  N   -0.719426   0.282645
    11  N    0.660524  -0.048045
    12  N   -0.099630  -0.041420
    13  H    0.051177   0.098410
    14  H   -0.016572   0.176246
    15  H   -0.161429   0.323637
    16  H    0.110474   0.007396
    17  H   -0.395141   0.545285
    18  H   -0.268132   0.403975
    19  H   -0.320007   0.504840
    20  H   -0.507479   0.699754
    21  H    0.105739   0.183341
    22  H    0.308087  -0.201590
    23  H   -0.515077   0.718973
    24  H   -0.546649   0.746580
    25  H    0.210947  -0.012993
 Sum of Mulliken charges =  -1.00000   1.00000

 Dipole moment (field-independent basis, Debye):
    X=             -0.8260    Y=              1.5499    Z=              0.7347  Tot=              1.9038
 Quadrupole moment (field-independent basis, Debye-Ang):
   XX=           -130.5439   YY=           -112.6648   ZZ=           -108.6454
   XY=              2.1726   XZ=             -1.9729   YZ=             -3.9661

 Summary of Natural Population Analysis:

                                       Natural Population
                Natural  -----------------------------------------------
    Atom  No    Charge         Core      Valence    Rydberg      Total
 -----------------------------------------------------------------------
      C    1   -0.18190      0.99964     2.17339    0.00887     3.18190
      N    2   -0.27766      0.99974     2.76447    0.01345     3.77766
      C    3   -0.18073      0.99964     2.17222    0.00888     3.18073
      C    4    0.00908      0.99959     1.97588    0.01545     2.99092
      N    5   -0.32654      0.99967     2.81652    0.01035     3.82654
      C    6    0.34491      0.99967     1.63226    0.02316     2.65509
      O    7   -0.32525      0.99988     3.31954    0.00583     4.32525
      C    8   -0.24234      0.99957     2.23363    0.00915     3.24234
      C    9   -0.09095      0.99959     2.07855    0.01282     3.09095
      N   10   -0.19976      0.99970     2.68576    0.01430     3.69976
      N   11    0.12687      0.99970     2.35808    0.01535     3.37313
      N   12   -0.02916      0.99982     2.51640    0.01294     3.52916
      H   13    0.09587      0.00000     0.40316    0.00097     0.40413
      H   14    0.08813      0.00000     0.41038    0.00149     0.41187
      H   15    0.09778      0.00000     0.40078    0.00144     0.40222
      H   16    0.08102      0.00000     0.41749    0.00149     0.41898
      H   17    0.09772      0.00000     0.40066    0.00162     0.40228
      H   18    0.09673      0.00000     0.40210    0.00117     0.40327
      H   19    0.09840      0.00000     0.39951    0.00209     0.40160
      H   20    0.09854      0.00000     0.39952    0.00194     0.40146
      H   21    0.19304      0.00000     0.30470    0.00225     0.30696
      H   22    0.10756      0.00000     0.39036    0.00208     0.39244
      H   23    0.11645      0.00000     0.38138    0.00217     0.38355
      H   24    0.10039      0.00000     0.39765    0.00196     0.39961
      H   25    0.10180      0.00000     0.39687    0.00133     0.39820
 =======================================================================
   * Total *   -0.00000     11.99620    33.83126    0.17254    46.00000

 Normal termination of Gaussian 16 at Wed Dec  9 18:25:57 2020.
