 Gaussian 16, Revision A.03,

 -----------------------------------------------------------
 # opt freq B3LYP/6-31G(d) empiricaldispersion=gd3bj scf=xqc
 -----------------------------------------------------------

 ------------------------------
 CID_64548133_JID_5229_neutraal
 ------------------------------
 Symbolic Z-matrix:
 Charge =  0 Multiplicity = 1

 SCF Done:  E(RB3LYP) =  -662.671719326     A.U. after   14 cycles
 SCF Done:  E(RB3LYP) =  -662.674411569     A.U. after   12 cycles
 SCF Done:  E(RB3LYP) =  -662.674884564     A.U. after   12 cycles
 SCF Done:  E(RB3LYP) =  -662.674998647     A.U. after   12 cycles
 SCF Done:  E(RB3LYP) =  -662.675122586     A.U. after   11 cycles
 SCF Done:  E(RB3LYP) =  -662.675221028     A.U. after   12 cycles
 SCF Done:  E(RB3LYP) =  -662.675285094     A.U. after   12 cycles
 SCF Done:  E(RB3LYP) =  -662.675331816     A.U. after   12 cycles
 SCF Done:  E(RB3LYP) =  -662.675439461     A.U. after   12 cycles
 SCF Done:  E(RB3LYP) =  -662.675635609     A.U. after   12 cycles
 SCF Done:  E(RB3LYP) =  -662.678348264     A.U. after    9 cycles
 SCF Done:  E(RB3LYP) =  -662.678348676     A.U. after   10 cycles
 SCF Done:  E(RB3LYP) =  -662.678348749     A.U. after    9 cycles
 SCF Done:  E(RB3LYP) =  -662.678348730     A.U. after    7 cycles
 SCF Done:  E(RB3LYP) =  -662.678348711     A.U. after    7 cycles
 Optimization completed.
    -- Stationary point found.
 Normal termination of Gaussian 16 at Thu Dec 10 15:05:18 2020.

 --------------------------------------------------------------------
 #N Geom=AllCheck Guess=TCheck SCRF=Check GenChk RB3LYP/6-31G(d) Freq
 --------------------------------------------------------------------

 Structure from the checkpoint file:  "JID_5229.chk"
 ------------------------------
 CID_64548133_JID_5229_neutraal
 ------------------------------
 Charge =  0 Multiplicity = 1

 SCF Done:  E(RB3LYP) =  -662.678348711     A.U. after    1 cycles

  Exact polarizability: 161.796  16.715 128.235   8.709  -4.981  92.154
 Approx polarizability: 227.391  26.897 203.717  20.370 -14.338 156.856

                      1                      2                      3
                      A                      A                      A
 Frequencies --     14.0046                25.6207                29.8972
 Red. masses --      4.6084                 6.1798                 5.8409
 Frc consts  --      0.0005                 0.0024                 0.0031
 IR Inten    --      2.2542                 0.2534                 1.9812

                      4                      5                      6
                      A                      A                      A
 Frequencies --     58.7419               101.1463               154.3099
 Red. masses --      3.4588                 4.3400                 4.1076
 Frc consts  --      0.0070                 0.0262                 0.0576
 IR Inten    --      1.7837                 0.2910                 0.3042

                      7                      8                      9
                      A                      A                      A
 Frequencies --    167.6276               244.3682               282.1408
 Red. masses --      4.0600                 2.9830                 3.1928
 Frc consts  --      0.0672                 0.1050                 0.1497
 IR Inten    --      2.1581                 1.1075                 4.0306

                     10                     11                     12
                      A                      A                      A
 Frequencies --    335.4958               367.7548               379.1233
 Red. masses --      2.7233                 2.9322                 3.2239
 Frc consts  --      0.1806                 0.2336                 0.2730
 IR Inten    --      1.6328                 0.7848                 0.2578

                     13                     14                     15
                      A                      A                      A
 Frequencies --    415.1275               488.5766               498.9331
 Red. masses --      3.2458                 3.3967                 2.7670
 Frc consts  --      0.3296                 0.4777                 0.4058
 IR Inten    --      3.3539                 1.2100                 7.8911

                     16                     17                     18
                      A                      A                      A
 Frequencies --    552.1030               626.0572               650.8584
 Red. masses --      1.4963                 5.5947                 5.0780
 Frc consts  --      0.2687                 1.2920                 1.2674
 IR Inten    --     54.2013                 1.8488                 2.2849

                     19                     20                     21
                      A                      A                      A
 Frequencies --    661.3779               696.1542               729.3157
 Red. masses --      3.1537                 2.9857                 2.2067
 Frc consts  --      0.8128                 0.8525                 0.6916
 IR Inten    --      1.6220                38.7906                21.3672

                     22                     23                     24
                      A                      A                      A
 Frequencies --    753.6374               801.9630               839.0530
 Red. masses --      3.4779                 1.5842                 1.3878
 Frc consts  --      1.1638                 0.6003                 0.5756
 IR Inten    --      2.3473                36.4173               121.7115

                     25                     26                     27
                      A                      A                      A
 Frequencies --    846.2941               867.5273               896.3162
 Red. masses --      3.5918                 2.6097                 1.3679
 Frc consts  --      1.5157                 1.1572                 0.6475
 IR Inten    --      4.5914                 1.6808                 8.7907

                     28                     29                     30
                      A                      A                      A
 Frequencies --    933.3850               952.8258               966.9078
 Red. masses --      2.2723                 1.3185                 1.4602
 Frc consts  --      1.1664                 0.7053                 0.8043
 IR Inten    --     12.7660                 0.1727                12.5205

                     31                     32                     33
                      A                      A                      A
 Frequencies --    986.9449               988.8854               993.4865
 Red. masses --      5.1867                 2.3237                 1.3927
 Frc consts  --      2.9767                 1.3388                 0.8099
 IR Inten    --     15.7505                 4.1388                 0.0065

                     34                     35                     36
                      A                      A                      A
 Frequencies --   1033.3879              1046.8921              1054.2543
 Red. masses --      2.0094                 4.0436                 3.8445
 Frc consts  --      1.2643                 2.6111                 2.5175
 IR Inten    --     38.2479                 9.6961                44.3631

                     37                     38                     39
                      A                      A                      A
 Frequencies --   1075.6594              1127.4333              1133.2687
 Red. masses --      2.6150                 3.4726                 2.0412
 Frc consts  --      1.7827                 2.6007                 1.5445
 IR Inten    --      0.1687                25.0217                 3.5910

                     40                     41                     42
                      A                      A                      A
 Frequencies --   1143.4176              1154.5622              1218.6238
 Red. masses --      2.1699                 1.5559                 2.2866
 Frc consts  --      1.6714                 1.2220                 2.0007
 IR Inten    --     24.6554                 3.3939                22.0497

                     43                     44                     45
                      A                      A                      A
 Frequencies --   1223.5467              1229.4763              1241.0257
 Red. masses --      1.9092                 1.5341                 1.2210
 Frc consts  --      1.6840                 1.3663                 1.1080
 IR Inten    --     38.7871                10.0777                 1.0829

                     46                     47                     48
                      A                      A                      A
 Frequencies --   1250.1335              1299.6755              1308.0125
 Red. masses --      1.9619                 1.8502                 2.2517
 Frc consts  --      1.8065                 1.8414                 2.2698
 IR Inten    --      0.4773                 6.7326                 6.3112

                     49                     50                     51
                      A                      A                      A
 Frequencies --   1318.3202              1336.0770              1372.7035
 Red. masses --      2.8512                 1.5723                 1.3784
 Frc consts  --      2.9196                 1.6537                 1.5303
 IR Inten    --     12.1330                13.2750                 1.8290

                     52                     53                     54
                      A                      A                      A
 Frequencies --   1381.8556              1401.7912              1419.1792
 Red. masses --      1.2966                 1.3112                 1.5534
 Frc consts  --      1.4587                 1.5180                 1.8433
 IR Inten    --      6.3149                42.4588                 9.4060

                     55                     56                     57
                      A                      A                      A
 Frequencies --   1431.7941              1476.1288              1499.9446
 Red. masses --      2.8990                 2.1444                 1.5086
 Frc consts  --      3.5016                 2.7530                 1.9998
 IR Inten    --      9.5819                28.3022                47.8484

                     58                     59                     60
                      A                      A                      A
 Frequencies --   1507.1216              1521.8200              1526.5895
 Red. masses --      1.1097                 1.9689                 2.2290
 Frc consts  --      1.4850                 2.6866                 3.0606
 IR Inten    --      2.1568                19.7137                11.4385

                     61                     62                     63
                      A                      A                      A
 Frequencies --   1533.6266              1554.5675              1596.2077
 Red. masses --      1.1244                 1.1972                 4.0304
 Frc consts  --      1.5581                 1.7046                 6.0503
 IR Inten    --      0.4836                31.0945                29.3907

                     64                     65                     66
                      A                      A                      A
 Frequencies --   1635.9356              1655.3614              2965.6024
 Red. masses --      5.1937                 5.6105                 1.0691
 Frc consts  --      8.1895                 9.0581                 5.5399
 IR Inten    --     15.6367                 2.2611                51.1330

                     67                     68                     69
                      A                      A                      A
 Frequencies --   3030.1177              3046.9715              3055.1301
 Red. masses --      1.0903                 1.0605                 1.0602
 Frc consts  --      5.8979                 5.8009                 5.8305
 IR Inten    --     28.7816                35.4194                31.7973

                     70                     71                     72
                      A                      A                      A
 Frequencies --   3086.5799              3099.5960              3170.3997
 Red. masses --      1.1043                 1.1042                 1.0882
 Frc consts  --      6.1988                 6.2504                 6.4444
 IR Inten    --     18.7389                43.7994                22.6111

                     73                     74                     75
                      A                      A                      A
 Frequencies --   3182.4785              3190.7871              3209.4370
 Red. masses --      1.0896                 1.0905                 1.0962
 Frc consts  --      6.5021                 6.5417                 6.6529
 IR Inten    --     19.4676                14.3704                22.5128

                     76                     77                     78
                      A                      A                      A
 Frequencies --   3281.3272              3488.6979              3653.0442
 Red. masses --      1.0974                 1.0734                 1.0818
 Frc consts  --      6.9615                 7.6972                 8.5060
 IR Inten    --      6.2077                18.1992                65.2409

 - Thermochemistry -
 -------------------
 Temperature   298.150 Kelvin.  Pressure   1.00000 Atm.
 Atom     1 has atomic number  6 and mass  12.00000

 Molecular mass:   203.11710 amu.
 Principal axes and moments of inertia in atomic units:
                           1         2         3
     Eigenvalues --  1314.663236743.928827468.24889
           X            0.99990   0.01436  -0.00073
           Y           -0.01436   0.99990   0.00126
           Z            0.00075  -0.00125   1.00000
 This molecule is an asymmetric top.
 Rotational symmetry number  1.
 Warning -- assumption of classical behavior for rotation
           may cause significant error
 Rotational temperatures (Kelvin)      0.06588     0.01284     0.01160
 Rotational constants (GHZ):           1.37278     0.26761     0.24166
 Zero-point vibrational energy     612933.8 (Joules/Mol)
                                  146.49469 (Kcal/Mol)
 Warning -- explicit consideration of  16 degrees of freedom as
           vibrations may cause significant error
 Vibrational temperatures:     20.15    36.86    43.02    84.52   145.53
          (Kelvin)            222.02   241.18   351.59   405.94   482.70
                              529.12   545.47   597.28   702.95   717.85
                              794.35   900.76   936.44   951.58  1001.61
                             1049.32  1084.32  1153.85  1207.21  1217.63
                             1248.18  1289.60  1342.93  1370.90  1391.16
                             1419.99  1422.79  1429.41  1486.81  1506.24
                             1516.84  1547.63  1622.13  1630.52  1645.12
                             1661.16  1753.33  1760.41  1768.94  1785.56
                             1798.66  1869.94  1881.94  1896.77  1922.32
                             1975.01  1988.18  2016.86  2041.88  2060.03
                             2123.82  2158.09  2168.41  2189.56  2196.42
                             2206.55  2236.68  2296.59  2353.75  2381.70
                             4266.84  4359.66  4383.91  4395.65  4440.90
                             4459.63  4561.50  4578.88  4590.83  4617.66
                             4721.10  5019.46  5255.92

 Zero-point correction=                           0.233454 (Hartree/Particle)
 Thermal correction to Energy=                    0.246384
 Thermal correction to Enthalpy=                  0.247328
 Thermal correction to Gibbs Free Energy=         0.190019
 Sum of electronic and zero-point Energies=           -662.444895
 Sum of electronic and thermal Energies=              -662.431965
 Sum of electronic and thermal Enthalpies=            -662.431021
 Sum of electronic and thermal Free Energies=         -662.488330

                     E (Thermal)             CV                S
                      KCal/Mol        Cal/Mol-Kelvin    Cal/Mol-Kelvin
 Total                  154.608             48.276            120.617
 Electronic               0.000              0.000              0.000
 Translational            0.889              2.981             41.830
 Rotational               0.889              2.981             32.560
 Vibrational            152.831             42.315             46.227
 Vibration     1          0.593              1.986              7.342
 Vibration     2          0.593              1.985              6.143
 Vibration     3          0.594              1.984              5.836
 Vibration     4          0.596              1.974              4.499
 Vibration     5          0.604              1.948              3.432
 Vibration     6          0.620              1.898              2.618
 Vibration     7          0.624              1.882              2.462
 Vibration     8          0.660              1.772              1.771
 Vibration     9          0.681              1.707              1.521
 Vibration    10          0.717              1.605              1.233
 Vibration    11          0.740              1.539              1.089
 Vibration    12          0.749              1.515              1.043
 Vibration    13          0.779              1.437              0.909
 Vibration    14          0.844              1.275              0.687
 Vibration    15          0.854              1.252              0.661
 Vibration    16          0.907              1.135              0.540

 Optimization completed.
    -- Stationary point found.
 Normal termination of Gaussian 16 at Thu Dec 10 15:13:34 2020.

 ----------------------------------------------------------------------
 # B3LYP/6-311++G(d,p) empiricaldispersion=gd3bj scf=xqc pop=npa geom=c
 heck
 ----------------------------------------------------------------------

 --------------------------------------
 CID_64548133_JID_5229_Energie_neutraal
 --------------------------------------
 Structure from the checkpoint file:  "JID_5229.chk"
 Charge =  0 Multiplicity = 1

 SCF Done:  E(RB3LYP) =  -662.858593369     A.U. after   15 cycles
 Normal termination of Gaussian 16 at Thu Dec 10 15:17:31 2020.

 ----------------------------------------------------------------------
 # B3LYP/6-311++G(d,p) empiricaldispersion=gd3bj scf=xqc pop=npa geom=c
 heck
 ----------------------------------------------------------------------

 ------------------------------------
 CID_64548133_JID_5229_Energie_kation
 ------------------------------------
 Structure from the checkpoint file:  "JID_5229.chk"
 Charge =  1 Multiplicity = 2

 SCF Done:  E(UB3LYP) =  -662.558498754     A.U. after   29 cycles
 Normal termination of Gaussian 16 at Thu Dec 10 15:28:27 2020.
 Gaussian 16:  ES64L-G16RevA.03 25-Dec-2016

 ----------------------------------------------------------------------
 # B3LYP/6-311++G(d,p) empiricaldispersion=gd3bj scf=xqc pop=npa geom=c
 heck
 ----------------------------------------------------------------------

 -----------------------------------
 CID_64548133_JID_5229_Energie_anion
 -----------------------------------
 Structure from the checkpoint file:  "JID_5229.chk"
 Charge = -1 Multiplicity = 2

                         Standard orientation:
 ---------------------------------------------------------------------
 Center     Atomic      Atomic             Coordinates (Angstroms)
 Number     Number       Type             X           Y           Z
 ---------------------------------------------------------------------
      1          6           0       -3.756387   -1.420255    0.688911
      2          6           0       -2.540368   -0.837538    1.043782
      3          6           0       -2.090702    0.283084    0.346009
      4          6           0       -2.895837    0.756000   -0.699536
      5          7           0       -4.064263    0.212102   -1.054281
      6          6           0       -4.478882   -0.857751   -0.361584
      7          6           0       -0.792956    0.973623    0.695874
      8          7           0        0.003338    1.221570   -0.503730
      9          6           0        1.200889    2.012898   -0.280317
     10          6           0        2.259740    1.410679    0.686268
     11          6           0        2.772619    0.091307    0.214272
     12          7           0        2.041026   -0.966779   -0.126881
     13          6           0        2.974555   -1.888565   -0.504983
     14          7           0        4.232726   -1.485068   -0.423414
     15          7           0        4.080085   -0.213644    0.036483
     16          1           0       -4.133682   -2.294858    1.210339
     17          1           0       -1.941050   -1.251165    1.851589
     18          1           0       -2.560848    1.612047   -1.280692
     19          1           0       -5.432872   -1.284701   -0.666470
     20          1           0       -1.005318    1.949039    1.157695
     21          1           0       -0.268161    0.371480    1.458208
     22          1           0        0.273148    0.318504   -0.893136
     23          1           0        1.675035    2.187986   -1.253021
     24          1           0        0.901744    2.991958    0.114522
     25          1           0        3.093668    2.115011    0.795043
     26          1           0        1.818556    1.288850    1.682653
     27          1           0        2.717803   -2.880978   -0.848532
     28          1           0        4.895570    0.358671    0.202383
 ---------------------------------------------------------------------

 SCF Done:  E(UB3LYP) =  -662.853551763     A.U. after   33 cycles
 SCF Done:  E(UB3LYP) =  -662.853551763     a.u. after    1 cycles

 The electronic state is 2-A.
 Alpha  occ. eigenvalues --  -14.29232 -14.24327 -14.20832 -14.20707 -14.19601
 Alpha  occ. eigenvalues --  -10.14853 -10.12405 -10.10737 -10.10237 -10.10041
 Alpha  occ. eigenvalues --  -10.09954 -10.08743 -10.08648 -10.08557 -10.08290
 Alpha  occ. eigenvalues --   -0.97915  -0.84405  -0.81454  -0.79651  -0.74351
 Alpha  occ. eigenvalues --   -0.71243  -0.67696  -0.64930  -0.58915  -0.54210
 Alpha  occ. eigenvalues --   -0.53364  -0.52789  -0.51263  -0.50259  -0.43790
 Alpha  occ. eigenvalues --   -0.42732  -0.40405  -0.39181  -0.36889  -0.36518
 Alpha  occ. eigenvalues --   -0.35166  -0.34578  -0.34428  -0.31953  -0.31181
 Alpha  occ. eigenvalues --   -0.30506  -0.30067  -0.28838  -0.28116  -0.26431
 Alpha  occ. eigenvalues --   -0.25201  -0.23231  -0.20413  -0.19300  -0.19026
 Alpha  occ. eigenvalues --   -0.17151  -0.16357  -0.16149  -0.12795   0.04163
 Alpha virt. eigenvalues --    0.05666   0.06625   0.07097   0.07860   0.08303
 Alpha virt. eigenvalues --    0.08741   0.09316   0.09828   0.10184   0.10648
 Alpha virt. eigenvalues --    0.11458   0.11868   0.12481   0.12815   0.13134

  Beta  occ. eigenvalues --  -14.29156 -14.24319 -14.20823 -14.20581 -14.19600
  Beta  occ. eigenvalues --  -10.14851 -10.12406 -10.10702 -10.10236 -10.10032
  Beta  occ. eigenvalues --  -10.09934 -10.08751 -10.08563 -10.08508 -10.08238
  Beta  occ. eigenvalues --   -0.97870  -0.84237  -0.81426  -0.79600  -0.74288
  Beta  occ. eigenvalues --   -0.71082  -0.67614  -0.64847  -0.58848  -0.54132
  Beta  occ. eigenvalues --   -0.53236  -0.52706  -0.51182  -0.50197  -0.43707
  Beta  occ. eigenvalues --   -0.42678  -0.40353  -0.39121  -0.36831  -0.36452
  Beta  occ. eigenvalues --   -0.35130  -0.34534  -0.34381  -0.31896  -0.31081
  Beta  occ. eigenvalues --   -0.30392  -0.29938  -0.28661  -0.28056  -0.26385
  Beta  occ. eigenvalues --   -0.25155  -0.23198  -0.20357  -0.19082  -0.18682
  Beta  occ. eigenvalues --   -0.17094  -0.16147  -0.15992  -0.12771
  Beta virt. eigenvalues --    0.06498   0.06742   0.07183   0.07643   0.08379
  Beta virt. eigenvalues --    0.08468   0.09282   0.09455   0.09892   0.10561
  Beta virt. eigenvalues --    0.11091   0.11777   0.12142   0.12721   0.12897

 Mulliken charges and spin densities:
               1          2
     1  C   -0.015453  -0.121663
     2  C   -0.472338   0.447815
     3  C    1.618220  -0.557891
     4  C   -0.575609  -0.024465
     5  N   -0.044863   0.057080
     6  C   -0.386147   0.031181
     7  C   -0.919044  -0.333360
     8  N    0.089607  -0.054295
     9  C   -0.876433   0.611536
    10  C    0.729675  -1.091612
    11  C    1.505382  -1.677524
    12  N   -0.235153  -0.011197
    13  C   -0.079787   0.152931
    14  N   -0.108899  -0.054025
    15  N   -0.092425   0.085640
    16  H    0.146895   0.012184
    17  H   -0.061853   0.201370
    18  H    0.191600   0.016719
    19  H    0.143724   0.003259
    20  H   -0.121212   0.279032
    21  H    0.527092  -0.359353
    22  H    0.210846  -0.021760
    23  H   -0.120332   0.300260
    24  H   -0.081288   0.239694
    25  H   -1.084925   1.291717
    26  H   -0.544698   0.724125
    27  H    0.116574   0.047027
    28  H   -0.459156   0.805574
 Sum of Mulliken charges =  -1.00000   1.00000

 Dipole moment (field-independent basis, Debye):
    X=             -7.8933    Y=             -4.8149    Z=             -0.7007  Tot=              9.2725
 Quadrupole moment (field-independent basis, Debye-Ang):
   XX=           -193.2697   YY=           -120.4184   ZZ=           -115.4373
   XY=             -9.8996   XZ=            -13.5094   YZ=             -5.5643

 Summary of Natural Population Analysis:

                                       Natural Population
                Natural  -----------------------------------------------
    Atom  No    Charge         Core      Valence    Rydberg      Total
 -----------------------------------------------------------------------
      C    1   -0.12890      0.99957     2.12012    0.00921     3.12890
      C    2   -0.06599      0.99952     2.05762    0.00884     3.06599
      C    3   -0.03295      0.99950     2.02346    0.00999     3.03295
      C    4    0.03135      0.99954     1.95419    0.01492     2.96865
      N    5   -0.21934      0.99972     2.70864    0.01099     3.71934
      C    6    0.02214      0.99960     1.96451    0.01375     2.97786
      C    7   -0.09604      0.99959     2.08520    0.01125     3.09604
      N    8   -0.34205      0.99975     2.83219    0.01011     3.84205
      C    9   -0.07847      0.99963     2.06626    0.01258     3.07847
      C   10   -0.22616      0.99959     2.21588    0.01068     3.22616
      C   11    0.19933      0.99962     1.78378    0.01727     2.80067
      N   12   -0.28352      0.99969     2.77467    0.00916     3.78352
      C   13    0.08685      0.99969     1.89559    0.01787     2.91315
      N   14   -0.16294      0.99974     2.65029    0.01291     3.66294
      N   15   -0.17292      0.99964     2.65922    0.01405     3.67292
      H   16    0.09925      0.00000     0.39985    0.00091     0.40075
      H   17    0.10041      0.00000     0.39853    0.00106     0.39959
      H   18    0.09527      0.00000     0.40256    0.00217     0.40473
      H   19    0.08436      0.00000     0.41451    0.00113     0.41564
      H   20    0.09691      0.00000     0.40180    0.00129     0.40309
      H   21    0.08619      0.00000     0.41149    0.00233     0.41381
      H   22    0.18583      0.00000     0.31124    0.00293     0.31417
      H   23    0.09459      0.00000     0.40421    0.00120     0.40541
      H   24    0.09388      0.00000     0.40486    0.00126     0.40612
      H   25    0.11770      0.00000     0.37291    0.00939     0.38230
      H   26    0.11100      0.00000     0.38695    0.00206     0.38900
      H   27    0.09031      0.00000     0.40893    0.00076     0.40969
      H   28    0.21391      0.00000     0.27061    0.01548     0.28609
 =======================================================================
   * Total *    0.00000     14.99438    38.78005    0.22556    54.00000

 Normal termination of Gaussian 16 at Thu Dec 10 15:40:54 2020.
