 Gaussian 16, Revision A.03,

 -----------------------------------------------------------
 # opt freq B3LYP/6-31G(d) empiricaldispersion=gd3bj scf=xqc
 -----------------------------------------------------------

 -------------------------------
 CID_106753473_JID_6988_neutraal
 -------------------------------
 Symbolic Z-matrix:
 Charge =  0 Multiplicity = 1

 SCF Done:  E(RB3LYP) =  -726.886545622     A.U. after   15 cycles
 SCF Done:  E(RB3LYP) =  -726.894404890     A.U. after   12 cycles
 SCF Done:  E(RB3LYP) =  -726.894233537     A.U. after   12 cycles
 SCF Done:  E(RB3LYP) =  -726.895033770     A.U. after   12 cycles
 SCF Done:  E(RB3LYP) =  -726.895518849     A.U. after   12 cycles
 SCF Done:  E(RB3LYP) =  -726.895677889     A.U. after   11 cycles
 SCF Done:  E(RB3LYP) =  -726.895843577     A.U. after   12 cycles
 SCF Done:  E(RB3LYP) =  -726.895946600     A.U. after   11 cycles
 SCF Done:  E(RB3LYP) =  -726.895988372     A.U. after   12 cycles
 SCF Done:  E(RB3LYP) =  -726.896199203     A.U. after   12 cycles
 SCF Done:  E(RB3LYP) =  -726.896933375     A.U. after    9 cycles
 SCF Done:  E(RB3LYP) =  -726.896934506     A.U. after    9 cycles
 SCF Done:  E(RB3LYP) =  -726.896934645     A.U. after    7 cycles
 SCF Done:  E(RB3LYP) =  -726.896934694     A.U. after    7 cycles
 Optimization completed.
    -- Stationary point found.
 Normal termination of Gaussian 16 at Fri Dec 11 01:56:09 2020.

 --------------------------------------------------------------------
 #N Geom=AllCheck Guess=TCheck SCRF=Check GenChk RB3LYP/6-31G(d) Freq
 --------------------------------------------------------------------

 Structure from the checkpoint file:  "JID_6988.chk"
 -------------------------------
 CID_106753473_JID_6988_neutraal
 -------------------------------
 Charge =  0 Multiplicity = 1

 SCF Done:  E(RB3LYP) =  -726.896934694     A.U. after    1 cycles

  Exact polarizability: 157.240   3.486 144.723 -12.271   3.679 108.963
 Approx polarizability: 219.740   4.769 240.512 -32.550   5.406 166.551

                      1                      2                      3
                      A                      A                      A
 Frequencies --     22.9574                48.9712                51.9050
 Red. masses --      4.1300                 4.3504                 1.1427
 Frc consts  --      0.0013                 0.0061                 0.0018
 IR Inten    --      0.7984                 0.0438                 0.3716

                      4                      5                      6
                      A                      A                      A
 Frequencies --     66.6362                82.2659               116.4501
 Red. masses --      3.7705                 6.1696                 3.1553
 Frc consts  --      0.0099                 0.0246                 0.0252
 IR Inten    --      0.4410                 5.2878                 2.9768

                      7                      8                      9
                      A                      A                      A
 Frequencies --    155.8298               179.4050               194.6919
 Red. masses --      3.9359                 2.1565                 4.2787
 Frc consts  --      0.0563                 0.0409                 0.0956
 IR Inten    --      0.5168                 0.7201                 2.4822

                     10                     11                     12
                      A                      A                      A
 Frequencies --    210.3914               226.1839               272.2434
 Red. masses --      3.2066                 4.0551                 3.7748
 Frc consts  --      0.0836                 0.1222                 0.1648
 IR Inten    --      2.5926                 3.4359                 0.9218

                     13                     14                     15
                      A                      A                      A
 Frequencies --    336.6021               351.0404               377.4801
 Red. masses --      3.3087                 2.7005                 2.7986
 Frc consts  --      0.2209                 0.1961                 0.2350
 IR Inten    --      4.0886                 8.5658                13.6552

                     16                     17                     18
                      A                      A                      A
 Frequencies --    406.7794               422.8574               441.1652
 Red. masses --      3.1438                 1.2761                 4.0179
 Frc consts  --      0.3065                 0.1344                 0.4607
 IR Inten    --     11.3068               119.2765                 8.5803

                     19                     20                     21
                      A                      A                      A
 Frequencies --    471.2239               526.4857               558.5624
 Red. masses --      3.2601                 5.4488                 4.5480
 Frc consts  --      0.4265                 0.8899                 0.8360
 IR Inten    --      3.1205                13.4808                 0.4877

                     22                     23                     24
                      A                      A                      A
 Frequencies --    572.4311               608.0831               679.6866
 Red. masses --      3.5907                 2.8145                 2.3962
 Frc consts  --      0.6932                 0.6132                 0.6522
 IR Inten    --     19.9784                 7.4988                26.2379

                     25                     26                     27
                      A                      A                      A
 Frequencies --    710.1121               735.0987               765.5290
 Red. masses --      2.0033                 4.6865                 2.3934
 Frc consts  --      0.5952                 1.4921                 0.8264
 IR Inten    --     12.4743                 2.6240                 5.9435

                     28                     29                     30
                      A                      A                      A
 Frequencies --    789.4257               803.5846               831.9466
 Red. masses --      2.5964                 1.6028                 1.5505
 Frc consts  --      0.9533                 0.6098                 0.6323
 IR Inten    --     29.7532                11.0238                 7.9453

                     31                     32                     33
                      A                      A                      A
 Frequencies --    872.5047               878.8926               906.4566
 Red. masses --      1.7930                 1.7706                 3.4952
 Frc consts  --      0.8042                 0.8058                 1.6920
 IR Inten    --     11.2192                 8.4984                 4.8748

                     34                     35                     36
                      A                      A                      A
 Frequencies --    911.3384               921.8289               947.5391
 Red. masses --      1.4088                 1.9153                 2.5919
 Frc consts  --      0.6894                 0.9590                 1.3711
 IR Inten    --     18.8782                 1.5506                 2.0557

                     37                     38                     39
                      A                      A                      A
 Frequencies --    958.7615               986.5162               992.6314
 Red. masses --      2.2182                 1.3813                 2.5720
 Frc consts  --      1.2013                 0.7920                 1.4931
 IR Inten    --      3.2364                 0.7859                 5.0997

                     40                     41                     42
                      A                      A                      A
 Frequencies --   1012.0558              1030.0793              1072.6295
 Red. masses --      3.1593                 1.9807                 1.2703
 Frc consts  --      1.9065                 1.2382                 0.8611
 IR Inten    --      1.1331                 1.9320                17.5934

                     43                     44                     45
                      A                      A                      A
 Frequencies --   1075.1152              1087.4309              1127.5450
 Red. masses --      1.5706                 2.9145                 2.1641
 Frc consts  --      1.0696                 2.0305                 1.6211
 IR Inten    --      6.8985               113.8053                 1.9845

                     46                     47                     48
                      A                      A                      A
 Frequencies --   1141.5683              1151.4712              1170.4599
 Red. masses --      1.5125                 2.1341                 2.4589
 Frc consts  --      1.1613                 1.6672                 1.9848
 IR Inten    --      3.8011                 3.0976                11.6863

                     49                     50                     51
                      A                      A                      A
 Frequencies --   1211.6443              1223.1122              1253.5133
 Red. masses --      1.7451                 1.4893                 1.4116
 Frc consts  --      1.5095                 1.3127                 1.3068
 IR Inten    --      9.3706                15.2406                19.8813

                     52                     53                     54
                      A                      A                      A
 Frequencies --   1268.2036              1274.4947              1289.3132
 Red. masses --      2.2242                 1.3090                 1.4119
 Frc consts  --      2.1077                 1.2527                 1.3829
 IR Inten    --     27.5794                 1.7523                 2.7883

                     55                     56                     57
                      A                      A                      A
 Frequencies --   1298.9993              1302.9519              1327.1810
 Red. masses --      1.8863                 8.9511                 1.7051
 Frc consts  --      1.8753                 8.9533                 1.7695
 IR Inten    --     11.2193                 2.7622                37.9837

                     58                     59                     60
                      A                      A                      A
 Frequencies --   1334.9402              1388.2911              1392.1549
 Red. masses --      1.4534                 3.0005                 1.4372
 Frc consts  --      1.5260                 3.4072                 1.6412
 IR Inten    --      4.0825               232.2321               114.1212

                     61                     62                     63
                      A                      A                      A
 Frequencies --   1430.6178              1439.8499              1443.4184
 Red. masses --      2.0603                 1.3124                 1.6038
 Frc consts  --      2.4844                 1.6030                 1.9688
 IR Inten    --     20.0916                31.4207                36.5868

                     64                     65                     66
                      A                      A                      A
 Frequencies --   1464.3232              1504.2968              1505.8532
 Red. masses --      1.5184                 1.0862                 1.0505
 Frc consts  --      1.9183                 1.4482                 1.4035
 IR Inten    --     17.4194                 1.5942                 5.5132

                     67                     68                     69
                      A                      A                      A
 Frequencies --   1514.5230              1516.5623              1530.0982
 Red. masses --      1.3747                 1.0831                 1.1106
 Frc consts  --      1.8578                 1.4678                 1.5319
 IR Inten    --     21.8846                 2.6385                 6.1427

                     70                     71                     72
                      A                      A                      A
 Frequencies --   1534.9650              1541.7397              1616.1557
 Red. masses --      1.6570                 1.1310                 8.0299
 Frc consts  --      2.3002                 1.5839                12.3574
 IR Inten    --      5.2285                 1.7610                43.2837

                     73                     74                     75
                      A                      A                      A
 Frequencies --   1658.0962              1767.0383              3023.4384
 Red. masses --      5.4296                 8.4407                 1.0686
 Frc consts  --      8.7950                15.5282                 5.7555
 IR Inten    --     31.0302               317.0395                64.4472

                     76                     77                     78
                      A                      A                      A
 Frequencies --   3057.9105              3076.5326              3086.2707
 Red. masses --      1.0361                 1.0594                 1.0595
 Frc consts  --      5.7081                 5.9077                 5.9457
 IR Inten    --     15.1633                26.2159                32.0452

                     79                     80                     81
                      A                      A                      A
 Frequencies --   3091.6765              3111.2235              3119.1687
 Red. masses --      1.0622                 1.0941                 1.1004
 Frc consts  --      5.9818                 6.2399                 6.3079
 IR Inten    --     19.7189                37.5805                11.1985

                     82                     83                     84
                      A                      A                      A
 Frequencies --   3127.9192              3138.7788              3139.0444
 Red. masses --      1.1077                 1.1036                 1.1083
 Frc consts  --      6.3856                 6.4057                 6.4344
 IR Inten    --      9.6773                16.4210                11.5119

                     85                     86                     87
                      A                      A                      A
 Frequencies --   3150.9280              3175.5962              3228.3782
 Red. masses --      1.1067                 1.0900                 1.0899
 Frc consts  --      6.4738                 6.4764                 6.6930
 IR Inten    --     35.4429                29.5887                 5.7453

                     88                     89                     90
                      A                      A                      A
 Frequencies --   3229.4634              3549.9530              3713.1094
 Red. masses --      1.0931                 1.0747                 1.0652
 Frc consts  --      6.7172                 7.9793                 8.6527
 IR Inten    --      4.6876                21.7504                18.2054

 - Thermochemistry -
 -------------------
 Temperature   298.150 Kelvin.  Pressure   1.00000 Atm.
 Atom     1 has atomic number  6 and mass  12.00000

 Molecular mass:   220.12118 amu.
 Principal axes and moments of inertia in atomic units:
                           1         2         3
     Eigenvalues --  2343.216084893.934655424.28305
           X            0.99980   0.01329   0.01477
           Y           -0.01411   0.99828   0.05683
           Z           -0.01399  -0.05703   0.99827
 This molecule is an asymmetric top.
 Rotational symmetry number  1.
 Warning -- assumption of classical behavior for rotation
           may cause significant error
 Rotational temperatures (Kelvin)      0.03696     0.01770     0.01597
 Rotational constants (GHZ):           0.77020     0.36877     0.33272
 Zero-point vibrational energy     707666.4 (Joules/Mol)
                                  169.13632 (Kcal/Mol)
 Warning -- explicit consideration of  23 degrees of freedom as
           vibrations may cause significant error
 Vibrational temperatures:     33.03    70.46    74.68    95.87   118.36
          (Kelvin)            167.55   224.20   258.12   280.12   302.71
                              325.43   391.70   484.30   505.07   543.11
                              585.26   608.40   634.74   677.99   757.50
                              803.65   823.60   874.90   977.92  1021.69
                             1057.64  1101.43  1135.81  1156.18  1196.99
                             1255.34  1264.53  1304.19  1311.21  1326.31
                             1363.30  1379.44  1419.38  1428.18  1456.12
                             1482.05  1543.27  1546.85  1564.57  1622.29
                             1642.46  1656.71  1684.03  1743.29  1759.79
                             1803.53  1824.66  1833.71  1855.03  1868.97
                             1874.66  1909.52  1920.68  1997.44  2003.00
                             2058.34  2071.62  2076.76  2106.83  2164.35
                             2166.59  2179.06  2181.99  2201.47  2208.47
                             2218.22  2325.29  2385.63  2542.37  4350.05
                             4399.65  4426.44  4440.46  4448.23  4476.36
                             4487.79  4500.38  4516.00  4516.38  4533.48
                             4568.97  4644.92  4646.48  5107.59  5342.34

 Zero-point correction=                           0.269536 (Hartree/Particle)
 Thermal correction to Energy=                    0.284936
 Thermal correction to Enthalpy=                  0.285880
 Thermal correction to Gibbs Free Energy=         0.225429
 Sum of electronic and zero-point Energies=           -726.627399
 Sum of electronic and thermal Energies=              -726.611998
 Sum of electronic and thermal Enthalpies=            -726.611054
 Sum of electronic and thermal Free Energies=         -726.671505

                     E (Thermal)             CV                S
                      KCal/Mol        Cal/Mol-Kelvin    Cal/Mol-Kelvin
 Total                  178.800             57.999            127.230
 Electronic               0.000              0.000              0.000
 Translational            0.889              2.981             42.070
 Rotational               0.889              2.981             32.498
 Vibrational            177.023             52.038             52.662
 Vibration     1          0.593              1.985              6.360
 Vibration     2          0.595              1.978              4.859
 Vibration     3          0.596              1.977              4.743
 Vibration     4          0.598              1.970              4.250
 Vibration     5          0.600              1.961              3.836
 Vibration     6          0.608              1.936              3.158
 Vibration     7          0.620              1.896              2.600
 Vibration     8          0.629              1.868              2.335
 Vibration     9          0.635              1.847              2.183
 Vibration    10          0.643              1.825              2.040
 Vibration    11          0.650              1.801              1.909
 Vibration    12          0.675              1.724              1.582
 Vibration    13          0.717              1.602              1.228
 Vibration    14          0.728              1.573              1.162
 Vibration    15          0.748              1.518              1.049
 Vibration    16          0.772              1.455              0.938
 Vibration    17          0.785              1.421              0.882
 Vibration    18          0.801              1.380              0.823
 Vibration    19          0.828              1.314              0.734
 Vibration    20          0.881              1.191              0.595
 Vibration    21          0.914              1.121              0.527
 Vibration    22          0.929              1.091              0.500
 Vibration    23          0.967              1.015              0.436

 Optimization completed.
    -- Stationary point found.
 Normal termination of Gaussian 16 at Fri Dec 11 02:07:30 2020.

 ----------------------------------------------------------------------
 # B3LYP/6-311++G(d,p) empiricaldispersion=gd3bj scf=xqc pop=npa geom=c
 heck
 ----------------------------------------------------------------------

 ---------------------------------------
 CID_106753473_JID_6988_Energie_neutraal
 ---------------------------------------
 Structure from the checkpoint file:  "JID_6988.chk"
 Charge =  0 Multiplicity = 1

 SCF Done:  E(RB3LYP) =  -727.108083746     A.U. after   17 cycles
 Normal termination of Gaussian 16 at Fri Dec 11 02:12:34 2020.

 ----------------------------------------------------------------------
 # B3LYP/6-311++G(d,p) empiricaldispersion=gd3bj scf=xqc pop=npa geom=c
 heck
 ----------------------------------------------------------------------

 -------------------------------------
 CID_106753473_JID_6988_Energie_kation
 -------------------------------------
 Structure from the checkpoint file:  "JID_6988.chk"
 Charge =  1 Multiplicity = 2

 SCF Done:  E(UB3LYP) =  -726.782345748     A.U. after   33 cycles
 SCF Done:  E(UB3LYP) =  -726.782345748     a.u. after    1 cycles
 Normal termination of Gaussian 16 at Fri Dec 11 02:25:52 2020.
 Gaussian 16:  ES64L-G16RevA.03 25-Dec-2016

 ----------------------------------------------------------------------
 # B3LYP/6-311++G(d,p) empiricaldispersion=gd3bj scf=xqc pop=npa geom=c
 heck
 ----------------------------------------------------------------------

 ------------------------------------
 CID_106753473_JID_6988_Energie_anion
 ------------------------------------
 Structure from the checkpoint file:  "JID_6988.chk"
 Charge = -1 Multiplicity = 2

                         Standard orientation:
 ---------------------------------------------------------------------
 Center     Atomic      Atomic             Coordinates (Angstroms)
 Number     Number       Type             X           Y           Z
 ---------------------------------------------------------------------
      1          6           0        2.959636    2.465114    0.416583
      2          6           0        2.580501    1.037079    0.121652
      3          7           0        3.440908    0.332115   -0.631308
      4          6           0        3.149934   -0.949204   -0.883171
      5          6           0        2.004692   -1.592383   -0.420592
      6          6           0        1.088367   -0.850306    0.327212
      7          6           0        1.393657    0.480757    0.612647
      8          6           0       -0.135383   -1.541021    0.851780
      9          8           0       -0.055144   -2.665880    1.331401
     10          7           0       -1.337021   -0.864250    0.819386
     11          6           0       -1.824293    0.122488   -0.160744
     12          6           0       -1.109152    0.276350   -1.531286
     13          6           0       -2.501829    0.294670   -2.213240
     14          6           0       -3.101061   -0.326874   -0.925495
     15          6           0       -2.047366    1.471699    0.534879
     16          8           0       -2.861450    1.340278    1.685558
     17          1           0        3.871748    2.499437    1.023158
     18          1           0        3.173716    3.000192   -0.514390
     19          1           0        2.166119    2.992662    0.953952
     20          1           0        3.875532   -1.491261   -1.486934
     21          1           0        1.817711   -2.639568   -0.630660
     22          1           0        0.732831    1.076359    1.231032
     23          1           0       -2.071834   -1.464026    1.182810
     24          1           0       -0.458118    1.147417   -1.649776
     25          1           0       -0.540714   -0.618056   -1.794707
     26          1           0       -2.605627   -0.284142   -3.134037
     27          1           0       -2.866057    1.309122   -2.398202
     28          1           0       -3.155957   -1.417914   -0.995183
     29          1           0       -4.049712    0.060717   -0.544097
     30          1           0       -1.076704    1.928823    0.777761
     31          1           0       -2.571952    2.156327   -0.138297
     32          1           0       -2.381656    0.743466    2.284007
 ---------------------------------------------------------------------

 SCF Done:  E(UB3LYP) =  -727.115770427     A.U. after   33 cycles
 SCF Done:  E(UB3LYP) =  -727.115770427     a.u. after    1 cycles

 The electronic state is 2-A.
 Alpha  occ. eigenvalues --  -19.02455 -18.93803 -14.20246 -14.13484 -10.11491
 Alpha  occ. eigenvalues --  -10.11366 -10.11184 -10.07473 -10.07252 -10.06432
 Alpha  occ. eigenvalues --  -10.05994 -10.04780 -10.04158 -10.02283 -10.02003
 Alpha  occ. eigenvalues --  -10.01937  -0.92857  -0.89293  -0.80018  -0.78584
 Alpha  occ. eigenvalues --   -0.73179  -0.65478  -0.63688  -0.60928  -0.56875
 Alpha  occ. eigenvalues --   -0.56077  -0.53348  -0.50521  -0.47338  -0.45869
 Alpha  occ. eigenvalues --   -0.42322  -0.40586  -0.40517  -0.38034  -0.36269
 Alpha  occ. eigenvalues --   -0.34399  -0.33676  -0.32633  -0.31777  -0.30024
 Alpha  occ. eigenvalues --   -0.29614  -0.28917  -0.28332  -0.27172  -0.26796
 Alpha  occ. eigenvalues --   -0.26084  -0.24825  -0.24643  -0.23510  -0.23159
 Alpha  occ. eigenvalues --   -0.22773  -0.20977  -0.20888  -0.18163  -0.14165
 Alpha  occ. eigenvalues --   -0.13234  -0.11742  -0.10947  -0.10206   0.04881
 Alpha virt. eigenvalues --    0.07010   0.08520   0.08751   0.09190   0.10330
 Alpha virt. eigenvalues --    0.10621   0.11171   0.11491   0.12091   0.12870
 Alpha virt. eigenvalues --    0.13116   0.13524   0.13890   0.13935   0.14881

  Beta  occ. eigenvalues --  -19.02436 -18.93531 -14.20230 -14.12986 -10.11363
  Beta  occ. eigenvalues --  -10.11291 -10.11173 -10.07466 -10.07246 -10.06424
  Beta  occ. eigenvalues --  -10.05994 -10.04755 -10.04163 -10.02191 -10.01885
  Beta  occ. eigenvalues --  -10.01639  -0.92810  -0.88817  -0.79879  -0.77953
  Beta  occ. eigenvalues --   -0.73106  -0.64785  -0.63464  -0.60895  -0.56806
  Beta  occ. eigenvalues --   -0.55873  -0.53248  -0.49848  -0.47188  -0.45755
  Beta  occ. eigenvalues --   -0.42121  -0.40530  -0.40440  -0.37999  -0.36061
  Beta  occ. eigenvalues --   -0.34146  -0.33570  -0.32551  -0.31610  -0.29723
  Beta  occ. eigenvalues --   -0.29396  -0.28794  -0.27892  -0.27094  -0.26602
  Beta  occ. eigenvalues --   -0.25928  -0.24672  -0.24201  -0.23265  -0.22781
  Beta  occ. eigenvalues --   -0.22061  -0.20845  -0.20693  -0.18046  -0.12747
  Beta  occ. eigenvalues --   -0.12484  -0.10828  -0.10055  -0.09533
  Beta virt. eigenvalues --    0.06978   0.08377   0.08657   0.09127   0.10228
  Beta virt. eigenvalues --    0.10424   0.11010   0.11260   0.11416   0.12097
  Beta virt. eigenvalues --    0.12823   0.13082   0.13423   0.13815   0.14019

 Mulliken charges and spin densities:
               1          2
     1  C   -0.647043  -0.000960
     2  C   -0.609678  -0.049760
     3  N   -0.094510   0.235158
     4  C   -0.096136  -0.000395
     5  C   -0.411225   0.213387
     6  C    0.641342   0.072939
     7  C    0.291820   0.213992
     8  C   -0.376682   0.079138
     9  O   -0.369458   0.094183
    10  N   -0.309897   0.028206
    11  C    0.493967  -0.149660
    12  C   -0.416145   0.193402
    13  C   -0.153771  -0.376378
    14  C   -0.295107   0.110613
    15  C   -0.737645   0.017796
    16  O   -0.185491  -0.003927
    17  H    0.120975   0.011892
    18  H    0.139145   0.001095
    19  H    0.105833  -0.001148
    20  H    0.126655  -0.002744
    21  H    0.146218   0.010041
    22  H    0.105528   0.014204
    23  H    0.289291   0.013764
    24  H    0.133019   0.053871
    25  H    0.206939  -0.019896
    26  H    0.054601   0.080805
    27  H    0.041933   0.073229
    28  H    0.127914   0.015489
    29  H    0.153554   0.009067
    30  H    0.155533   0.001162
    31  H    0.159113   0.016169
    32  H    0.209406   0.045264
 Sum of Mulliken charges =  -1.00000   1.00000

 Dipole moment (field-independent basis, Debye):
    X=             -5.2932    Y=              2.9326    Z=             -1.7523  Tot=              6.2999
 Quadrupole moment (field-independent basis, Debye-Ang):
   XX=           -143.2331   YY=           -122.5366   ZZ=           -114.1910
   XY=              3.0363   XZ=              5.9185   YZ=              6.4700

 Summary of Natural Population Analysis:

                                       Natural Population
                Natural  -----------------------------------------------
    Atom  No    Charge         Core      Valence    Rydberg      Total
 -----------------------------------------------------------------------
      C    1   -0.29286      0.99964     2.28814    0.00509     3.29286
      C    2    0.09643      0.99955     1.89183    0.01219     2.90357
      N    3   -0.18964      0.99967     2.67558    0.01439     3.68964
      C    4    0.02361      0.99960     1.96319    0.01359     2.97639
      C    5   -0.10345      0.99952     2.09377    0.01016     3.10345
      C    6    0.00422      0.99946     1.98425    0.01207     2.99578
      C    7   -0.10780      0.99947     2.09935    0.00898     3.10780
      C    8    0.36496      0.99962     1.61090    0.02453     2.63504
      O    9   -0.30121      0.99988     3.29608    0.00525     4.30121
      N   10   -0.34367      0.99964     2.83123    0.01280     3.84367
      C   11    0.05213      0.99954     1.93278    0.01556     2.94787
      C   12   -0.19080      0.99960     2.18169    0.00951     3.19080
      C   13   -0.19251      0.99965     2.18575    0.00710     3.19251
      C   14   -0.18963      0.99960     2.18137    0.00866     3.18963
      C   15   -0.01058      0.99950     1.99760    0.01347     3.01058
      O   16   -0.37506      0.99990     3.36866    0.00650     4.37506
      H   17    0.10006      0.00000     0.39886    0.00108     0.39994
      H   18    0.10049      0.00000     0.39847    0.00104     0.39951
      H   19    0.09204      0.00000     0.40722    0.00074     0.40796
      H   20    0.07815      0.00000     0.42060    0.00124     0.42185
      H   21    0.10149      0.00000     0.39765    0.00085     0.39851
      H   22    0.09134      0.00000     0.40748    0.00118     0.40866
      H   23    0.18840      0.00000     0.30981    0.00179     0.31160
      H   24    0.10509      0.00000     0.39390    0.00101     0.39491
      H   25    0.11376      0.00000     0.38515    0.00109     0.38624
      H   26    0.09475      0.00000     0.40399    0.00126     0.40525
      H   27    0.09239      0.00000     0.40596    0.00166     0.40761
      H   28    0.09925      0.00000     0.39975    0.00100     0.40075
      H   29    0.09921      0.00000     0.39985    0.00094     0.40079
      H   30    0.08421      0.00000     0.41464    0.00115     0.41579
      H   31    0.08304      0.00000     0.41594    0.00102     0.41696
      H   32    0.23220      0.00000     0.26462    0.00318     0.26780
 =======================================================================
   * Total *    0.00000     15.99383    42.80608    0.20009    59.00000

 Normal termination of Gaussian 16 at Fri Dec 11 02:39:04 2020.
