 Gaussian 16, Revision A.03,

 -----------------------------------------------------------
 # opt freq B3LYP/6-31G(d) empiricaldispersion=gd3bj scf=xqc
 -----------------------------------------------------------

 ------------------------------
 CID_62495240_JID_8517_neutraal
 ------------------------------
 Symbolic Z-matrix:
 Charge =  0 Multiplicity = 1

 SCF Done:  E(RB3LYP) =  -820.445507624     A.U. after   15 cycles
 SCF Done:  E(RB3LYP) =  -820.453629912     A.U. after   13 cycles
 SCF Done:  E(RB3LYP) =  -820.456214305     A.U. after   13 cycles
 SCF Done:  E(RB3LYP) =  -820.457328106     A.U. after   15 cycles
 SCF Done:  E(RB3LYP) =  -820.458317080     A.U. after   13 cycles
 SCF Done:  E(RB3LYP) =  -820.458464757     A.U. after   13 cycles
 SCF Done:  E(RB3LYP) =  -820.459243888     A.U. after   12 cycles
 SCF Done:  E(RB3LYP) =  -820.459390848     A.U. after   13 cycles
 SCF Done:  E(RB3LYP) =  -820.458852360     A.U. after   12 cycles
 SCF Done:  E(RB3LYP) =  -820.459077964     A.U. after   13 cycles
 SCF Done:  E(RB3LYP) =  -820.460533911     A.U. after    9 cycles
 SCF Done:  E(RB3LYP) =  -820.460534515     A.U. after    7 cycles
 SCF Done:  E(RB3LYP) =  -820.460534942     A.U. after    8 cycles
 SCF Done:  E(RB3LYP) =  -820.460535069     A.U. after    7 cycles
 SCF Done:  E(RB3LYP) =  -820.460535161     A.U. after    7 cycles
 Optimization completed.
    -- Stationary point found.
 Normal termination of Gaussian 16 at Fri Dec 11 21:07:02 2020.

 --------------------------------------------------------------------
 #N Geom=AllCheck Guess=TCheck SCRF=Check GenChk RB3LYP/6-31G(d) Freq
 --------------------------------------------------------------------

 Structure from the checkpoint file:  "JID_8517.chk"
 ------------------------------
 CID_62495240_JID_8517_neutraal
 ------------------------------
 Charge =  0 Multiplicity = 1

 SCF Done:  E(RB3LYP) =  -820.460535161     A.U. after    1 cycles

  Exact polarizability: 126.251  10.190 157.163  -2.520   0.169 156.830
 Approx polarizability: 167.787  24.688 255.204  -9.704 -13.299 282.756

                      1                      2                      3
                      A                      A                      A
 Frequencies --     45.7746                70.6739                72.6548
 Red. masses --      5.1707                 5.1187                 3.8733
 Frc consts  --      0.0064                 0.0151                 0.0120
 IR Inten    --      0.0586                 0.6783                 1.5672

                      4                      5                      6
                      A                      A                      A
 Frequencies --     94.8908               110.7783               117.2857
 Red. masses --      4.1316                 4.5634                 5.7661
 Frc consts  --      0.0219                 0.0330                 0.0467
 IR Inten    --      2.3366                 1.2951                 1.3836

                      7                      8                      9
                      A                      A                      A
 Frequencies --    152.1937               204.7195               225.1948
 Red. masses --      5.6924                 4.7244                 1.1099
 Frc consts  --      0.0777                 0.1167                 0.0332
 IR Inten    --      0.7178                 3.5160                 0.9091

                     10                     11                     12
                      A                      A                      A
 Frequencies --    232.0572               247.3016               271.5713
 Red. masses --      2.8224                 1.3115                 1.7668
 Frc consts  --      0.0895                 0.0473                 0.0768
 IR Inten    --      5.6045                 2.1212                 3.1283

                     13                     14                     15
                      A                      A                      A
 Frequencies --    283.1275               305.9524               314.0169
 Red. masses --      1.9719                 2.4372                 3.6929
 Frc consts  --      0.0931                 0.1344                 0.2145
 IR Inten    --     13.3587                 3.7387                 2.3096

                     16                     17                     18
                      A                      A                      A
 Frequencies --    327.5764               330.8311               383.8805
 Red. masses --      2.4379                 1.4093                 6.9593
 Frc consts  --      0.1541                 0.0909                 0.6042
 IR Inten    --      0.4082                25.7081                20.0303

                     19                     20                     21
                      A                      A                      A
 Frequencies --    428.8313               437.9348               454.3937
 Red. masses --      2.6761                 1.7102                 3.7200
 Frc consts  --      0.2900                 0.1932                 0.4525
 IR Inten    --     13.6323                55.0634                54.9745

                     22                     23                     24
                      A                      A                      A
 Frequencies --    464.1953               481.1213               542.3407
 Red. masses --      2.5568                 3.0724                 3.9580
 Frc consts  --      0.3246                 0.4190                 0.6859
 IR Inten    --     53.8458                 2.6269                13.4883

                     25                     26                     27
                      A                      A                      A
 Frequencies --    563.2327               585.5117               624.3626
 Red. masses --      4.2864                 5.6794                 3.3811
 Frc consts  --      0.8012                 1.1472                 0.7766
 IR Inten    --      3.0245                 1.3046                 6.7740

                     28                     29                     30
                      A                      A                      A
 Frequencies --    645.1315               657.4673               724.9990
 Red. masses --      4.1508                 4.6747                 5.8178
 Frc consts  --      1.0178                 1.1906                 1.8017
 IR Inten    --      8.2342                 0.4949                12.1380

                     31                     32                     33
                      A                      A                      A
 Frequencies --    735.2043               745.7268               752.2044
 Red. masses --      4.0789                 5.2414                 2.5891
 Frc consts  --      1.2990                 1.7173                 0.8631
 IR Inten    --      7.7168                12.4919                 8.9442

                     34                     35                     36
                      A                      A                      A
 Frequencies --    761.3447               770.5842               829.4466
 Red. masses --      1.2743                 7.3779                 1.9229
 Frc consts  --      0.4352                 2.5812                 0.7794
 IR Inten    --     31.3630                49.3799               146.9391

                     37                     38                     39
                      A                      A                      A
 Frequencies --    850.1857               872.9081               902.1385
 Red. masses --      2.0125                 2.6370                 1.6445
 Frc consts  --      0.8571                 1.1839                 0.7885
 IR Inten    --      5.5668                 5.2272               174.9465

                     40                     41                     42
                      A                      A                      A
 Frequencies --    924.4974               944.2791               960.0531
 Red. masses --      2.1606                 1.5844                 2.2408
 Frc consts  --      1.0880                 0.8324                 1.2169
 IR Inten    --      2.2412                12.1531                 0.9199

                     43                     44                     45
                      A                      A                      A
 Frequencies --    962.2822               966.2087               981.0734
 Red. masses --      1.5442                 1.2468                 2.5832
 Frc consts  --      0.8425                 0.6858                 1.4649
 IR Inten    --      1.4536                 0.9169                 1.8299

                     46                     47                     48
                      A                      A                      A
 Frequencies --   1004.7082              1039.9667              1060.7802
 Red. masses --      1.8352                 1.3128                 2.4327
 Frc consts  --      1.0915                 0.8366                 1.6128
 IR Inten    --     13.4710                 1.1046                 8.9942

                     49                     50                     51
                      A                      A                      A
 Frequencies --   1080.4502              1111.0580              1158.1519
 Red. masses --      2.2677                 2.1001                 1.8961
 Frc consts  --      1.5597                 1.5274                 1.4985
 IR Inten    --      3.6298                 6.7796                21.3952

                     52                     53                     54
                      A                      A                      A
 Frequencies --   1193.4466              1195.6377              1200.4179
 Red. masses --      1.2469                 1.1342                 2.8112
 Frc consts  --      1.0464                 0.9553                 2.3868
 IR Inten    --      4.0584                 6.8510                 8.1709

                     55                     56                     57
                      A                      A                      A
 Frequencies --   1204.1992              1231.3310              1250.1123
 Red. masses --      3.8645                 2.6929                 2.3691
 Frc consts  --      3.3017                 2.4056                 2.1814
 IR Inten    --     17.4068                 4.2484                 7.9822

                     58                     59                     60
                      A                      A                      A
 Frequencies --   1263.8634              1300.3386              1314.7106
 Red. masses --      1.4627                 2.1750                 2.6559
 Frc consts  --      1.3766                 2.1668                 2.7047
 IR Inten    --      0.3431                21.4448                30.1927

                     61                     62                     63
                      A                      A                      A
 Frequencies --   1338.3468              1369.2821              1379.9653
 Red. masses --      1.9479                 1.5302                 3.3449
 Frc consts  --      2.0557                 1.6904                 3.7529
 IR Inten    --     25.7486                38.3069                 6.8821

                     64                     65                     66
                      A                      A                      A
 Frequencies --   1397.9945              1408.2845              1414.7459
 Red. masses --      1.3958                 1.4471                 1.8503
 Frc consts  --      1.6072                 1.6910                 2.1820
 IR Inten    --     20.0046                17.8018                24.2316

                     67                     68                     69
                      A                      A                      A
 Frequencies --   1423.6234              1441.1128              1464.5215
 Red. masses --      1.2285                 1.4629                 3.2296
 Frc consts  --      1.4670                 1.7900                 4.0812
 IR Inten    --      4.8082                46.3837               172.1089

                     70                     71                     72
                      A                      A                      A
 Frequencies --   1499.9378              1509.5343              1512.0591
 Red. masses --      1.4539                 1.3968                 1.0712
 Frc consts  --      1.9272                 1.8753                 1.4429
 IR Inten    --      5.0150                16.7941                 6.1625

                     73                     74                     75
                      A                      A                      A
 Frequencies --   1514.3490              1521.9168              1530.3357
 Red. masses --      1.0595                 1.1920                 1.0729
 Frc consts  --      1.4315                 1.6266                 1.4804
 IR Inten    --      3.3717                17.8237                 7.3153

                     76                     77                     78
                      A                      A                      A
 Frequencies --   1538.3170              1551.0612              1641.3916
 Red. masses --      1.0707                 2.4854                 5.8401
 Frc consts  --      1.4928                 3.5230                 9.2703
 IR Inten    --     12.7886                34.2491                 6.4760

                     79                     80                     81
                      A                      A                      A
 Frequencies --   1664.2355              1722.7186              1799.3453
 Red. masses --      4.9193                 1.1467                11.6759
 Frc consts  --      8.0276                 2.0051                22.2724
 IR Inten    --     10.2184                43.9089               476.8462

                     82                     83                     84
                      A                      A                      A
 Frequencies --   1870.9701              3057.9779              3063.2024
 Red. masses --     10.8390                 1.0373                 1.0356
 Frc consts  --     22.3550                 5.7151                 5.7252
 IR Inten    --    199.8095                11.4854                31.3409

                     85                     86                     87
                      A                      A                      A
 Frequencies --   3065.3302              3104.8575              3122.7408
 Red. masses --      1.0636                 1.0596                 1.1014
 Frc consts  --      5.8880                 6.0184                 6.3278
 IR Inten    --     16.0650                25.6577                 3.7716

                     88                     89                     90
                      A                      A                      A
 Frequencies --   3132.0633              3135.5864              3149.3566
 Red. masses --      1.1006                 1.1013                 1.1035
 Frc consts  --      6.3612                 6.3798                 6.4488
 IR Inten    --      2.1833                21.7818                11.2509

                     91                     92                     93
                      A                      A                      A
 Frequencies --   3156.4025              3159.2689              3169.5527
 Red. masses --      1.1063                 1.1038                 1.0872
 Frc consts  --      6.4937                 6.4913                 6.4350
 IR Inten    --      6.2820                 4.9003                12.2932

                     94                     95                     96
                      A                      A                      A
 Frequencies --   3185.7434              3194.2554              3209.4576
 Red. masses --      1.0872                 1.0922                 1.0971
 Frc consts  --      6.5008                 6.5656                 6.6584
 IR Inten    --      2.6097                23.6623                21.0408

                     97                     98                     99
                      A                      A                      A
 Frequencies --   3492.5856              3582.3815              3637.1237
 Red. masses --      1.0512                 1.0920                 1.0782
 Frc consts  --      7.5548                 8.2567                 8.4036
 IR Inten    --     40.1906                21.9253                35.5135

 - Thermochemistry -
 -------------------
 Temperature   298.150 Kelvin.  Pressure   1.00000 Atm.
 Atom     1 has atomic number  6 and mass  12.00000

 Molecular mass:   247.13208 amu.
 Principal axes and moments of inertia in atomic units:
                           1         2         3
     Eigenvalues --  2989.569174595.656504842.67411
           X            0.99949  -0.03200  -0.00149
           Y            0.03190   0.98964   0.13996
           Z           -0.00301  -0.13993   0.99016
 This molecule is an asymmetric top.
 Rotational symmetry number  1.
 Warning -- assumption of classical behavior for rotation
           may cause significant error
 Rotational temperatures (Kelvin)      0.02897     0.01885     0.01789
 Rotational constants (GHZ):           0.60368     0.39271     0.37267
 Zero-point vibrational energy     772185.0 (Joules/Mol)
                                  184.55664 (Kcal/Mol)
 Warning -- explicit consideration of  26 degrees of freedom as
           vibrations may cause significant error
 Vibrational temperatures:     65.86   101.68   104.53   136.53   159.39
          (Kelvin)            168.75   218.97   294.55   324.01   333.88
                              355.81   390.73   407.36   440.20   451.80
                              471.31   475.99   552.32   616.99   630.09
                              653.77   667.87   692.23   780.31   810.37
                              842.42   898.32   928.20   945.95  1043.11
                             1057.80  1072.93  1082.25  1095.41  1108.70
                             1193.39  1223.23  1255.92  1297.98  1330.15
                             1358.61  1381.30  1384.51  1390.16  1411.55
                             1445.55  1496.28  1526.23  1554.53  1598.56
                             1666.32  1717.10  1720.26  1727.13  1732.57
                             1771.61  1798.63  1818.42  1870.90  1891.58
                             1925.58  1970.09  1985.46  2011.40  2026.21
                             2035.50  2048.28  2073.44  2107.12  2158.08
                             2171.88  2175.52  2178.81  2189.70  2201.81
                             2213.29  2231.63  2361.60  2394.46  2478.61
                             2588.86  2691.91  4399.75  4407.27  4410.33
                             4467.20  4492.93  4506.34  4511.41  4531.22
                             4541.36  4545.48  4560.28  4583.57  4595.82
                             4617.69  5025.05  5154.25  5233.01

 Zero-point correction=                           0.294110 (Hartree/Particle)
 Thermal correction to Energy=                    0.310810
 Thermal correction to Enthalpy=                  0.311754
 Thermal correction to Gibbs Free Energy=         0.250804
 Sum of electronic and zero-point Energies=           -820.166425
 Sum of electronic and thermal Energies=              -820.149725
 Sum of electronic and thermal Enthalpies=            -820.148781
 Sum of electronic and thermal Free Energies=         -820.209731

                     E (Thermal)             CV                S
                      KCal/Mol        Cal/Mol-Kelvin    Cal/Mol-Kelvin
 Total                  195.036             65.555            128.281
 Electronic               0.000              0.000              0.000
 Translational            0.889              2.981             42.415
 Rotational               0.889              2.981             32.564
 Vibrational            193.259             59.593             53.301
 Vibration     1          0.595              1.979              4.992
 Vibration     2          0.598              1.968              4.134
 Vibration     3          0.599              1.967              4.080
 Vibration     4          0.603              1.953              3.557
 Vibration     5          0.607              1.941              3.255
 Vibration     6          0.608              1.935              3.145
 Vibration     7          0.619              1.900              2.645
 Vibration     8          0.640              1.833              2.090
 Vibration     9          0.650              1.803              1.917
 Vibration    10          0.653              1.792              1.863
 Vibration    11          0.661              1.767              1.750
 Vibration    12          0.675              1.726              1.586
 Vibration    13          0.682              1.705              1.515
 Vibration    14          0.696              1.662              1.384
 Vibration    15          0.702              1.647              1.341
 Vibration    16          0.711              1.620              1.272
 Vibration    17          0.713              1.614              1.256
 Vibration    18          0.753              1.505              1.024
 Vibration    19          0.790              1.407              0.862
 Vibration    20          0.798              1.387              0.833
 Vibration    21          0.813              1.351              0.783
 Vibration    22          0.822              1.329              0.754
 Vibration    23          0.837              1.292              0.707
 Vibration    24          0.897              1.156              0.560
 Vibration    25          0.919              1.111              0.517
 Vibration    26          0.943              1.063              0.475

 Optimization completed.
    -- Stationary point found.
 Normal termination of Gaussian 16 at Fri Dec 11 21:25:33 2020.

 ----------------------------------------------------------------------
 # B3LYP/6-311++G(d,p) empiricaldispersion=gd3bj scf=xqc pop=npa geom=c
 heck
 ----------------------------------------------------------------------

 --------------------------------------
 CID_62495240_JID_8517_Energie_neutraal
 --------------------------------------
 Structure from the checkpoint file:  "JID_8517.chk"
 Charge =  0 Multiplicity = 1

 SCF Done:  E(RB3LYP) =  -820.695844484     A.U. after   15 cycles
 Normal termination of Gaussian 16 at Fri Dec 11 21:31:58 2020.

 ----------------------------------------------------------------------
 # B3LYP/6-311++G(d,p) empiricaldispersion=gd3bj scf=xqc pop=npa geom=c
 heck
 ----------------------------------------------------------------------

 ------------------------------------
 CID_62495240_JID_8517_Energie_kation
 ------------------------------------
 Structure from the checkpoint file:  "JID_8517.chk"
 Charge =  1 Multiplicity = 2

 SCF Done:  E(UB3LYP) =  -820.407506268     A.U. after   24 cycles
 Normal termination of Gaussian 16 at Fri Dec 11 21:45:46 2020.
 Gaussian 16:  ES64L-G16RevA.03 25-Dec-2016

 ----------------------------------------------------------------------
 # B3LYP/6-311++G(d,p) empiricaldispersion=gd3bj scf=xqc pop=npa geom=c
 heck
 ----------------------------------------------------------------------

 -----------------------------------
 CID_62495240_JID_8517_Energie_anion
 -----------------------------------
 Structure from the checkpoint file:  "JID_8517.chk"
 Charge = -1 Multiplicity = 2

                         Standard orientation:
 ---------------------------------------------------------------------
 Center     Atomic      Atomic             Coordinates (Angstroms)
 Number     Number       Type             X           Y           Z
 ---------------------------------------------------------------------
      1          6           0        3.320503   -1.584754    0.481691
      2          6           0        2.008446   -1.034802   -0.085311
      3          6           0        1.298664   -0.158752    0.957103
      4          8           0        0.937799   -0.510416    2.069154
      5          7           0        1.131002    1.083934    0.400436
      6          6           0        1.584726    1.127399   -0.937022
      7          8           0        1.420767    2.060283   -1.698343
      8          7           0        2.234909   -0.060653   -1.158089
      9          6           0        0.282214    2.111866    0.977541
     10          6           0       -1.135010    2.130518    0.348449
     11          6           0       -1.654583    0.788880   -0.114719
     12          6           0       -1.713862    0.509728   -1.483993
     13          6           0       -2.257076   -0.680077   -1.970583
     14          6           0       -2.756196   -1.617199   -1.065791
     15          6           0       -2.675260   -1.374367    0.303030
     16          6           0       -2.116629   -0.186225    0.797730
     17          7           0       -2.051860    0.064542    2.182472
     18          6           0        1.054021   -2.157776   -0.518843
     19          1           0        3.817002   -2.221860   -0.257936
     20          1           0        3.114652   -2.178932    1.376562
     21          1           0        3.997927   -0.768161    0.747565
     22          1           0        2.390796   -0.345018   -2.114962
     23          1           0        0.247380    1.902328    2.047973
     24          1           0        0.767301    3.079989    0.834338
     25          1           0       -1.820550    2.555639    1.091124
     26          1           0       -1.112503    2.803338   -0.512056
     27          1           0       -1.330819    1.253206   -2.177963
     28          1           0       -2.302339   -0.863789   -3.039871
     29          1           0       -3.193360   -2.546397   -1.421213
     30          1           0       -3.037263   -2.118496    1.009319
     31          1           0       -1.093194    0.221731    2.488464
     32          1           0       -2.419268   -0.717271    2.716555
     33          1           0        1.536955   -2.789775   -1.273106
     34          1           0        0.800500   -2.778594    0.344904
     35          1           0        0.130144   -1.748269   -0.935597
 ---------------------------------------------------------------------

 SCF Done:  E(UB3LYP) =  -820.683798313     A.U. after   33 cycles
 SCF Done:  E(UB3LYP) =  -820.683798313     a.u. after    1 cycles

 The electronic state is 2-A.
 Alpha  occ. eigenvalues --  -19.02693 -19.01419 -14.27892 -14.24991 -14.21957
 Alpha  occ. eigenvalues --  -10.22109 -10.20152 -10.14561 -10.13451 -10.12059
 Alpha  occ. eigenvalues --  -10.09285 -10.08861 -10.08174 -10.08097 -10.07818
 Alpha  occ. eigenvalues --  -10.07571 -10.07565 -10.07068  -0.99266  -0.96447
 Alpha  occ. eigenvalues --   -0.89284  -0.83512  -0.82594  -0.75112  -0.70439
 Alpha  occ. eigenvalues --   -0.70087  -0.65318  -0.63635  -0.60640  -0.58300
 Alpha  occ. eigenvalues --   -0.56755  -0.52594  -0.51706  -0.49891  -0.48174
 Alpha  occ. eigenvalues --   -0.43467  -0.42466  -0.41646  -0.40652  -0.39450
 Alpha  occ. eigenvalues --   -0.37516  -0.37450  -0.36728  -0.36062  -0.35280
 Alpha  occ. eigenvalues --   -0.34381  -0.33740  -0.33576  -0.32501  -0.31468
 Alpha  occ. eigenvalues --   -0.30862  -0.29853  -0.29008  -0.28779  -0.28001
 Alpha  occ. eigenvalues --   -0.27530  -0.26712  -0.26002  -0.24984  -0.21461
 Alpha  occ. eigenvalues --   -0.20831  -0.19615  -0.18524  -0.17567  -0.16083
 Alpha  occ. eigenvalues --   -0.12733   0.04230
 Alpha virt. eigenvalues --    0.06205   0.06411   0.06675   0.07427   0.08114
 Alpha virt. eigenvalues --    0.08252   0.08672   0.08999   0.09254   0.09483
 Alpha virt. eigenvalues --    0.10230   0.10950   0.11495   0.11798   0.11992

  Beta  occ. eigenvalues --  -19.02685 -19.01415 -14.27887 -14.24959 -14.21941
  Beta  occ. eigenvalues --  -10.22107 -10.20147 -10.14561 -10.13445 -10.12059
  Beta  occ. eigenvalues --  -10.09282 -10.08858 -10.08162 -10.08092 -10.07801
  Beta  occ. eigenvalues --  -10.07555 -10.07528 -10.07029  -0.99256  -0.96438
  Beta  occ. eigenvalues --   -0.89270  -0.83486  -0.82574  -0.75092  -0.70419
  Beta  occ. eigenvalues --   -0.70054  -0.65294  -0.63608  -0.60570  -0.58274
  Beta  occ. eigenvalues --   -0.56725  -0.52550  -0.51671  -0.49861  -0.48146
  Beta  occ. eigenvalues --   -0.43437  -0.42426  -0.41619  -0.40618  -0.39421
  Beta  occ. eigenvalues --   -0.37496  -0.37410  -0.36704  -0.36043  -0.35258
  Beta  occ. eigenvalues --   -0.34351  -0.33724  -0.33547  -0.32473  -0.31441
  Beta  occ. eigenvalues --   -0.30836  -0.29815  -0.28967  -0.28736  -0.27985
  Beta  occ. eigenvalues --   -0.27505  -0.26686  -0.25981  -0.24962  -0.21445
  Beta  occ. eigenvalues --   -0.20814  -0.19606  -0.18508  -0.17540  -0.16070
  Beta  occ. eigenvalues --   -0.12719
  Beta virt. eigenvalues --    0.06287   0.06680   0.06967   0.07458   0.07843
  Beta virt. eigenvalues --    0.08228   0.08461   0.09101   0.09493   0.09651
  Beta virt. eigenvalues --    0.09784   0.10531   0.11512   0.11922   0.12129

 Mulliken charges and spin densities:
               1          2
     1  C    0.358802  -0.700742
     2  C   -1.499366   1.902529
     3  C    1.258605  -1.574990
     4  O   -0.327025   0.041023
     5  N    0.067076   0.075072
     6  C    0.205186  -0.201122
     7  O   -0.356077   0.017163
     8  N   -0.136026   0.030494
     9  C    0.319362  -0.386680
    10  C   -0.236587  -0.687022
    11  C    0.826115  -0.056033
    12  C   -0.306726   0.134236
    13  C   -0.545045   0.116493
    14  C    1.712935  -2.011244
    15  C    0.051442  -0.021420
    16  C   -1.377965   1.020142
    17  N   -0.262814  -0.037958
    18  C    0.638491  -1.368302
    19  H   -0.555259   0.736344
    20  H   -0.048144   0.222848
    21  H   -0.101159   0.262613
    22  H   -0.135887   0.457786
    23  H    0.154041   0.030302
    24  H    0.139306   0.048033
    25  H    0.124573   0.063209
    26  H    0.127462   0.057574
    27  H    0.142172   0.043738
    28  H   -0.426865   0.607270
    29  H   -0.266265   0.431544
    30  H   -0.673573   0.838757
    31  H    0.236139   0.000663
    32  H    0.082816   0.173519
    33  H   -0.707629   0.901414
    34  H    0.010016   0.163418
    35  H    0.507872  -0.330671
 Sum of Mulliken charges =  -1.00000   1.00000

 Dipole moment (field-independent basis, Debye):
    X=             -1.7658    Y=              6.6615    Z=              3.5799  Tot=              7.7659
 Quadrupole moment (field-independent basis, Debye-Ang):
   XX=           -174.2027   YY=           -159.4532   ZZ=           -154.4651
   XY=              2.4774   XZ=              8.8246   YZ=             -1.7943

 Summary of Natural Population Analysis:

                                       Natural Population
                Natural  -----------------------------------------------
    Atom  No    Charge         Core      Valence    Rydberg      Total
 -----------------------------------------------------------------------
      C    1   -0.28260      0.99962     2.27572    0.00727     3.28260
      C    2    0.02403      0.99955     1.96266    0.01376     2.97597
      C    3    0.36437      0.99958     1.61095    0.02510     2.63563
      O    4   -0.31637      0.99987     3.31076    0.00574     4.31637
      N    5   -0.26252      0.99958     2.75353    0.00941     3.76252
      C    6    0.41691      0.99968     1.55946    0.02395     2.58309
      O    7   -0.31929      0.99987     3.31416    0.00526     4.31929
      N    8   -0.32431      0.99965     2.81342    0.01124     3.82431
      C    9   -0.08576      0.99962     2.07621    0.00993     3.08576
      C   10   -0.20438      0.99960     2.19653    0.00826     3.20438
      C   11   -0.04167      0.99946     2.03137    0.01084     3.04167
      C   12   -0.09443      0.99952     2.08538    0.00954     3.09443
      C   13   -0.11709      0.99956     2.10684    0.01069     3.11709
      C   14   -0.09467      0.99956     2.08470    0.01041     3.09467
      C   15   -0.11817      0.99952     2.10820    0.01045     3.11817
      C   16    0.08342      0.99944     1.90528    0.01186     2.91658
      N   17   -0.40834      0.99972     2.89958    0.00903     3.90834
      C   18   -0.28571      0.99961     2.27835    0.00775     3.28571
      H   19    0.10806      0.00000     0.38966    0.00228     0.39194
      H   20    0.10870      0.00000     0.39020    0.00110     0.39130
      H   21    0.10286      0.00000     0.39592    0.00123     0.39714
      H   22    0.20528      0.00000     0.29056    0.00416     0.29472
      H   23    0.10499      0.00000     0.39366    0.00135     0.39501
      H   24    0.10625      0.00000     0.39276    0.00099     0.39375
      H   25    0.10957      0.00000     0.38934    0.00109     0.39043
      H   26    0.10714      0.00000     0.39169    0.00117     0.39286
      H   27    0.10470      0.00000     0.39383    0.00147     0.39530
      H   28    0.10332      0.00000     0.39570    0.00098     0.39668
      H   29    0.10321      0.00000     0.39552    0.00127     0.39679
      H   30    0.10120      0.00000     0.39717    0.00163     0.39880
      H   31    0.19384      0.00000     0.30385    0.00231     0.30616
      H   32    0.18156      0.00000     0.31680    0.00163     0.31844
      H   33    0.10640      0.00000     0.39117    0.00243     0.39360
      H   34    0.10958      0.00000     0.38888    0.00154     0.39042
      H   35    0.10990      0.00000     0.38689    0.00321     0.39010
 =======================================================================
   * Total *    0.00000     17.99297    47.77668    0.23035    66.00000

 Normal termination of Gaussian 16 at Fri Dec 11 22:04:56 2020.
