 Gaussian 16, Revision A.03,

 -----------------------------------------------------------
 # opt freq B3LYP/6-31G(d) empiricaldispersion=gd3bj scf=xqc
 -----------------------------------------------------------

 -------------------------------
 CID_148964480_JID_1956_neutraal
 -------------------------------
 Symbolic Z-matrix:
 Charge =  0 Multiplicity = 1

 SCF Done:  E(RB3LYP) =  -430.029381926     A.U. after   12 cycles
 SCF Done:  E(RB3LYP) =  -430.035564053     A.U. after   10 cycles
 SCF Done:  E(RB3LYP) =  -430.035869410     A.U. after   10 cycles
 SCF Done:  E(RB3LYP) =  -430.036049949     A.U. after   10 cycles
 SCF Done:  E(RB3LYP) =  -430.036097938     A.U. after    9 cycles
 SCF Done:  E(RB3LYP) =  -430.036211074     A.U. after    9 cycles
 SCF Done:  E(RB3LYP) =  -430.036243382     A.U. after    9 cycles
 SCF Done:  E(RB3LYP) =  -430.036202626     A.U. after   10 cycles
 SCF Done:  E(RB3LYP) =  -430.036388337     A.U. after   10 cycles
 SCF Done:  E(RB3LYP) =  -430.036381190     A.U. after    9 cycles
 SCF Done:  E(RB3LYP) =  -430.036598924     A.U. after    9 cycles
 SCF Done:  E(RB3LYP) =  -430.036558225     A.U. after    9 cycles
 SCF Done:  E(RB3LYP) =  -430.036608198     A.U. after    9 cycles
 SCF Done:  E(RB3LYP) =  -430.036608723     A.U. after    8 cycles
 SCF Done:  E(RB3LYP) =  -430.036609004     A.U. after    7 cycles
 SCF Done:  E(RB3LYP) =  -430.036609016     A.U. after    5 cycles
 Optimization completed.
    -- Stationary point found.
 Normal termination of Gaussian 16 at Tue Dec  8 21:46:32 2020.

 --------------------------------------------------------------------
 #N Geom=AllCheck Guess=TCheck SCRF=Check GenChk RB3LYP/6-31G(d) Freq
 --------------------------------------------------------------------

 Structure from the checkpoint file:  "JID_1956.chk"
 -------------------------------
 CID_148964480_JID_1956_neutraal
 -------------------------------
 Charge =  0 Multiplicity = 1

 SCF Done:  E(RB3LYP) =  -430.036609016     A.U. after    1 cycles

  Exact polarizability: 119.881  -0.156  98.385   0.487   0.017  97.842
 Approx polarizability: 149.429  -0.209 148.194   1.387   0.459 148.102

                      1                      2                      3
                      A                      A                      A
 Frequencies --     85.8038               102.1776               160.9705
 Red. masses --      2.6670                 1.6548                 2.6491
 Frc consts  --      0.0116                 0.0102                 0.0404
 IR Inten    --      0.0134                 0.0037                 0.0093

                      4                      5                      6
                      A                      A                      A
 Frequencies --    198.3674               313.0384               327.0114
 Red. masses --      2.5242                 2.8694                 2.0329
 Frc consts  --      0.0585                 0.1657                 0.1281
 IR Inten    --      0.0023                 0.0829                 0.0469

                      7                      8                      9
                      A                      A                      A
 Frequencies --    374.5070               409.4306               427.9333
 Red. masses --      2.3499                 2.0128                 1.7067
 Frc consts  --      0.1942                 0.1988                 0.1841
 IR Inten    --      0.2972                 0.1616                 0.0221

                     10                     11                     12
                      A                      A                      A
 Frequencies --    477.1307               499.2881               626.1186
 Red. masses --      2.5888                 2.8965                 2.3051
 Frc consts  --      0.3472                 0.4254                 0.5324
 IR Inten    --      0.1502                 0.3938                 0.3796

                     13                     14                     15
                      A                      A                      A
 Frequencies --    642.1522               715.4883               797.6085
 Red. masses --      3.1009                 2.5646                 1.4869
 Frc consts  --      0.7534                 0.7735                 0.5573
 IR Inten    --      0.6114                 1.3382                 0.8578

                     16                     17                     18
                      A                      A                      A
 Frequencies --    819.6273               837.7321               851.8599
 Red. masses --      1.7481                 1.7332                 2.3825
 Frc consts  --      0.6919                 0.7167                 1.0187
 IR Inten    --      0.9847                 0.3493                 1.1579

                     19                     20                     21
                      A                      A                      A
 Frequencies --    868.6939               878.4583               883.4598
 Red. masses --      2.2049                 2.3084                 2.8908
 Frc consts  --      0.9803                 1.0495                 1.3294
 IR Inten    --      0.0825                 0.0175                 0.6779

                     22                     23                     24
                      A                      A                      A
 Frequencies --    902.3056               926.5022               945.3305
 Red. masses --      2.6386                 2.5448                 1.8564
 Frc consts  --      1.2657                 1.2871                 0.9774
 IR Inten    --      0.3947                 0.0468                 1.0085

                     25                     26                     27
                      A                      A                      A
 Frequencies --    952.6850               968.4150               998.4195
 Red. masses --      1.5811                 1.9202                 2.0878
 Frc consts  --      0.8455                 1.0610                 1.2262
 IR Inten    --      0.4298                 0.6037                 0.6669

                     28                     29                     30
                      A                      A                      A
 Frequencies --   1008.1294              1029.9273              1052.5876
 Red. masses --      1.8088                 2.1749                 1.6987
 Frc consts  --      1.0831                 1.3593                 1.1089
 IR Inten    --      0.5918                 1.1547                 0.1540

                     31                     32                     33
                      A                      A                      A
 Frequencies --   1064.0609              1073.7268              1100.9438
 Red. masses --      1.4510                 2.2742                 1.2380
 Frc consts  --      0.9680                 1.5448                 0.8841
 IR Inten    --      0.4359                 0.3349                 0.0216

                     34                     35                     36
                      A                      A                      A
 Frequencies --   1117.7581              1126.9829              1146.4938
 Red. masses --      1.4525                 1.8985                 1.2189
 Frc consts  --      1.0692                 1.4207                 0.9440
 IR Inten    --      0.3092                 0.3365                 0.0329

                     37                     38                     39
                      A                      A                      A
 Frequencies --   1151.9937              1164.4535              1224.1073
 Red. masses --      1.9077                 1.3284                 1.3506
 Frc consts  --      1.4916                 1.0613                 1.1923
 IR Inten    --      2.9708                 0.2569                 0.4891

                     40                     41                     42
                      A                      A                      A
 Frequencies --   1239.8933              1251.5934              1264.9975
 Red. masses --      1.4852                 1.3275                 1.4035
 Frc consts  --      1.3452                 1.2253                 1.3233
 IR Inten    --      0.7954                 0.2149                 0.3784

                     43                     44                     45
                      A                      A                      A
 Frequencies --   1275.6342              1281.1919              1284.9481
 Red. masses --      1.4760                 1.6710                 1.4983
 Frc consts  --      1.4151                 1.6160                 1.4575
 IR Inten    --      1.2739                 1.4340                 1.2638

                     46                     47                     48
                      A                      A                      A
 Frequencies --   1291.8851              1327.2922              1338.3527
 Red. masses --      1.3711                 1.3316                 1.3800
 Frc consts  --      1.3482                 1.3821                 1.4563
 IR Inten    --      0.0523                 0.3440                 0.0080

                     49                     50                     51
                      A                      A                      A
 Frequencies --   1349.4356              1353.5525              1362.6857
 Red. masses --      1.4830                 1.6243                 1.4685
 Frc consts  --      1.5911                 1.7534                 1.6066
 IR Inten    --      1.7668                 1.5420                 0.2473

                     52                     53                     54
                      A                      A                      A
 Frequencies --   1364.9799              1377.1466              1381.0900
 Red. masses --      1.5608                 1.4266                 1.5648
 Frc consts  --      1.7134                 1.5941                 1.7586
 IR Inten    --      1.8915                 3.2861                 0.8875

                     55                     56                     57
                      A                      A                      A
 Frequencies --   1412.4534              1511.4413              1514.0470
 Red. masses --      1.4018                 1.0925                 1.0795
 Frc consts  --      1.6477                 1.4704                 1.4580
 IR Inten    --      1.9090                 1.2843                 0.4797

                     58                     59                     60
                      A                      A                      A
 Frequencies --   1519.2552              1522.7953              1525.1197
 Red. masses --      1.0845                 1.0855                 1.0880
 Frc consts  --      1.4749                 1.4831                 1.4911
 IR Inten    --      3.3181                 0.9460                 3.4151

                     61                     62                     63
                      A                      A                      A
 Frequencies --   1532.3103              1546.0022              1550.2919
 Red. masses --      1.0924                 1.1145                 1.1032
 Frc consts  --      1.5112                 1.5694                 1.5621
 IR Inten    --      1.4191                 3.2208                 1.7165

                     64                     65                     66
                      A                      A                      A
 Frequencies --   3023.4779              3027.9745              3032.7863
 Red. masses --      1.0617                 1.0624                 1.0655
 Frc consts  --      5.7181                 5.7390                 5.7744
 IR Inten    --     13.8493                31.9181                36.7180

                     67                     68                     69
                      A                      A                      A
 Frequencies --   3047.4532              3049.7157              3057.6320
 Red. masses --      1.0696                 1.0602                 1.0641
 Frc consts  --      5.8526                 5.8098                 5.8615
 IR Inten    --     30.2562                31.0397                21.7601

                     70                     71                     72
                      A                      A                      A
 Frequencies --   3062.8416              3064.8150              3067.5994
 Red. masses --      1.0985                 1.0919                 1.0696
 Frc consts  --      6.0716                 6.0430                 5.9300
 IR Inten    --     23.7402                29.5069                23.7354

                     73                     74                     75
                      A                      A                      A
 Frequencies --   3070.6764              3076.5712              3083.9829
 Red. masses --      1.0721                 1.0870                 1.0827
 Frc consts  --      5.9562                 6.0619                 6.0671
 IR Inten    --     54.7398               131.7818                12.5578

                     76                     77                     78
                      A                      A                      A
 Frequencies --   3085.0528              3091.7358              3104.1642
 Red. masses --      1.0929                 1.1018                 1.1012
 Frc consts  --      6.1284                 6.2054                 6.2516
 IR Inten    --     62.1292                 5.6589                 4.5681

                     79                     80                     81
                      A                      A                      A
 Frequencies --   3107.5887              3115.8363              3126.4602
 Red. masses --      1.1042                 1.1056                 1.1045
 Frc consts  --      6.2828                 6.3240                 6.3612
 IR Inten    --     58.7631               118.8462                30.5633

 - Thermochemistry -
 -------------------
 Temperature   298.150 Kelvin.  Pressure   1.00000 Atm.
 Atom     1 has atomic number  6 and mass  12.00000

 Molecular mass:   150.14085 amu.
 Principal axes and moments of inertia in atomic units:
                           1         2         3
     Eigenvalues --   770.535802235.507542264.59632
           X            1.00000   0.00130  -0.00117
           Y           -0.00121   0.99727   0.07377
           Z            0.00126  -0.07377   0.99727
 This molecule is an asymmetric top.
 Rotational symmetry number  1.
 Warning -- assumption of classical behavior for rotation
           may cause significant error
 Rotational temperatures (Kelvin)      0.11241     0.03874     0.03825
 Rotational constants (GHZ):           2.34219     0.80731     0.79694
 Zero-point vibrational energy     711338.1 (Joules/Mol)
                                  170.01388 (Kcal/Mol)
 Warning -- explicit consideration of  11 degrees of freedom as
           vibrations may cause significant error
 Vibrational temperatures:    123.45   147.01   231.60   285.41   450.39
          (Kelvin)            470.50   538.83   589.08   615.70   686.48
                              718.36   900.85   923.91  1029.43  1147.58
                             1179.26  1205.31  1225.64  1249.86  1263.91
                             1271.10  1298.22  1333.03  1360.12  1370.70
                             1393.33  1436.50  1450.47  1481.84  1514.44
                             1530.95  1544.85  1584.01  1608.20  1621.48
                             1649.55  1657.46  1675.39  1761.22  1783.93
                             1800.76  1820.05  1835.35  1843.35  1848.75
                             1858.73  1909.68  1925.59  1941.54  1947.46
                             1960.60  1963.90  1981.41  1987.08  2032.21
                             2174.63  2178.38  2185.87  2190.96  2194.31
                             2204.65  2224.35  2230.52  4350.11  4356.58
                             4363.50  4384.61  4387.86  4399.25  4406.75
                             4409.59  4413.59  4418.02  4426.50  4437.16
                             4438.70  4448.32  4466.20  4471.13  4482.99
                             4498.28

 Zero-point correction=                           0.270934 (Hartree/Particle)
 Thermal correction to Energy=                    0.280250
 Thermal correction to Enthalpy=                  0.281194
 Thermal correction to Gibbs Free Energy=         0.236719
 Sum of electronic and zero-point Energies=           -429.765675
 Sum of electronic and thermal Energies=              -429.756359
 Sum of electronic and thermal Enthalpies=            -429.755415
 Sum of electronic and thermal Free Energies=         -429.799890

                     E (Thermal)             CV                S
                      KCal/Mol        Cal/Mol-Kelvin    Cal/Mol-Kelvin
 Total                  175.859             39.314             93.607
 Electronic               0.000              0.000              0.000
 Translational            0.889              2.981             40.929
 Rotational               0.889              2.981             29.746
 Vibrational            174.082             33.353             22.931
 Vibration     1          0.601              1.959              3.754
 Vibration     2          0.604              1.947              3.412
 Vibration     3          0.622              1.890              2.538
 Vibration     4          0.637              1.842              2.148
 Vibration     5          0.701              1.649              1.346
 Vibration     6          0.711              1.622              1.275
 Vibration     7          0.746              1.524              1.061
 Vibration     8          0.774              1.450              0.929
 Vibration     9          0.789              1.409              0.865
 Vibration    10          0.834              1.301              0.718
 Vibration    11          0.855              1.252              0.660

 Optimization completed.
    -- Stationary point found.
 Normal termination of Gaussian 16 at Tue Dec  8 21:54:49 2020.

 ----------------------------------------------------------------------
 # B3LYP/6-311++G(d,p) empiricaldispersion=gd3bj scf=xqc pop=npa geom=c
 heck
 ----------------------------------------------------------------------

 ---------------------------------------
 CID_148964480_JID_1956_Energie_neutraal
 ---------------------------------------
 Structure from the checkpoint file:  "JID_1956.chk"
 Charge =  0 Multiplicity = 1

 SCF Done:  E(RB3LYP) =  -430.146960786     A.U. after   12 cycles
 Normal termination of Gaussian 16 at Tue Dec  8 21:57:53 2020.

 ----------------------------------------------------------------------
 # B3LYP/6-311++G(d,p) empiricaldispersion=gd3bj scf=xqc pop=npa geom=c
 heck
 ----------------------------------------------------------------------

 -------------------------------------
 CID_148964480_JID_1956_Energie_kation
 -------------------------------------
 Structure from the checkpoint file:  "JID_1956.chk"
 Charge =  1 Multiplicity = 2

 SCF Done:  E(UB3LYP) =  -429.799963302     A.U. after   28 cycles
 Normal termination of Gaussian 16 at Tue Dec  8 22:07:15 2020.
 Gaussian 16:  ES64L-G16RevA.03 25-Dec-2016

 ----------------------------------------------------------------------
 # B3LYP/6-311++G(d,p) empiricaldispersion=gd3bj scf=xqc pop=npa geom=c
 heck
 ----------------------------------------------------------------------

 ------------------------------------
 CID_148964480_JID_1956_Energie_anion
 ------------------------------------
 Structure from the checkpoint file:  "JID_1956.chk"
 Charge = -1 Multiplicity = 2

                         Standard orientation:
 ---------------------------------------------------------------------
 Center     Atomic      Atomic             Coordinates (Angstroms)
 Number     Number       Type             X           Y           Z
 ---------------------------------------------------------------------
      1          6           0        2.748251   -0.424170   -0.603961
      2          6           0        2.612631    0.936770    0.138036
      3          6           0        1.269998    0.861565    0.905497
      4          6           0        0.443247   -0.247278    0.199559
      5          6           0        1.561418   -1.266939   -0.106097
      6          6           0       -0.161670    0.317481   -1.128571
      7          6           0       -1.664414    0.606143   -1.031527
      8          6           0       -2.055376    1.127885    0.380473
      9          6           0       -2.068100   -0.364745    0.810279
     10          6           0       -2.415743   -0.699834   -0.663518
     11          6           0       -0.651917   -0.862498    1.119862
     12          1           0        2.674902   -0.273210   -1.686772
     13          1           0        3.710215   -0.911965   -0.417244
     14          1           0        2.615068    1.767143   -0.575954
     15          1           0        3.446790    1.115240    0.824181
     16          1           0        0.754848    1.826395    0.939038
     17          1           0        1.451395    0.559153    1.944512
     18          1           0        1.831817   -1.784365    0.824847
     19          1           0        1.241927   -2.033815   -0.821424
     20          1           0       -0.002318   -0.395666   -1.949010
     21          1           0        0.372602    1.232685   -1.412241
     22          1           0       -2.015041    1.169681   -1.902727
     23          1           0       -1.381960    1.817828    0.897364
     24          1           0       -3.065595    1.550078    0.379151
     25          1           0       -2.776142   -0.672806    1.586971
     26          1           0       -3.490375   -0.625507   -0.860154
     27          1           0       -2.033842   -1.641716   -1.076724
     28          1           0       -0.646505   -1.956728    1.019889
     29          1           0       -0.397735   -0.648705    2.166104
 ---------------------------------------------------------------------

 SCF Done:  E(UB3LYP) =  -430.129573808     A.U. after   28 cycles

 The electronic state is 2-A.
 Alpha  occ. eigenvalues --  -10.07118 -10.06383 -10.06353 -10.05695 -10.05657
 Alpha  occ. eigenvalues --  -10.05508 -10.05411 -10.05408 -10.05370 -10.05333
 Alpha  occ. eigenvalues --  -10.05224  -0.76720  -0.72631  -0.63542  -0.62181
 Alpha  occ. eigenvalues --   -0.60239  -0.55037  -0.54222  -0.48581  -0.46013
 Alpha  occ. eigenvalues --   -0.44345  -0.40902  -0.39091  -0.36437  -0.34886
 Alpha  occ. eigenvalues --   -0.34002  -0.33146  -0.31761  -0.29628  -0.28567
 Alpha  occ. eigenvalues --   -0.26310  -0.26153  -0.24633  -0.23351  -0.23087
 Alpha  occ. eigenvalues --   -0.22530  -0.21572  -0.20941  -0.20334  -0.18554
 Alpha  occ. eigenvalues --   -0.18215  -0.17205   0.04706
 Alpha virt. eigenvalues --    0.06822   0.07520   0.08149   0.08907   0.09289
 Alpha virt. eigenvalues --    0.09645   0.10099   0.10594   0.11562   0.11715
 Alpha virt. eigenvalues --    0.12510   0.13041   0.13339   0.13808   0.15061

  Beta  occ. eigenvalues --  -10.07121 -10.06374 -10.06342 -10.05676 -10.05639
  Beta  occ. eigenvalues --  -10.05498 -10.05395 -10.05393 -10.05350 -10.05314
  Beta  occ. eigenvalues --  -10.05205  -0.76693  -0.72606  -0.63514  -0.62148
  Beta  occ. eigenvalues --   -0.60199  -0.54992  -0.54179  -0.48545  -0.45957
  Beta  occ. eigenvalues --   -0.44303  -0.40830  -0.39040  -0.36413  -0.34849
  Beta  occ. eigenvalues --   -0.33962  -0.33111  -0.31742  -0.29603  -0.28545
  Beta  occ. eigenvalues --   -0.26275  -0.26124  -0.24603  -0.23314  -0.23051
  Beta  occ. eigenvalues --   -0.22503  -0.21546  -0.20917  -0.20307  -0.18525
  Beta  occ. eigenvalues --   -0.18185  -0.17173
  Beta virt. eigenvalues --    0.06900   0.07866   0.08282   0.08691   0.09637
  Beta virt. eigenvalues --    0.09880   0.10074   0.10600   0.10942   0.12212
  Beta virt. eigenvalues --    0.12242   0.12948   0.13393   0.13645   0.14149

 Mulliken charges and spin densities:
               1          2
     1  C    0.046760  -0.402079
     2  C    0.277263  -0.711181
     3  C   -0.212897  -0.399750
     4  C   -0.729692   1.900890
     5  C    0.808479  -1.367366
     6  C    0.984719  -1.878693
     7  C   -0.817238   1.365313
     8  C    1.232193  -1.988419
     9  C   -0.744133   1.138055
    10  C    1.439924  -2.244883
    11  C   -0.293501  -0.231137
    12  H   -0.023995   0.157980
    13  H   -0.305896   0.473532
    14  H   -0.152578   0.299589
    15  H   -0.186909   0.322729
    16  H    0.154401  -0.029200
    17  H   -0.233627   0.383686
    18  H   -0.132519   0.270707
    19  H   -0.063428   0.219438
    20  H   -0.087970   0.258062
    21  H    0.029563   0.138957
    22  H   -0.607849   0.849800
    23  H    0.059278   0.054994
    24  H   -0.564926   0.732702
    25  H   -0.415668   0.654403
    26  H   -0.329948   0.484132
    27  H    0.020210   0.097641
    28  H   -0.137931   0.299714
    29  H   -0.012083   0.150383
 Sum of Mulliken charges =  -1.00000   1.00000

 Dipole moment (field-independent basis, Debye):
    X=              1.9486    Y=             -0.4954    Z=              0.4058  Tot=              2.0511
 Quadrupole moment (field-independent basis, Debye-Ang):
   XX=           -141.0338   YY=           -105.6492   ZZ=           -109.1028
   XY=              3.9278   XZ=             -2.3369   YZ=              2.7684

 Summary of Natural Population Analysis:

                                       Natural Population
                Natural  -----------------------------------------------
    Atom  No    Charge         Core      Valence    Rydberg      Total
 -----------------------------------------------------------------------
      C    1   -0.19432      0.99964     2.18699    0.00768     3.19432
      C    2   -0.19453      0.99965     2.18726    0.00762     3.19453
      C    3   -0.18594      0.99959     2.17764    0.00871     3.18594
      C    4   -0.04113      0.99956     2.02833    0.01324     3.04113
      C    5   -0.18415      0.99959     2.17497    0.00959     3.18415
      C    6   -0.18705      0.99958     2.17685    0.01062     3.18705
      C    7   -0.10531      0.99960     2.09214    0.01356     3.10531
      C    8   -0.18854      0.99962     2.18011    0.00881     3.18854
      C    9   -0.10612      0.99960     2.09315    0.01336     3.10612
      C   10   -0.18587      0.99962     2.17716    0.00909     3.18587
      C   11   -0.18340      0.99958     2.17336    0.01046     3.18340
      H   12    0.09614      0.00000     0.40256    0.00130     0.40386
      H   13    0.09848      0.00000     0.40041    0.00112     0.40152
      H   14    0.09623      0.00000     0.40260    0.00116     0.40377
      H   15    0.09833      0.00000     0.40052    0.00116     0.40167
      H   16    0.10027      0.00000     0.39849    0.00124     0.39973
      H   17    0.09573      0.00000     0.40293    0.00135     0.40427
      H   18    0.09567      0.00000     0.40304    0.00129     0.40433
      H   19    0.10007      0.00000     0.39890    0.00103     0.39993
      H   20    0.09807      0.00000     0.40042    0.00151     0.40193
      H   21    0.10018      0.00000     0.39816    0.00166     0.39982
      H   22    0.09620      0.00000     0.40226    0.00154     0.40380
      H   23    0.09488      0.00000     0.40395    0.00117     0.40512
      H   24    0.10084      0.00000     0.39737    0.00179     0.39916
      H   25    0.09557      0.00000     0.40305    0.00138     0.40443
      H   26    0.10042      0.00000     0.39786    0.00172     0.39958
      H   27    0.09243      0.00000     0.40638    0.00119     0.40757
      H   28    0.09731      0.00000     0.40127    0.00142     0.40269
      H   29    0.09953      0.00000     0.39910    0.00138     0.40047
 =======================================================================
   * Total *    0.00000     10.99563    30.86724    0.13713    42.00000

 Normal termination of Gaussian 16 at Tue Dec  8 22:16:42 2020.
