 Gaussian 16, Revision A.03,

 -----------------------------------------------------------
 # opt freq B3LYP/6-31G(d) empiricaldispersion=gd3bj scf=xqc
 -----------------------------------------------------------

 -------------------------------
 CID_116227932_JID_9558_neutraal
 -------------------------------
 Symbolic Z-matrix:
 Charge =  0 Multiplicity = 1

 SCF Done:  E(RB3LYP) =  -859.661591665     A.U. after   15 cycles
 SCF Done:  E(RB3LYP) =  -859.668077593     A.U. after   13 cycles
 SCF Done:  E(RB3LYP) =  -859.669899395     A.U. after   12 cycles
 SCF Done:  E(RB3LYP) =  -859.670574238     A.U. after   12 cycles
 SCF Done:  E(RB3LYP) =  -859.670844760     A.U. after   12 cycles
 SCF Done:  E(RB3LYP) =  -859.671009687     A.U. after   11 cycles
 SCF Done:  E(RB3LYP) =  -859.671090826     A.U. after   11 cycles
 SCF Done:  E(RB3LYP) =  -859.671127443     A.U. after   10 cycles
 SCF Done:  E(RB3LYP) =  -859.671159220     A.U. after   10 cycles
 SCF Done:  E(RB3LYP) =  -859.671175856     A.U. after   10 cycles
 SCF Done:  E(RB3LYP) =  -859.671182243     A.U. after    8 cycles
 SCF Done:  E(RB3LYP) =  -859.671182377     A.U. after    7 cycles
 SCF Done:  E(RB3LYP) =  -859.671182435     A.U. after    7 cycles
 SCF Done:  E(RB3LYP) =  -859.671182450     A.U. after    6 cycles
 Optimization completed.
    -- Stationary point found.
 Normal termination of Gaussian 16 at Mon Dec 14 13:29:57 2020.

 --------------------------------------------------------------------
 #N Geom=AllCheck Guess=TCheck SCRF=Check GenChk RB3LYP/6-31G(d) Freq
 --------------------------------------------------------------------

 Structure from the checkpoint file:  "JID_9558.chk"
 -------------------------------
 CID_116227932_JID_9558_neutraal
 -------------------------------
 Charge =  0 Multiplicity = 1

 SCF Done:  E(RB3LYP) =  -859.671182450     A.U. after    1 cycles

  Exact polarizability: 248.957  -8.419 179.427  -2.606  -1.189 103.578
 Approx polarizability: 341.076 -12.107 298.399  -4.612   5.678 155.508

                      1                      2                      3
                      A                      A                      A
 Frequencies --     31.7083                50.7805                64.8295
 Red. masses --      3.7317                 3.8208                 3.1853
 Frc consts  --      0.0022                 0.0058                 0.0079
 IR Inten    --      0.7186                 0.5943                 2.6330

                      4                      5                      6
                      A                      A                      A
 Frequencies --     73.3885                93.6342               102.1264
 Red. masses --      2.7649                 3.7272                 3.9351
 Frc consts  --      0.0088                 0.0193                 0.0242
 IR Inten    --      1.2022                 1.9208                 2.0778

                      7                      8                      9
                      A                      A                      A
 Frequencies --    128.9338               146.2442               165.4645
 Red. masses --      3.7287                 3.5283                 1.0798
 Frc consts  --      0.0365                 0.0445                 0.0174
 IR Inten    --      2.8042                 1.9828                 0.1146

                     10                     11                     12
                      A                      A                      A
 Frequencies --    183.7877               199.9710               223.7003
 Red. masses --      3.3087                 3.4364                 1.2065
 Frc consts  --      0.0658                 0.0810                 0.0356
 IR Inten    --      1.2163                 2.1539                 1.8061

                     13                     14                     15
                      A                      A                      A
 Frequencies --    226.6332               235.9415               254.9662
 Red. masses --      1.7975                 1.4094                 1.7955
 Frc consts  --      0.0544                 0.0462                 0.0688
 IR Inten    --      0.5373                 0.9441                12.1614

                     16                     17                     18
                      A                      A                      A
 Frequencies --    259.7320               269.0636               287.6072
 Red. masses --      1.2024                 2.6536                 1.7936
 Frc consts  --      0.0478                 0.1132                 0.0874
 IR Inten    --     30.0050                 9.0977                 0.6977

                     19                     20                     21
                      A                      A                      A
 Frequencies --    305.5936               330.2191               358.0933
 Red. masses --      5.0883                 3.6158                 4.9874
 Frc consts  --      0.2800                 0.2323                 0.3768
 IR Inten    --      1.4583                 2.4678                 1.5738

                     22                     23                     24
                      A                      A                      A
 Frequencies --    370.7921               398.2046               415.9295
 Red. masses --      4.0347                 4.1221                 2.9393
 Frc consts  --      0.3268                 0.3851                 0.2996
 IR Inten    --     10.4912                 5.9367                 3.6760

                     25                     26                     27
                      A                      A                      A
 Frequencies --    454.5408               500.0376               516.7268
 Red. masses --      4.6117                 3.0169                 2.0199
 Frc consts  --      0.5614                 0.4444                 0.3178
 IR Inten    --      1.1706                30.5246                49.4737

                     28                     29                     30
                      A                      A                      A
 Frequencies --    527.0509               584.1938               594.7416
 Red. masses --      5.0134                 3.9254                 3.4866
 Frc consts  --      0.8205                 0.7893                 0.7266
 IR Inten    --      1.6875                 0.9987                19.2913

                     31                     32                     33
                      A                      A                      A
 Frequencies --    628.9601               635.1304               670.8061
 Red. masses --      4.5784                 4.2582                 3.4523
 Frc consts  --      1.0671                 1.0121                 0.9153
 IR Inten    --      2.1612                 7.5270                 6.4332

                     34                     35                     36
                      A                      A                      A
 Frequencies --    690.0267               739.7782               743.5663
 Red. masses --      3.1451                 4.3185                 5.3626
 Frc consts  --      0.8823                 1.3925                 1.7469
 IR Inten    --     18.1332                32.8102                19.5086

                     37                     38                     39
                      A                      A                      A
 Frequencies --    758.5508               792.7879               815.9393
 Red. masses --      2.3369                 2.2133                 4.2660
 Frc consts  --      0.7922                 0.8196                 1.6734
 IR Inten    --     22.7490                32.7287                26.4119

                     40                     41                     42
                      A                      A                      A
 Frequencies --    838.8436               877.3923               880.1192
 Red. masses --      1.8842                 4.3586                 1.4707
 Frc consts  --      0.7812                 1.9769                 0.6712
 IR Inten    --    150.6828                48.7603                 8.5280

                     43                     44                     45
                      A                      A                      A
 Frequencies --    900.4376               944.8852               958.7550
 Red. masses --      2.4427                 1.2240                 1.2756
 Frc consts  --      1.1669                 0.6438                 0.6909
 IR Inten    --      0.5067                 0.7330                 0.6164

                     46                     47                     48
                      A                      A                      A
 Frequencies --    976.8909              1013.1974              1039.9913
 Red. masses --      1.4177                 4.0019                 7.9072
 Frc consts  --      0.7971                 2.4205                 5.0389
 IR Inten    --      0.2751                33.7709                61.7778

                     49                     50                     51
                      A                      A                      A
 Frequencies --   1072.9243              1116.4371              1121.6129
 Red. masses --      2.6103                 1.7505                 1.9691
 Frc consts  --      1.7704                 1.2856                 1.4595
 IR Inten    --     42.5816                60.7016                19.5090

                     52                     53                     54
                      A                      A                      A
 Frequencies --   1136.5146              1143.9437              1183.6680
 Red. masses --      3.1892                 2.5597                 1.3412
 Frc consts  --      2.4270                 1.9735                 1.1071
 IR Inten    --     53.5583                13.2555                 2.6780

                     55                     56                     57
                      A                      A                      A
 Frequencies --   1186.7968              1188.0237              1204.5433
 Red. masses --      1.2925                 1.7801                 1.6251
 Frc consts  --      1.0726                 1.4803                 1.3892
 IR Inten    --      3.2496                26.5449                 1.9389

                     58                     59                     60
                      A                      A                      A
 Frequencies --   1211.0920              1223.0860              1223.6167
 Red. masses --      1.7789                 1.4911                 2.3496
 Frc consts  --      1.5373                 1.3142                 2.0727
 IR Inten    --     28.0046                 0.6830                 7.8923

                     61                     62                     63
                      A                      A                      A
 Frequencies --   1238.0053              1262.5350              1279.9444
 Red. masses --      1.6522                 2.8421                 2.9963
 Frc consts  --      1.4919                 2.6692                 2.8921
 IR Inten    --     52.1954                67.9702                 0.8017

                     64                     65                     66
                      A                      A                      A
 Frequencies --   1312.6306              1341.8394              1357.1178
 Red. masses --      2.5804                 2.5923                 4.2388
 Frc consts  --      2.6195                 2.7501                 4.5997
 IR Inten    --    189.4601                10.2330                47.9758

                     67                     68                     69
                      A                      A                      A
 Frequencies --   1372.4601              1381.0741              1427.2581
 Red. masses --      1.4026                 1.8155                 1.2286
 Frc consts  --      1.5567                 2.0402                 1.4746
 IR Inten    --      2.9434                16.6564                 5.0515

                     70                     71                     72
                      A                      A                      A
 Frequencies --   1447.5743              1452.7703              1481.6713
 Red. masses --      1.2283                 2.5762                 1.6000
 Frc consts  --      1.5164                 3.2035                 2.0696
 IR Inten    --      3.6993                 2.3765                64.8152

                     73                     74                     75
                      A                      A                      A
 Frequencies --   1494.1997              1509.5198              1515.3758
 Red. masses --      1.4768                 1.8206                 1.3226
 Frc consts  --      1.9426                 2.4442                 1.7894
 IR Inten    --     22.6570                16.3533                47.9358

                     76                     77                     78
                      A                      A                      A
 Frequencies --   1516.9592              1518.9984              1521.3341
 Red. masses --      1.0546                 1.2013                 1.0497
 Frc consts  --      1.4299                 1.6331                 1.4314
 IR Inten    --      3.8695                10.9277                 5.7284

                     79                     80                     81
                      A                      A                      A
 Frequencies --   1521.7882              1525.7495              1531.4880
 Red. masses --      1.2573                 1.2087                 1.0799
 Frc consts  --      1.7155                 1.6579                 1.4923
 IR Inten    --     16.2744                20.9639                 2.4513

                     82                     83                     84
                      A                      A                      A
 Frequencies --   1535.6232              1539.5389              1545.1881
 Red. masses --      1.1924                 1.4428                 1.5971
 Frc consts  --      1.6567                 2.0148                 2.2467
 IR Inten    --     42.4233                20.2507                 7.3728

                     85                     86                     87
                      A                      A                      A
 Frequencies --   1551.2924              1616.9874              1637.2336
 Red. masses --      3.4456                 4.6918                 5.3843
 Frc consts  --      4.8855                 7.2278                 8.5035
 IR Inten    --     99.6828                66.2649                18.9084

                     88                     89                     90
                      A                      A                      A
 Frequencies --   1657.4787              1681.6911              3027.7193
 Red. masses --      6.7051                 1.2159                 1.0347
 Frc consts  --     10.8530                 2.0259                 5.5887
 IR Inten    --     41.6078                85.9995                63.1953

                     91                     92                     93
                      A                      A                      A
 Frequencies --   3038.3800              3045.6185              3050.8267
 Red. masses --      1.0358                 1.0322                 1.0378
 Frc consts  --      5.6342                 5.6410                 5.6910
 IR Inten    --     30.9284                40.9019                41.4918

                     94                     95                     96
                      A                      A                      A
 Frequencies --   3061.7676              3087.4686              3100.7741
 Red. masses --      1.0830                 1.1066                 1.1002
 Frc consts  --      5.9819                 6.2152                 6.2324
 IR Inten    --      8.4062                40.3855                41.4245

                     97                     98                     99
                      A                      A                      A
 Frequencies --   3112.9091              3116.7141              3118.8865
 Red. masses --      1.1025                 1.1014                 1.1053
 Frc consts  --      6.2948                 6.3036                 6.3348
 IR Inten    --     30.3485                52.9422                28.5236

                    100                    101                    102
                      A                      A                      A
 Frequencies --   3138.5556              3158.3411              3161.8640
 Red. masses --      1.1010                 1.1045                 1.0999
 Frc consts  --      6.3898                 6.4915                 6.4790
 IR Inten    --     19.8916                23.5429                25.5746

                    103                    104                    105
                      A                      A                      A
 Frequencies --   3196.9089              3231.0351              3235.9674
 Red. masses --      1.0882                 1.0903                 1.0933
 Frc consts  --      6.5530                 6.7063                 6.7455
 IR Inten    --     11.0100                11.7856                 6.9654

                    106                    107                    108
                      A                      A                      A
 Frequencies --   3509.3107              3604.0024              3675.5850
 Red. masses --      1.0483                 1.0953                 1.0815
 Frc consts  --      7.6063                 8.3819                 8.6085
 IR Inten    --      3.1020                 7.7054               109.4992

 - Thermochemistry -
 -------------------
 Temperature   298.150 Kelvin.  Pressure   1.00000 Atm.
 Atom     1 has atomic number  6 and mass  12.00000

 Molecular mass:   261.14773 amu.
 Principal axes and moments of inertia in atomic units:
                           1         2         3
     Eigenvalues --  2507.536907780.014909286.55594
           X            0.99990   0.01413   0.00121
           Y           -0.01411   0.99979  -0.01496
           Z           -0.00142   0.01494   0.99989
 This molecule is an asymmetric top.
 Rotational symmetry number  1.
 Warning -- assumption of classical behavior for rotation
           may cause significant error
 Rotational temperatures (Kelvin)      0.03454     0.01113     0.00933
 Rotational constants (GHZ):           0.71973     0.23197     0.19434
 Zero-point vibrational energy     841698.0 (Joules/Mol)
                                  201.17065 (Kcal/Mol)
 Warning -- explicit consideration of  30 degrees of freedom as
           vibrations may cause significant error
 Vibrational temperatures:     45.62    73.06    93.28   105.59   134.72
          (Kelvin)            146.94   185.51   210.41   238.07   264.43
                              287.71   321.85   326.07   339.47   366.84
                              373.70   387.12   413.80   439.68   475.11
                              515.22   533.49   572.93   598.43   653.98
                              719.44   743.45   758.31   840.52   855.70
                              904.93   913.81   965.14   992.79  1064.38
                             1069.83  1091.39  1140.65  1173.95  1206.91
                             1262.37  1266.30  1295.53  1359.48  1379.43
                             1405.53  1457.77  1496.32  1543.70  1606.30
                             1613.75  1635.19  1645.88  1703.03  1707.54
                             1709.30  1733.07  1742.49  1759.75  1760.51
                             1781.21  1816.51  1841.55  1888.58  1930.61
                             1952.59  1974.66  1987.06  2053.51  2082.74
                             2090.21  2131.79  2149.82  2171.86  2180.29
                             2182.57  2185.50  2188.86  2189.51  2195.21
                             2203.47  2209.42  2215.05  2223.18  2231.96
                             2326.48  2355.61  2384.74  2419.58  4356.21
                             4371.55  4381.97  4389.46  4405.20  4442.18
                             4461.32  4478.78  4484.26  4487.38  4515.68
                             4544.15  4549.22  4599.64  4648.74  4655.84
                             5049.12  5185.36  5288.35

 Zero-point correction=                           0.320586 (Hartree/Particle)
 Thermal correction to Energy=                    0.339827
 Thermal correction to Enthalpy=                  0.340771
 Thermal correction to Gibbs Free Energy=         0.273405
 Sum of electronic and zero-point Energies=           -859.350597
 Sum of electronic and thermal Energies=              -859.331356
 Sum of electronic and thermal Enthalpies=            -859.330412
 Sum of electronic and thermal Free Energies=         -859.397778

                     E (Thermal)             CV                S
                      KCal/Mol        Cal/Mol-Kelvin    Cal/Mol-Kelvin
 Total                  213.244             72.485            141.784
 Electronic               0.000              0.000              0.000
 Translational            0.889              2.981             42.579
 Rotational               0.889              2.981             33.560
 Vibrational            211.467             66.523             65.645
 Vibration     1          0.594              1.983              5.720
 Vibration     2          0.595              1.977              4.787
 Vibration     3          0.597              1.971              4.305
 Vibration     4          0.599              1.967              4.060
 Vibration     5          0.603              1.954              3.583
 Vibration     6          0.604              1.947              3.413
 Vibration     7          0.611              1.924              2.962
 Vibration     8          0.617              1.907              2.721
 Vibration     9          0.624              1.885              2.486
 Vibration    10          0.631              1.862              2.290
 Vibration    11          0.638              1.840              2.133
 Vibration    12          0.649              1.805              1.929
 Vibration    13          0.650              1.800              1.905
 Vibration    14          0.655              1.786              1.833
 Vibration    15          0.665              1.754              1.696
 Vibration    16          0.668              1.746              1.664
 Vibration    17          0.673              1.730              1.602
 Vibration    18          0.685              1.697              1.488
 Vibration    19          0.696              1.663              1.386
 Vibration    20          0.713              1.615              1.259
 Vibration    21          0.733              1.559              1.130
 Vibration    22          0.743              1.532              1.077
 Vibration    23          0.764              1.474              0.969
 Vibration    24          0.779              1.436              0.906
 Vibration    25          0.813              1.351              0.782
 Vibration    26          0.855              1.250              0.658
 Vibration    27          0.872              1.213              0.618
 Vibration    28          0.882              1.190              0.594
 Vibration    29          0.941              1.066              0.478
 Vibration    30          0.952              1.043              0.459

 Optimization completed.
    -- Stationary point found.
 Normal termination of Gaussian 16 at Mon Dec 14 13:51:04 2020.

 ----------------------------------------------------------------------
 # B3LYP/6-311++G(d,p) empiricaldispersion=gd3bj scf=xqc pop=npa geom=c
 heck
 ----------------------------------------------------------------------

 ---------------------------------------
 CID_116227932_JID_9558_Energie_neutraal
 ---------------------------------------
 Structure from the checkpoint file:  "JID_9558.chk"
 Charge =  0 Multiplicity = 1

 SCF Done:  E(RB3LYP) =  -859.911919246     A.U. after   16 cycles
 Normal termination of Gaussian 16 at Mon Dec 14 14:00:58 2020.

 ----------------------------------------------------------------------
 # B3LYP/6-311++G(d,p) empiricaldispersion=gd3bj scf=xqc pop=npa geom=c
 heck
 ----------------------------------------------------------------------

 -------------------------------------
 CID_116227932_JID_9558_Energie_kation
 -------------------------------------
 Structure from the checkpoint file:  "JID_9558.chk"
 Charge =  1 Multiplicity = 2

 SCF Done:  E(UB3LYP) =  -859.639623086     A.U. after   33 cycles
 SCF Done:  E(UB3LYP) =  -859.639623086     a.u. after    1 cycles
 Normal termination of Gaussian 16 at Mon Dec 14 14:29:21 2020.
 Gaussian 16:  ES64L-G16RevA.03 25-Dec-2016

 ----------------------------------------------------------------------
 # B3LYP/6-311++G(d,p) empiricaldispersion=gd3bj scf=xqc pop=npa geom=c
 heck
 ----------------------------------------------------------------------

 ------------------------------------
 CID_116227932_JID_9558_Energie_anion
 ------------------------------------
 Structure from the checkpoint file:  "JID_9558.chk"
 Charge = -1 Multiplicity = 2

                         Standard orientation:
 ---------------------------------------------------------------------
 Center     Atomic      Atomic             Coordinates (Angstroms)
 Number     Number       Type             X           Y           Z
 ---------------------------------------------------------------------
      1          6           0        3.290926    1.063762    1.920295
      2          6           0        2.532218    1.331866    0.607640
      3          6           0        3.350632    2.233563   -0.334750
      4          6           0        2.110983    0.047412   -0.061496
      5          6           0        0.824957   -0.363633   -0.429245
      6          7           0        0.953983   -1.636952   -0.897653
      7          7           0        2.227641   -2.089884   -0.882854
      8          6           0        2.930463   -1.073462   -0.379343
      9          7           0        4.310626   -1.213654   -0.158888
     10          6           0       -0.467729    0.330076   -0.390597
     11          6           0       -1.661903   -0.372553   -0.165213
     12          6           0       -2.895958    0.301468   -0.087814
     13          6           0       -2.942313    1.686163   -0.263712
     14          6           0       -1.759568    2.383464   -0.523373
     15          6           0       -0.541611    1.722187   -0.594370
     16          8           0       -3.978377   -0.488505    0.165208
     17          6           0       -5.247897    0.138494    0.242735
     18          8           0       -1.650391   -1.748039   -0.052037
     19          6           0       -1.655380   -2.219383    1.300663
     20          1           0        4.194132    0.471946    1.745133
     21          1           0        2.661135    0.502763    2.618614
     22          1           0        3.578318    2.008142    2.397769
     23          1           0        1.620792    1.879254    0.872638
     24          1           0        4.294245    1.755368   -0.626513
     25          1           0        2.797726    2.452407   -1.255041
     26          1           0        3.602649    3.183206    0.151943
     27          1           0        0.191724   -2.251140   -1.138029
     28          1           0        4.641208   -2.078235   -0.578371
     29          1           0        4.844861   -0.433794   -0.528748
     30          1           0       -3.883837    2.219585   -0.214764
     31          1           0       -1.800621    3.456616   -0.684796
     32          1           0        0.360171    2.270977   -0.836510
     33          1           0       -5.284927    0.875019    1.056188
     34          1           0       -5.509570    0.631961   -0.702134
     35          1           0       -5.963151   -0.660478    0.444022
     36          1           0       -1.641913   -3.309801    1.245798
     37          1           0       -0.765035   -1.866973    1.835175
     38          1           0       -2.560438   -1.887581    1.819497
 ---------------------------------------------------------------------

 SCF Done:  E(UB3LYP) =  -859.902373890     A.U. after   33 cycles
 SCF Done:  E(UB3LYP) =  -859.902373890     a.u. after    1 cycles

 The electronic state is 2-A.
 Alpha  occ. eigenvalues --  -19.05969 -19.04999 -14.26858 -14.22068 -14.21850
 Alpha  occ. eigenvalues --  -10.13679 -10.12968 -10.12680 -10.12599 -10.12035
 Alpha  occ. eigenvalues --  -10.10888 -10.08866 -10.08651 -10.07577 -10.07137
 Alpha  occ. eigenvalues --  -10.07079 -10.06863 -10.06423 -10.06374  -0.98234
 Alpha  occ. eigenvalues --   -0.95937  -0.93928  -0.81611  -0.76114  -0.72067
 Alpha  occ. eigenvalues --   -0.70419  -0.66635  -0.66338  -0.64062  -0.61284
 Alpha  occ. eigenvalues --   -0.59256  -0.58971  -0.53363  -0.51716  -0.50136
 Alpha  occ. eigenvalues --   -0.49153  -0.46875  -0.44327  -0.42152  -0.41340
 Alpha  occ. eigenvalues --   -0.40393  -0.38395  -0.38150  -0.37095  -0.36689
 Alpha  occ. eigenvalues --   -0.36295  -0.36047  -0.35115  -0.34424  -0.34131
 Alpha  occ. eigenvalues --   -0.32888  -0.31505  -0.31007  -0.29498  -0.29175
 Alpha  occ. eigenvalues --   -0.28298  -0.27550  -0.26367  -0.25571  -0.25240
 Alpha  occ. eigenvalues --   -0.24195  -0.23702  -0.23678  -0.22024  -0.19467
 Alpha  occ. eigenvalues --   -0.19029  -0.17416  -0.12986  -0.12348  -0.11527
 Alpha  occ. eigenvalues --    0.04042
 Alpha virt. eigenvalues --    0.05477   0.06047   0.06972   0.07501   0.07963
 Alpha virt. eigenvalues --    0.08343   0.09173   0.09287   0.09666   0.10037
 Alpha virt. eigenvalues --    0.10274   0.10685   0.11144   0.11722   0.12060

  Beta  occ. eigenvalues --  -19.05959 -19.04995 -14.26809 -14.22046 -14.21813
  Beta  occ. eigenvalues --  -10.13683 -10.12964 -10.12622 -10.12547 -10.12047
  Beta  occ. eigenvalues --  -10.10872 -10.08782 -10.08650 -10.07569 -10.07117
  Beta  occ. eigenvalues --  -10.06978 -10.06827 -10.06390 -10.06367  -0.98204
  Beta  occ. eigenvalues --   -0.95910  -0.93862  -0.81571  -0.75994  -0.72009
  Beta  occ. eigenvalues --   -0.70336  -0.66550  -0.66244  -0.63983  -0.61205
  Beta  occ. eigenvalues --   -0.59214  -0.58896  -0.53238  -0.51626  -0.50085
  Beta  occ. eigenvalues --   -0.49115  -0.46820  -0.44274  -0.42095  -0.41289
  Beta  occ. eigenvalues --   -0.40342  -0.38317  -0.38082  -0.37051  -0.36659
  Beta  occ. eigenvalues --   -0.36258  -0.35982  -0.35078  -0.34390  -0.34016
  Beta  occ. eigenvalues --   -0.32826  -0.31450  -0.30939  -0.29462  -0.29096
  Beta  occ. eigenvalues --   -0.28165  -0.27494  -0.26300  -0.25529  -0.25207
  Beta  occ. eigenvalues --   -0.24155  -0.23624  -0.23571  -0.21934  -0.19414
  Beta  occ. eigenvalues --   -0.19004  -0.17038  -0.12734  -0.12096  -0.11320
  Beta virt. eigenvalues --    0.05998   0.06552   0.06900   0.07374   0.07690
  Beta virt. eigenvalues --    0.08343   0.08550   0.09443   0.09511   0.10050
  Beta virt. eigenvalues --    0.10281   0.10443   0.10933   0.11300   0.11731

 Mulliken charges and spin densities:
               1          2
     1  C   -0.502998  -0.164592
     2  C   -1.057105   0.839615
     3  C    0.248390  -0.961024
     4  C    1.074153  -0.591100
     5  C    0.448715  -0.211515
     6  N   -0.175467   0.050662
     7  N   -0.030910  -0.025319
     8  C   -0.040714   0.048433
     9  N   -0.404424   0.024712
    10  C    1.922875  -0.027698
    11  C   -1.353560   0.200813
    12  C   -1.244731   0.520205
    13  C    0.423351  -0.234850
    14  C    0.032407  -0.681481
    15  C   -0.211169  -0.235132
    16  O   -0.248182   0.059503
    17  C    0.969654  -1.256543
    18  O   -0.172562   0.003807
    19  C   -0.244652  -0.045657
    20  H    0.104188   0.060751
    21  H    0.095594   0.038848
    22  H    0.036167   0.087135
    23  H    0.170254  -0.005174
    24  H   -0.129354   0.244954
    25  H   -0.150986   0.305837
    26  H   -0.128155   0.274904
    27  H    0.329531   0.001848
    28  H    0.152800   0.111361
    29  H    0.076369   0.156654
    30  H   -0.180476   0.354943
    31  H   -0.529281   0.712255
    32  H    0.354181  -0.222800
    33  H   -0.398025   0.561948
    34  H   -0.204162   0.350290
    35  H   -0.433091   0.606133
    36  H    0.142973  -0.001724
    37  H    0.113911   0.017512
    38  H    0.144494   0.031487
 Sum of Mulliken charges =  -1.00000   1.00000

 Dipole moment (field-independent basis, Debye):
    X=              4.2891    Y=             -3.5804    Z=              0.7919  Tot=              5.6429
 Quadrupole moment (field-independent basis, Debye-Ang):
   XX=           -224.2610   YY=           -156.6500   ZZ=           -139.2642
   XY=              9.1471   XZ=              4.1368   YZ=             -1.2884

 Summary of Natural Population Analysis:

                                       Natural Population
                Natural  -----------------------------------------------
    Atom  No    Charge         Core      Valence    Rydberg      Total
 -----------------------------------------------------------------------
      C    1   -0.28106      0.99965     2.27697    0.00443     3.28106
      C    2   -0.12495      0.99959     2.11603    0.00933     3.12495
      C    3   -0.27828      0.99965     2.27313    0.00551     3.27828
      C    4   -0.06843      0.99942     2.05816    0.01084     3.06843
      C    5    0.08166      0.99949     1.90605    0.01280     2.91834
      N    6   -0.15971      0.99961     2.64838    0.01172     3.65971
      N    7   -0.18280      0.99970     2.67006    0.01305     3.68280
      C    8    0.15993      0.99952     1.82457    0.01598     2.84007
      N    9   -0.41020      0.99972     2.90044    0.01004     3.91020
      C   10   -0.03777      0.99946     2.02906    0.00926     3.03777
      C   11    0.14692      0.99932     1.83985    0.01392     2.85308
      C   12    0.14533      0.99935     1.84215    0.01318     2.85467
      C   13   -0.12581      0.99953     2.11731    0.00897     3.12581
      C   14   -0.09539      0.99957     2.08550    0.01032     3.09539
      C   15   -0.10147      0.99954     2.09322    0.00870     3.10147
      O   16   -0.27278      0.99986     3.26265    0.01027     4.27278
      C   17   -0.10003      0.99960     2.09123    0.00920     3.10003
      O   18   -0.29572      0.99986     3.28643    0.00943     4.29572
      C   19   -0.09693      0.99960     2.08974    0.00759     3.09693
      H   20    0.10319      0.00000     0.39556    0.00125     0.39681
      H   21    0.09935      0.00000     0.39988    0.00077     0.40065
      H   22    0.09358      0.00000     0.40567    0.00074     0.40642
      H   23    0.10394      0.00000     0.39404    0.00202     0.39606
      H   24    0.09156      0.00000     0.40727    0.00117     0.40844
      H   25    0.10110      0.00000     0.39786    0.00104     0.39890
      H   26    0.09682      0.00000     0.40227    0.00091     0.40318
      H   27    0.20578      0.00000     0.29243    0.00178     0.29422
      H   28    0.18412      0.00000     0.31381    0.00207     0.31588
      H   29    0.18235      0.00000     0.31574    0.00191     0.31765
      H   30    0.10677      0.00000     0.39157    0.00166     0.39323
      H   31    0.10096      0.00000     0.39798    0.00106     0.39904
      H   32    0.10251      0.00000     0.39596    0.00153     0.39749
      H   33    0.08711      0.00000     0.41072    0.00217     0.41289
      H   34    0.08520      0.00000     0.41312    0.00168     0.41480
      H   35    0.09358      0.00000     0.40514    0.00128     0.40642
      H   36    0.08627      0.00000     0.41287    0.00086     0.41373
      H   37    0.08425      0.00000     0.41464    0.00110     0.41575
      H   38    0.08907      0.00000     0.40944    0.00149     0.41093
 =======================================================================
   * Total *    0.00003     18.99204    50.78690    0.22103    69.99997

 Normal termination of Gaussian 16 at Mon Dec 14 14:57:14 2020.
