 Gaussian 16, Revision A.03,

 -----------------------------------------------------------
 # opt freq B3LYP/6-31G(d) empiricaldispersion=gd3bj scf=xqc
 -----------------------------------------------------------

 -------------------------------
 CID_142450537_JID_6974_neutraal
 -------------------------------
 Symbolic Z-matrix:
 Charge =  0 Multiplicity = 1

 SCF Done:  E(RB3LYP) =  -726.917072893     A.U. after   15 cycles
 SCF Done:  E(RB3LYP) =  -726.920820599     A.U. after   13 cycles
 SCF Done:  E(RB3LYP) =  -726.920093206     A.U. after   13 cycles
 SCF Done:  E(RB3LYP) =  -726.921047127     A.U. after   12 cycles
 SCF Done:  E(RB3LYP) =  -726.921939800     A.U. after   13 cycles
 SCF Done:  E(RB3LYP) =  -726.922404921     A.U. after   12 cycles
 SCF Done:  E(RB3LYP) =  -726.922820084     A.U. after   13 cycles
 SCF Done:  E(RB3LYP) =  -726.923193184     A.U. after   14 cycles
 SCF Done:  E(RB3LYP) =  -726.923517441     A.U. after   14 cycles
 SCF Done:  E(RB3LYP) =  -726.923887604     A.U. after   13 cycles
 SCF Done:  E(RB3LYP) =  -726.927577835     A.U. after   11 cycles
 SCF Done:  E(RB3LYP) =  -726.927583673     A.U. after    9 cycles
 SCF Done:  E(RB3LYP) =  -726.927586379     A.U. after    9 cycles
 SCF Done:  E(RB3LYP) =  -726.927586714     A.U. after    9 cycles
 SCF Done:  E(RB3LYP) =  -726.927586813     A.U. after    7 cycles
 Optimization completed.
    -- Stationary point found.
 Normal termination of Gaussian 16 at Fri Dec 11 01:59:15 2020.

 --------------------------------------------------------------------
 #N Geom=AllCheck Guess=TCheck SCRF=Check GenChk RB3LYP/6-31G(d) Freq
 --------------------------------------------------------------------

 Structure from the checkpoint file:  "JID_6974.chk"
 -------------------------------
 CID_142450537_JID_6974_neutraal
 -------------------------------
 Charge =  0 Multiplicity = 1

 SCF Done:  E(RB3LYP) =  -726.927586812     A.U. after    1 cycles

  Exact polarizability: 198.024 -24.811  98.998  16.128  13.120 128.485
 Approx polarizability: 278.143 -41.081 152.817  42.825  32.182 231.782

                      1                      2                      3
                      A                      A                      A
 Frequencies --     32.6474                41.7650                50.3646
 Red. masses --      5.8410                 4.8798                 4.7954
 Frc consts  --      0.0037                 0.0050                 0.0072
 IR Inten    --      3.0589                 3.9965                 3.7321

                      4                      5                      6
                      A                      A                      A
 Frequencies --     65.7604                99.7166               117.0869
 Red. masses --      3.7477                 4.4968                 4.4882
 Frc consts  --      0.0095                 0.0263                 0.0363
 IR Inten    --      1.2085                 3.9562                 5.3924

                      7                      8                      9
                      A                      A                      A
 Frequencies --    132.3396               194.8804               201.2930
 Red. masses --      4.6182                 2.9621                 1.1302
 Frc consts  --      0.0477                 0.0663                 0.0270
 IR Inten    --      3.3660                 1.4138                 0.2332

                     10                     11                     12
                      A                      A                      A
 Frequencies --    209.0849               255.4866               302.6456
 Red. masses --      2.9086                 3.7115                 2.9689
 Frc consts  --      0.0749                 0.1427                 0.1602
 IR Inten    --      2.9682                 3.6862                 0.7175

                     13                     14                     15
                      A                      A                      A
 Frequencies --    322.6632               340.8823               417.4192
 Red. masses --      3.4812                 4.1985                 2.4852
 Frc consts  --      0.2135                 0.2874                 0.2551
 IR Inten    --      3.2854                 5.0543                20.3020

                     16                     17                     18
                      A                      A                      A
 Frequencies --    423.3336               456.1888               467.7776
 Red. masses --      3.1505                 4.0238                 2.7756
 Frc consts  --      0.3327                 0.4934                 0.3578
 IR Inten    --      2.1046                 1.9685                 4.3072

                     19                     20                     21
                      A                      A                      A
 Frequencies --    484.9434               509.1205               528.5271
 Red. masses --      2.3042                 1.8145                 2.8905
 Frc consts  --      0.3193                 0.2771                 0.4757
 IR Inten    --      6.0276                27.8509                 0.0954

                     22                     23                     24
                      A                      A                      A
 Frequencies --    536.4174               570.1211               599.4947
 Red. masses --      1.3394                 3.4735                 2.3807
 Frc consts  --      0.2271                 0.6652                 0.5041
 IR Inten    --    194.7814                42.0538                21.1930

                     25                     26                     27
                      A                      A                      A
 Frequencies --    606.3889               651.3714               685.9238
 Red. masses --      2.1796                 6.5635                 2.4598
 Frc consts  --      0.4722                 1.6408                 0.6819
 IR Inten    --     42.0412                 1.0251                21.8474

                     28                     29                     30
                      A                      A                      A
 Frequencies --    700.5484               739.5317               772.0805
 Red. masses --      3.1853                 3.3365                 2.0204
 Frc consts  --      0.9210                 1.0751                 0.7096
 IR Inten    --     14.5768                 5.8113                 7.8023

                     31                     32                     33
                      A                      A                      A
 Frequencies --    822.6318               834.4690               854.0262
 Red. masses --      2.6092                 1.8346                 2.3024
 Frc consts  --      1.0403                 0.7527                 0.9894
 IR Inten    --      3.0476                 3.8059                11.4182

                     34                     35                     36
                      A                      A                      A
 Frequencies --    862.5980               900.5246               904.0959
 Red. masses --      1.4550                 1.4108                 2.3189
 Frc consts  --      0.6379                 0.6741                 1.1168
 IR Inten    --      1.1941                65.3561                 7.0393

                     37                     38                     39
                      A                      A                      A
 Frequencies --    957.4649               973.5124               979.0052
 Red. masses --      1.3436                 2.5559                 2.3868
 Frc consts  --      0.7257                 1.4272                 1.3478
 IR Inten    --      7.2559                63.3263                10.2213

                     40                     41                     42
                      A                      A                      A
 Frequencies --    995.5939              1031.9880              1054.2438
 Red. masses --      1.2956                 2.7163                 2.7762
 Frc consts  --      0.7566                 1.7044                 1.8179
 IR Inten    --      1.0221                 0.7347                74.5179

                     43                     44                     45
                      A                      A                      A
 Frequencies --   1075.2630              1084.4457              1086.2334
 Red. masses --      1.7136                 1.6293                 1.6069
 Frc consts  --      1.1674                 1.1289                 1.1171
 IR Inten    --      8.1337                13.5319                 9.2279

                     46                     47                     48
                      A                      A                      A
 Frequencies --   1101.3950              1141.4679              1144.1792
 Red. masses --      2.1262                 1.9208                 1.3560
 Frc consts  --      1.5197                 1.4746                 1.0459
 IR Inten    --      3.2918                 1.0134                 9.8957

                     49                     50                     51
                      A                      A                      A
 Frequencies --   1196.5038              1220.3372              1221.3733
 Red. masses --      1.5042                 1.2593                 1.4666
 Frc consts  --      1.2687                 1.1050                 1.2890
 IR Inten    --    164.1944                 0.4691                 8.0496

                     52                     53                     54
                      A                      A                      A
 Frequencies --   1254.1604              1296.4122              1327.4562
 Red. masses --      1.5526                 2.0327                 1.6957
 Frc consts  --      1.4389                 2.0128                 1.7605
 IR Inten    --     46.6828                99.2329                39.9155

                     55                     56                     57
                      A                      A                      A
 Frequencies --   1329.6301              1338.8822              1357.8884
 Red. masses --      1.5704                 1.3728                 4.3040
 Frc consts  --      1.6358                 1.4500                 4.6758
 IR Inten    --     82.3223                25.9061                56.2284

                     58                     59                     60
                      A                      A                      A
 Frequencies --   1406.1309              1408.5661              1421.0299
 Red. masses --      1.7635                 1.4605                 1.5757
 Frc consts  --      2.0544                 1.7073                 1.8747
 IR Inten    --     36.7986                 5.1754                45.2231

                     61                     62                     63
                      A                      A                      A
 Frequencies --   1430.9888              1437.9367              1469.5930
 Red. masses --      1.4665                 1.5580                 2.8795
 Frc consts  --      1.7693                 1.8980                 3.6640
 IR Inten    --     20.7488                21.2208                47.9633

                     64                     65                     66
                      A                      A                      A
 Frequencies --   1497.0448              1506.3633              1508.2435
 Red. masses --      1.0851                 1.0459                 1.1179
 Frc consts  --      1.4328                 1.3984                 1.4983
 IR Inten    --      3.2033                 8.3112                24.8231

                     67                     68                     69
                      A                      A                      A
 Frequencies --   1518.1852              1533.5569              1562.6646
 Red. masses --      1.0869                 1.1359                 2.4620
 Frc consts  --      1.4759                 1.5740                 3.5421
 IR Inten    --     19.2113                15.0376                71.1167

                     70                     71                     72
                      A                      A                      A
 Frequencies --   1621.2567              1656.7280              1666.7512
 Red. masses --      5.9547                 1.2944                 4.4974
 Frc consts  --      9.2218                 2.0932                 7.3612
 IR Inten    --     32.4021                16.8448               183.5432

                     73                     74                     75
                      A                      A                      A
 Frequencies --   1705.5222              1798.4507              3049.6670
 Red. masses --      8.2229                 8.1378                 1.0368
 Frc consts  --     14.0925                15.5080                 5.6813
 IR Inten    --     62.5954               236.4312                 6.6611

                     76                     77                     78
                      A                      A                      A
 Frequencies --   3058.1750              3068.0350              3091.6910
 Red. masses --      1.0646                 1.0613                 1.0610
 Frc consts  --      5.8664                 5.8859                 5.9753
 IR Inten    --     11.0585                24.5040                42.4249

                     79                     80                     81
                      A                      A                      A
 Frequencies --   3104.6261              3109.6867              3119.0160
 Red. masses --      1.1001                 1.1003                 1.0992
 Frc consts  --      6.2475                 6.2688                 6.3003
 IR Inten    --      4.8140                11.8811                32.8622

                     82                     83                     84
                      A                      A                      A
 Frequencies --   3137.1025              3147.9632              3206.6927
 Red. masses --      1.1026                 1.1073                 1.0888
 Frc consts  --      6.3934                 6.4649                 6.5962
 IR Inten    --     24.8654                26.9389                13.0926

                     85                     86                     87
                      A                      A                      A
 Frequencies --   3208.7787              3227.1349              3231.9495
 Red. masses --      1.0880                 1.0931                 1.0927
 Frc consts  --      6.6001                 6.7071                 6.7248
 IR Inten    --      2.4223                 8.0800                 2.3595

                     88                     89                     90
                      A                      A                      A
 Frequencies --   3434.1938              3564.1560              3678.1815
 Red. masses --      1.0749                 1.0466                 1.1020
 Frc consts  --      7.4690                 7.8332                 8.7842
 IR Inten    --      5.5490                31.8134                26.4197

 - Thermochemistry -
 -------------------
 Temperature   298.150 Kelvin.  Pressure   1.00000 Atm.
 Atom     1 has atomic number  6 and mass  12.00000

 Molecular mass:   220.12118 amu.
 Principal axes and moments of inertia in atomic units:
                           1         2         3
     Eigenvalues --  1841.669805569.914726134.72255
           X            0.99978  -0.01739  -0.01172
           Y            0.01757   0.99973   0.01513
           Z            0.01145  -0.01533   0.99982
 This molecule is an asymmetric top.
 Rotational symmetry number  1.
 Warning -- assumption of classical behavior for rotation
           may cause significant error
 Rotational temperatures (Kelvin)      0.04703     0.01555     0.01412
 Rotational constants (GHZ):           0.97995     0.32402     0.29418
 Zero-point vibrational energy     708474.3 (Joules/Mol)
                                  169.32941 (Kcal/Mol)
 Warning -- explicit consideration of  25 degrees of freedom as
           vibrations may cause significant error
 Vibrational temperatures:     46.97    60.09    72.46    94.61   143.47
          (Kelvin)            168.46   190.41   280.39   289.62   300.83
                              367.59   435.44   464.24   490.45   600.57
                              609.08   656.35   673.03   697.73   732.51
                              760.43   771.79   820.28   862.54   872.46
                              937.18   986.89  1007.93  1064.02  1110.85
                             1183.58  1200.61  1228.75  1241.09  1295.65
                             1300.79  1377.58  1400.67  1408.57  1432.44
                             1484.80  1516.82  1547.06  1560.28  1562.85
                             1584.66  1642.32  1646.22  1721.50  1755.79
                             1757.28  1804.46  1865.25  1909.91  1913.04
                             1926.35  1953.70  2023.11  2026.61  2044.55
                             2058.87  2068.87  2114.42  2153.91  2167.32
                             2170.03  2184.33  2206.45  2248.33  2332.63
                             2383.66  2398.08  2453.87  2587.57  4387.79
                             4400.03  4414.22  4448.25  4466.86  4474.15
                             4487.57  4513.59  4529.22  4613.72  4616.72
                             4643.13  4650.05  4941.04  5128.03  5292.08

 Zero-point correction=                           0.269844 (Hartree/Particle)
 Thermal correction to Energy=                    0.285404
 Thermal correction to Enthalpy=                  0.286348
 Thermal correction to Gibbs Free Energy=         0.225995
 Sum of electronic and zero-point Energies=           -726.657743
 Sum of electronic and thermal Energies=              -726.642183
 Sum of electronic and thermal Enthalpies=            -726.641239
 Sum of electronic and thermal Free Energies=         -726.701592

                     E (Thermal)             CV                S
                      KCal/Mol        Cal/Mol-Kelvin    Cal/Mol-Kelvin
 Total                  179.094             59.322            127.024
 Electronic               0.000              0.000              0.000
 Translational            0.889              2.981             42.070
 Rotational               0.889              2.981             32.509
 Vibrational            177.316             53.360             52.445
 Vibration     1          0.594              1.983              5.662
 Vibration     2          0.594              1.980              5.174
 Vibration     3          0.595              1.977              4.803
 Vibration     4          0.597              1.971              4.276
 Vibration     5          0.604              1.949              3.460
 Vibration     6          0.608              1.935              3.148
 Vibration     7          0.612              1.921              2.912
 Vibration     8          0.636              1.847              2.181
 Vibration     9          0.638              1.838              2.121
 Vibration    10          0.642              1.827              2.052
 Vibration    11          0.666              1.754              1.692
 Vibration    12          0.694              1.669              1.402
 Vibration    13          0.708              1.630              1.297
 Vibration    14          0.720              1.594              1.208
 Vibration    15          0.780              1.432              0.901
 Vibration    16          0.785              1.419              0.881
 Vibration    17          0.814              1.347              0.777
 Vibration    18          0.825              1.322              0.744
 Vibration    19          0.841              1.283              0.697
 Vibration    20          0.864              1.230              0.636
 Vibration    21          0.883              1.187              0.591
 Vibration    22          0.891              1.169              0.573
 Vibration    23          0.926              1.096              0.504
 Vibration    24          0.958              1.033              0.451
 Vibration    25          0.965              1.018              0.439

 Optimization completed.
    -- Stationary point found.
 Normal termination of Gaussian 16 at Fri Dec 11 02:10:09 2020.

 ----------------------------------------------------------------------
 # B3LYP/6-311++G(d,p) empiricaldispersion=gd3bj scf=xqc pop=npa geom=c
 heck
 ----------------------------------------------------------------------

 ---------------------------------------
 CID_142450537_JID_6974_Energie_neutraal
 ---------------------------------------
 Structure from the checkpoint file:  "JID_6974.chk"
 Charge =  0 Multiplicity = 1

 SCF Done:  E(RB3LYP) =  -727.140034751     A.U. after   15 cycles
 Normal termination of Gaussian 16 at Fri Dec 11 02:15:13 2020.

 ----------------------------------------------------------------------
 # B3LYP/6-311++G(d,p) empiricaldispersion=gd3bj scf=xqc pop=npa geom=c
 heck
 ----------------------------------------------------------------------

 -------------------------------------
 CID_142450537_JID_6974_Energie_kation
 -------------------------------------
 Structure from the checkpoint file:  "JID_6974.chk"
 Charge =  1 Multiplicity = 2

 SCF Done:  E(UB3LYP) =  -726.839497985     A.U. after   23 cycles
 Normal termination of Gaussian 16 at Fri Dec 11 02:25:48 2020.
 Gaussian 16:  ES64L-G16RevA.03 25-Dec-2016

 ----------------------------------------------------------------------
 # B3LYP/6-311++G(d,p) empiricaldispersion=gd3bj scf=xqc pop=npa geom=c
 heck
 ----------------------------------------------------------------------

 ------------------------------------
 CID_142450537_JID_6974_Energie_anion
 ------------------------------------
 Structure from the checkpoint file:  "JID_6974.chk"
 Charge = -1 Multiplicity = 2

                         Standard orientation:
 ---------------------------------------------------------------------
 Center     Atomic      Atomic             Coordinates (Angstroms)
 Number     Number       Type             X           Y           Z
 ---------------------------------------------------------------------
      1          6           0       -4.129916    0.832766    1.082568
      2          6           0       -3.495331    0.171031   -0.123985
      3          7           0       -4.075044    0.044575   -1.260734
      4          6           0       -2.114304   -0.360433    0.024193
      5          6           0       -1.509779   -1.038984   -1.050894
      6          6           0       -0.215127   -1.525287   -0.951510
      7          6           0        0.523213   -1.341056    0.228763
      8          6           0       -0.075013   -0.700506    1.318240
      9          6           0       -1.376634   -0.215619    1.206949
     10          8           0        1.796115   -1.832003    0.243120
     11          6           0        2.836123   -1.030454    0.836515
     12          6           0        3.594627   -0.248539   -0.233216
     13          6           0        2.691968    0.634026   -1.103802
     14          6           0        1.897284    1.645405   -0.281564
     15          8           0        2.369517    2.195374    0.705660
     16          7           0        0.648625    1.937237   -0.764002
     17          1           0       -5.145131    1.164483    0.847962
     18          1           0       -3.550282    1.704877    1.407804
     19          1           0       -4.179229    0.141793    1.932168
     20          1           0       -5.016233    0.447429   -1.227949
     21          1           0       -2.082104   -1.165395   -1.963174
     22          1           0        0.257709   -2.043497   -1.780000
     23          1           0        0.467336   -0.572544    2.247879
     24          1           0       -1.812619    0.283016    2.066186
     25          1           0        2.421027   -0.340733    1.574328
     26          1           0        3.501321   -1.729688    1.350373
     27          1           0        4.331311    0.381290    0.277745
     28          1           0        4.139196   -0.945910   -0.879561
     29          1           0        3.314840    1.206519   -1.802942
     30          1           0        2.024790    0.017574   -1.713557
     31          1           0        0.159504    1.246685   -1.319039
     32          1           0        0.065781    2.490355   -0.148856
 ---------------------------------------------------------------------

 SCF Done:  E(UB3LYP) =  -727.140052353     A.U. after   33 cycles
 SCF Done:  E(UB3LYP) =  -727.140052353     a.u. after    1 cycles

 The electronic state is 2-A.
 Alpha  occ. eigenvalues --  -19.01639 -18.98200 -14.21713 -14.12236 -10.16451
 Alpha  occ. eigenvalues --  -10.11104 -10.07976 -10.07475 -10.07047 -10.05256
 Alpha  occ. eigenvalues --  -10.04551 -10.03526 -10.03416 -10.03241 -10.02668
 Alpha  occ. eigenvalues --  -10.01917  -0.93421  -0.92966  -0.79247  -0.75263
 Alpha  occ. eigenvalues --   -0.71193  -0.68880  -0.62649  -0.61035  -0.59889
 Alpha  occ. eigenvalues --   -0.57811  -0.52159  -0.48053  -0.47131  -0.45396
 Alpha  occ. eigenvalues --   -0.41931  -0.41537  -0.40519  -0.37953  -0.37412
 Alpha  occ. eigenvalues --   -0.35111  -0.32951  -0.31999  -0.31847  -0.31017
 Alpha  occ. eigenvalues --   -0.30761  -0.30233  -0.29401  -0.28396  -0.27716
 Alpha  occ. eigenvalues --   -0.27015  -0.26124  -0.25126  -0.23943  -0.22483
 Alpha  occ. eigenvalues --   -0.21693  -0.20902  -0.18381  -0.17159  -0.15889
 Alpha  occ. eigenvalues --   -0.15021  -0.12451  -0.11222  -0.09126   0.05239
 Alpha virt. eigenvalues --    0.06971   0.08208   0.08475   0.09923   0.10069
 Alpha virt. eigenvalues --    0.10702   0.11176   0.11241   0.11703   0.12369
 Alpha virt. eigenvalues --    0.12655   0.12711   0.13707   0.13893   0.14901

  Beta  occ. eigenvalues --  -19.01574 -18.98182 -14.21704 -14.11812 -10.16416
  Beta  occ. eigenvalues --  -10.11080 -10.07625 -10.07479 -10.07038 -10.05037
  Beta  occ. eigenvalues --  -10.04571 -10.03597 -10.03489 -10.03115 -10.02553
  Beta  occ. eigenvalues --  -10.01743  -0.93247  -0.92891  -0.79222  -0.74565
  Beta  occ. eigenvalues --   -0.70905  -0.68806  -0.62351  -0.60845  -0.59630
  Beta  occ. eigenvalues --   -0.57647  -0.52036  -0.47645  -0.46970  -0.45260
  Beta  occ. eigenvalues --   -0.41779  -0.41355  -0.40398  -0.37801  -0.37345
  Beta  occ. eigenvalues --   -0.34972  -0.32809  -0.31787  -0.31680  -0.30924
  Beta  occ. eigenvalues --   -0.30581  -0.29864  -0.29316  -0.28288  -0.27613
  Beta  occ. eigenvalues --   -0.26714  -0.26067  -0.25064  -0.23589  -0.22263
  Beta  occ. eigenvalues --   -0.21443  -0.20377  -0.17798  -0.16882  -0.15074
  Beta  occ. eigenvalues --   -0.14547  -0.11920  -0.10690  -0.07603
  Beta virt. eigenvalues --    0.07131   0.08162   0.08557   0.09794   0.09940
  Beta virt. eigenvalues --    0.10248   0.10723   0.11325   0.11579   0.11811
  Beta virt. eigenvalues --    0.12333   0.12695   0.13038   0.13769   0.13806

 Mulliken charges and spin densities:
               1          2
     1  C   -0.584320  -0.041838
     2  C   -0.565034   0.114283
     3  N   -0.385984   0.262111
     4  C    1.430430  -0.065250
     5  C   -0.649876   0.172613
     6  C   -0.118074  -0.038096
     7  C   -0.295138   0.118889
     8  C   -0.423533   0.017946
     9  C   -0.318711   0.187908
    10  O   -0.080615   0.012421
    11  C   -0.198401   0.058318
    12  C   -0.229753  -0.394829
    13  C   -0.119938   0.080682
    14  C   -0.114623   0.001219
    15  O   -0.327896   0.008699
    16  N   -0.195933   0.002294
    17  H    0.113089  -0.001372
    18  H    0.074846   0.054869
    19  H    0.111459   0.027538
    20  H    0.174798  -0.006322
    21  H    0.204670  -0.010017
    22  H    0.126770   0.021115
    23  H    0.126481   0.021096
    24  H    0.143794  -0.006305
    25  H    0.163018  -0.031976
    26  H    0.006075   0.151428
    27  H    0.142712   0.006764
    28  H    0.007476   0.148285
    29  H    0.066668   0.134058
    30  H    0.201745  -0.023404
    31  H    0.260464   0.009163
    32  H    0.253334   0.007712
 Sum of Mulliken charges =  -1.00000   1.00000

 Dipole moment (field-independent basis, Debye):
    X=              3.1389    Y=              0.8879    Z=              0.9953  Tot=              3.4105
 Quadrupole moment (field-independent basis, Debye-Ang):
   XX=           -147.9285   YY=           -122.3509   ZZ=           -111.7946
   XY=             -8.5604   XZ=            -10.6242   YZ=             -2.4071

 Summary of Natural Population Analysis:

                                       Natural Population
                Natural  -----------------------------------------------
    Atom  No    Charge         Core      Valence    Rydberg      Total
 -----------------------------------------------------------------------
      C    1   -0.31514      0.99964     2.31067    0.00483     3.31514
      C    2    0.15375      0.99962     1.82940    0.01722     2.84625
      N    3   -0.27557      0.99971     2.76805    0.00782     3.77557
      C    4   -0.03606      0.99947     2.02585    0.01074     3.03606
      C    5   -0.06084      0.99954     2.05142    0.00988     3.06084
      C    6   -0.15428      0.99952     2.14489    0.00987     3.15428
      C    7    0.20263      0.99937     1.78373    0.01426     2.79737
      C    8   -0.15907      0.99952     2.15057    0.00898     3.15907
      C    9   -0.06649      0.99955     2.05766    0.00929     3.06649
      O   10   -0.28654      0.99985     3.27714    0.00955     4.28654
      C   11   -0.00917      0.99955     1.99752    0.01209     3.00917
      C   12   -0.19967      0.99963     2.19087    0.00917     3.19967
      C   13   -0.23792      0.99958     2.22955    0.00880     3.23792
      C   14    0.34313      0.99971     1.63183    0.02532     2.65687
      O   15   -0.32927      0.99987     3.32360    0.00580     4.32927
      N   16   -0.40090      0.99970     2.89408    0.00713     3.90090
      H   17    0.09365      0.00000     0.40545    0.00090     0.40635
      H   18    0.10089      0.00000     0.39776    0.00136     0.39911
      H   19    0.10199      0.00000     0.39713    0.00088     0.39801
      H   20    0.14480      0.00000     0.35324    0.00197     0.35520
      H   21    0.11080      0.00000     0.38826    0.00093     0.38920
      H   22    0.09766      0.00000     0.40118    0.00115     0.40234
      H   23    0.09675      0.00000     0.40216    0.00110     0.40325
      H   24    0.09327      0.00000     0.40586    0.00086     0.40673
      H   25    0.09179      0.00000     0.40700    0.00121     0.40821
      H   26    0.08502      0.00000     0.41407    0.00091     0.41498
      H   27    0.10321      0.00000     0.39566    0.00113     0.39679
      H   28    0.09656      0.00000     0.40214    0.00130     0.40344
      H   29    0.10949      0.00000     0.38959    0.00093     0.39051
      H   30    0.10859      0.00000     0.39022    0.00119     0.39141
      H   31    0.20345      0.00000     0.29528    0.00127     0.29655
      H   32    0.19347      0.00000     0.30471    0.00182     0.30653
 =======================================================================
   * Total *    0.00000     15.99383    42.81653    0.18964    59.00000

 Normal termination of Gaussian 16 at Fri Dec 11 02:41:15 2020.
