 Gaussian 16, Revision A.03,

 -----------------------------------------------------------
 # opt freq B3LYP/6-31G(d) empiricaldispersion=gd3bj scf=xqc
 -----------------------------------------------------------

 -----------------------------
 CID_5075080_JID_5927_neutraal
 -----------------------------
 Symbolic Z-matrix:
 Charge =  0 Multiplicity = 1

 SCF Done:  E(RB3LYP) =  -708.661618553     A.U. after   14 cycles
 SCF Done:  E(RB3LYP) =  -708.665404761     A.U. after   12 cycles
 SCF Done:  E(RB3LYP) =  -708.665638378     A.U. after   11 cycles
 SCF Done:  E(RB3LYP) =  -708.665778888     A.U. after   10 cycles
 SCF Done:  E(RB3LYP) =  -708.665801213     A.U. after   10 cycles
 SCF Done:  E(RB3LYP) =  -708.665812101     A.U. after    9 cycles
 SCF Done:  E(RB3LYP) =  -708.665814306     A.U. after    8 cycles
 SCF Done:  E(RB3LYP) =  -708.665814880     A.U. after    7 cycles
 SCF Done:  E(RB3LYP) =  -708.665815044     A.U. after    7 cycles
 SCF Done:  E(RB3LYP) =  -708.665815160     A.U. after    7 cycles
 SCF Done:  E(RB3LYP) =  -708.665815180     A.U. after    6 cycles
 Optimization completed.
    -- Stationary point found.
 Normal termination of Gaussian 16 at Thu Dec 10 17:35:40 2020.

 --------------------------------------------------------------------
 #N Geom=AllCheck Guess=TCheck SCRF=Check GenChk RB3LYP/6-31G(d) Freq
 --------------------------------------------------------------------

 Structure from the checkpoint file:  "JID_5927.chk"
 -----------------------------
 CID_5075080_JID_5927_neutraal
 -----------------------------
 Charge =  0 Multiplicity = 1

 SCF Done:  E(RB3LYP) =  -708.665815180     A.U. after    1 cycles

  Exact polarizability: 171.623   4.443 128.797  -7.305   0.827  84.183
 Approx polarizability: 225.609   7.762 219.080 -13.165   3.780 127.486

                      1                      2                      3
                      A                      A                      A
 Frequencies --     48.7360                89.2810               124.0491
 Red. masses --      3.4999                 4.7664                 3.4490
 Frc consts  --      0.0049                 0.0224                 0.0313
 IR Inten    --      0.2789                 1.1193                 0.2975

                      4                      5                      6
                      A                      A                      A
 Frequencies --    157.1272               167.8737               201.5959
 Red. masses --      1.5249                 1.2728                 1.7382
 Frc consts  --      0.0222                 0.0211                 0.0416
 IR Inten    --      1.3351                 1.5528                 0.3392

                      7                      8                      9
                      A                      A                      A
 Frequencies --    211.4367               233.8172               263.9097
 Red. masses --      2.2493                 2.3333                 1.6435
 Frc consts  --      0.0592                 0.0752                 0.0674
 IR Inten    --      0.6208                 0.2983                 2.0902

                     10                     11                     12
                      A                      A                      A
 Frequencies --    290.3886               295.3225               305.6000
 Red. masses --      2.0171                 2.0397                 1.6157
 Frc consts  --      0.1002                 0.1048                 0.0889
 IR Inten    --     24.0767                19.5550                50.3108

                     13                     14                     15
                      A                      A                      A
 Frequencies --    313.1934               337.8320               362.3991
 Red. masses --      3.0391                 3.0488                 2.4238
 Frc consts  --      0.1756                 0.2050                 0.1876
 IR Inten    --      3.0440                 3.3955                 9.2709

                     16                     17                     18
                      A                      A                      A
 Frequencies --    422.1645               429.9479               441.2572
 Red. masses --      2.7938                 3.0747                 3.2654
 Frc consts  --      0.2934                 0.3349                 0.3746
 IR Inten    --      3.1377                 0.7468                 2.4917

                     19                     20                     21
                      A                      A                      A
 Frequencies --    498.0677               503.2417               528.3830
 Red. masses --      4.6798                 5.6240                 3.3721
 Frc consts  --      0.6840                 0.8392                 0.5547
 IR Inten    --      7.1668                14.4731                 4.0041

                     22                     23                     24
                      A                      A                      A
 Frequencies --    539.9515               579.2252               633.4404
 Red. masses --      4.2504                 4.2160                 4.9678
 Frc consts  --      0.7301                 0.8334                 1.1744
 IR Inten    --      6.5762                 5.8729                 1.7549

                     25                     26                     27
                      A                      A                      A
 Frequencies --    654.4449               710.1588               731.0720
 Red. masses --      5.7980                 4.9345                 4.3662
 Frc consts  --      1.4631                 1.4662                 1.3749
 IR Inten    --      4.2014                18.9245                 7.0035

                     28                     29                     30
                      A                      A                      A
 Frequencies --    754.4198               813.6364               847.1339
 Red. masses --      5.7748                 4.7327                 2.8928
 Frc consts  --      1.9365                 1.8460                 1.2231
 IR Inten    --     10.8744                 7.0177                31.2441

                     31                     32                     33
                      A                      A                      A
 Frequencies --    904.9564               915.7061               940.4375
 Red. masses --      3.6421                 1.4227                 1.4467
 Frc consts  --      1.7574                 0.7029                 0.7538
 IR Inten    --     25.9307                 6.7169                 0.2370

                     34                     35                     36
                      A                      A                      A
 Frequencies --    946.1968               976.0893              1015.1971
 Red. masses --      2.1942                 1.9704                 1.8718
 Frc consts  --      1.1574                 1.1061                 1.1366
 IR Inten    --     20.7724                 7.0517                 9.2057

                     37                     38                     39
                      A                      A                      A
 Frequencies --   1020.7209              1046.2829              1066.3648
 Red. masses --      1.4750                 1.8597                 1.5124
 Frc consts  --      0.9054                 1.1995                 1.0133
 IR Inten    --      5.0432                10.5631                 2.0549

                     40                     41                     42
                      A                      A                      A
 Frequencies --   1080.0194              1113.8167              1131.5158
 Red. masses --      5.0655                 4.4729                 4.4433
 Frc consts  --      3.4812                 3.2694                 3.3518
 IR Inten    --     27.4276                86.7830               100.2224

                     43                     44                     45
                      A                      A                      A
 Frequencies --   1197.0155              1231.8108              1253.3861
 Red. masses --      2.1252                 2.3918                 2.2015
 Frc consts  --      1.7942                 2.1383                 2.0377
 IR Inten    --     44.1743               105.9956                54.8934

                     46                     47                     48
                      A                      A                      A
 Frequencies --   1274.3925              1279.8998              1287.1951
 Red. masses --      3.0127                 2.2490                 4.9769
 Frc consts  --      2.8828                 2.1706                 4.8584
 IR Inten    --    107.3811               168.8645                20.4184

                     49                     50                     51
                      A                      A                      A
 Frequencies --   1301.4529              1326.5859              1332.0802
 Red. masses --      1.3817                 1.6029                 1.3344
 Frc consts  --      1.3788                 1.6620                 1.3951
 IR Inten    --     10.2827                 7.7435                18.2983

                     52                     53                     54
                      A                      A                      A
 Frequencies --   1354.1084              1417.7595              1422.7466
 Red. masses --      2.3300                 1.4703                 1.3617
 Frc consts  --      2.5172                 1.7413                 1.6240
 IR Inten    --     46.2790                46.4406                13.5043

                     55                     56                     57
                      A                      A                      A
 Frequencies --   1428.9005              1431.1296              1440.3733
 Red. masses --      1.3578                 1.3135                 1.2677
 Frc consts  --      1.6334                 1.5850                 1.5496
 IR Inten    --     27.6778                 3.6847                33.9946

                     58                     59                     60
                      A                      A                      A
 Frequencies --   1456.9117              1504.3957              1510.5672
 Red. masses --      4.4363                 1.0672                 1.0746
 Frc consts  --      5.5480                 1.4230                 1.4447
 IR Inten    --    113.4613                 1.7283                 2.0415

                     61                     62                     63
                      A                      A                      A
 Frequencies --   1511.4279              1516.9717              1519.2340
 Red. masses --      1.2216                 1.0623                 1.0714
 Frc consts  --      1.6443                 1.4402                 1.4569
 IR Inten    --      8.4862                 2.4099                 1.0445

                     64                     65                     66
                      A                      A                      A
 Frequencies --   1520.8145              1537.0671              1542.6068
 Red. masses --      1.0449                 1.2299                 1.0676
 Frc consts  --      1.4239                 1.7121                 1.4969
 IR Inten    --      8.2162                 6.7186                 2.0792

                     67                     68                     69
                      A                      A                      A
 Frequencies --   1545.8486              1625.9513              1664.5040
 Red. masses --      1.7614                 7.2948                 6.8728
 Frc consts  --      2.4799                11.3627                11.2189
 IR Inten    --      2.4585                 8.0750                10.0105

                     70                     71                     72
                      A                      A                      A
 Frequencies --   3021.2333              3022.7085              3028.7807
 Red. masses --      1.0426                 1.0678                 1.0704
 Frc consts  --      5.6070                 5.7484                 5.7852
 IR Inten    --     29.9884                28.9570                34.9584

                     73                     74                     75
                      A                      A                      A
 Frequencies --   3066.9953              3074.3591              3079.3227
 Red. masses --      1.1007                 1.0355                 1.0352
 Frc consts  --      6.1000                 5.7664                 5.7836
 IR Inten    --     21.8377                16.3411                11.1504

                     76                     77                     78
                      A                      A                      A
 Frequencies --   3106.6925              3146.1459              3146.2562
 Red. masses --      1.0947                 1.1040                 1.0998
 Frc consts  --      6.2250                 6.4383                 6.4146
 IR Inten    --     22.7803                 3.3554                34.3584

                     79                     80                     81
                      A                      A                      A
 Frequencies --   3154.1815              3157.3659              3161.3792
 Red. masses --      1.0925                 1.1039                 1.1036
 Frc consts  --      6.4037                 6.4839                 6.4987
 IR Inten    --      7.8924                24.8355                17.2942

                     82                     83                     84
                      A                      A                      A
 Frequencies --   3162.2433              3167.8792              3768.0349
 Red. masses --      1.0949                 1.0903                 1.0655
 Frc consts  --      6.4510                 6.4464                 8.9130
 IR Inten    --      3.4175                27.3867                61.7805

 - Thermochemistry -
 -------------------
 Temperature   298.150 Kelvin.  Pressure   1.00000 Atm.
 Atom     1 has atomic number  6 and mass  12.00000

 Molecular mass:   209.10519 amu.
 Principal axes and moments of inertia in atomic units:
                           1         2         3
     Eigenvalues --  1364.676424630.976455424.77420
           X            0.99998   0.00387  -0.00591
           Y           -0.00391   0.99997  -0.00625
           Z            0.00588   0.00627   0.99996
 This molecule is an asymmetric top.
 Rotational symmetry number  1.
 Warning -- assumption of classical behavior for rotation
           may cause significant error
 Rotational temperatures (Kelvin)      0.06347     0.01870     0.01597
 Rotational constants (GHZ):           1.32247     0.38971     0.33269
 Zero-point vibrational energy     660010.4 (Joules/Mol)
                                  157.74628 (Kcal/Mol)
 Warning -- explicit consideration of  23 degrees of freedom as
           vibrations may cause significant error
 Vibrational temperatures:     70.12   128.46   178.48   226.07   241.53
          (Kelvin)            290.05   304.21   336.41   379.71   417.80
                              424.90   439.69   450.62   486.06   521.41
                              607.40   618.60   634.87   716.61   724.05
                              760.23   776.87   833.38   911.38   941.60
                             1021.76  1051.85  1085.44  1170.64  1218.84
                             1302.03  1317.50  1353.08  1361.37  1404.37
                             1460.64  1468.59  1505.37  1534.26  1553.91
                             1602.53  1628.00  1722.24  1772.30  1803.34
                             1833.57  1841.49  1851.99  1872.50  1908.66
                             1916.57  1948.26  2039.84  2047.02  2055.87
                             2059.08  2072.38  2096.17  2164.49  2173.37
                             2174.61  2182.58  2185.84  2188.11  2211.50
                             2219.47  2224.13  2339.38  2394.85  4346.88
                             4349.00  4357.74  4412.72  4423.32  4430.46
                             4469.84  4526.60  4526.76  4538.16  4542.75
                             4548.52  4549.76  4557.87  5421.36

 Zero-point correction=                           0.251385 (Hartree/Particle)
 Thermal correction to Energy=                    0.265440
 Thermal correction to Enthalpy=                  0.266384
 Thermal correction to Gibbs Free Energy=         0.211679
 Sum of electronic and zero-point Energies=           -708.414430
 Sum of electronic and thermal Energies=              -708.400375
 Sum of electronic and thermal Enthalpies=            -708.399431
 Sum of electronic and thermal Free Energies=         -708.454136

                     E (Thermal)             CV                S
                      KCal/Mol        Cal/Mol-Kelvin    Cal/Mol-Kelvin
 Total                  166.566             55.448            115.137
 Electronic               0.000              0.000              0.000
 Translational            0.889              2.981             41.917
 Rotational               0.889              2.981             31.906
 Vibrational            164.789             49.487             41.314
 Vibration     1          0.595              1.978              4.868
 Vibration     2          0.602              1.957              3.676
 Vibration     3          0.610              1.929              3.036
 Vibration     4          0.621              1.895              2.584
 Vibration     5          0.625              1.882              2.459
 Vibration     6          0.638              1.838              2.118
 Vibration     7          0.643              1.823              2.031
 Vibration     8          0.654              1.789              1.849
 Vibration     9          0.670              1.739              1.636
 Vibration    10          0.686              1.692              1.472
 Vibration    11          0.690              1.682              1.443
 Vibration    12          0.696              1.663              1.386
 Vibration    13          0.701              1.649              1.345
 Vibration    14          0.718              1.600              1.222
 Vibration    15          0.736              1.550              1.112
 Vibration    16          0.784              1.422              0.885
 Vibration    17          0.791              1.405              0.859
 Vibration    18          0.801              1.380              0.823
 Vibration    19          0.854              1.254              0.663
 Vibration    20          0.859              1.243              0.650
 Vibration    21          0.883              1.187              0.591
 Vibration    22          0.895              1.162              0.565
 Vibration    23          0.936              1.076              0.487

 Optimization completed.
    -- Stationary point found.
 Normal termination of Gaussian 16 at Thu Dec 10 17:45:57 2020.

 ----------------------------------------------------------------------
 # B3LYP/6-311++G(d,p) empiricaldispersion=gd3bj scf=xqc pop=npa geom=c
 heck
 ----------------------------------------------------------------------

 -------------------------------------
 CID_5075080_JID_5927_Energie_neutraal
 -------------------------------------
 Structure from the checkpoint file:  "JID_5927.chk"
 Charge =  0 Multiplicity = 1

 SCF Done:  E(RB3LYP) =  -708.868902770     A.U. after   15 cycles
 Normal termination of Gaussian 16 at Thu Dec 10 17:50:15 2020.

 ----------------------------------------------------------------------
 # B3LYP/6-311++G(d,p) empiricaldispersion=gd3bj scf=xqc pop=npa geom=c
 heck
 ----------------------------------------------------------------------

 -----------------------------------
 CID_5075080_JID_5927_Energie_kation
 -----------------------------------
 Structure from the checkpoint file:  "JID_5927.chk"
 Charge =  1 Multiplicity = 2

 SCF Done:  E(UB3LYP) =  -708.558809543     A.U. after   27 cycles
 Normal termination of Gaussian 16 at Thu Dec 10 17:58:55 2020.
 Gaussian 16:  ES64L-G16RevA.03 25-Dec-2016

 ----------------------------------------------------------------------
 # B3LYP/6-311++G(d,p) empiricaldispersion=gd3bj scf=xqc pop=npa geom=c
 heck
 ----------------------------------------------------------------------

 ----------------------------------
 CID_5075080_JID_5927_Energie_anion
 ----------------------------------
 Structure from the checkpoint file:  "JID_5927.chk"
 Charge = -1 Multiplicity = 2

                         Standard orientation:
 ---------------------------------------------------------------------
 Center     Atomic      Atomic             Coordinates (Angstroms)
 Number     Number       Type             X           Y           Z
 ---------------------------------------------------------------------
      1          6           0       -4.304565   -0.255523    0.386821
      2          6           0       -2.885081    0.195166    0.147515
      3          7           0       -2.635067    1.506175    0.187220
      4          6           0       -1.379585    1.920199   -0.018552
      5          6           0       -0.311560    1.064439   -0.278933
      6          6           0        1.073566    1.610318   -0.527855
      7          8           0        2.047129    1.146151    0.399447
      8          6           0        2.592907   -0.158368    0.221809
      9          8           0        1.622510   -1.189611    0.376298
     10          6           0        0.564295   -1.299447   -0.569167
     11          6           0       -0.555549   -0.315077   -0.317848
     12          6           0       -1.865817   -0.744919   -0.102279
     13          8           0       -2.122667   -2.089321   -0.154335
     14          6           0        3.355885   -0.282855   -1.103892
     15          6           0        3.527659   -0.340441    1.411337
     16          1           0       -4.388201   -0.908773    1.267598
     17          1           0       -4.715469   -0.800466   -0.474935
     18          1           0       -4.928093    0.622947    0.560758
     19          1           0       -1.217587    2.995963    0.026039
     20          1           0        1.063714    2.698255   -0.415365
     21          1           0        1.381353    1.397059   -1.561742
     22          1           0        0.190800   -2.318617   -0.468732
     23          1           0        0.934537   -1.185571   -1.597848
     24          1           0       -3.052375   -2.242496    0.070995
     25          1           0        4.140956    0.477542   -1.141685
     26          1           0        3.816557   -1.272867   -1.164533
     27          1           0        2.724939   -0.154226   -1.986433
     28          1           0        2.948543   -0.248682    2.333196
     29          1           0        3.991691   -1.329540    1.377472
     30          1           0        4.305399    0.427543    1.399670
 ---------------------------------------------------------------------

 SCF Done:  E(UB3LYP) =  -708.858012008     A.U. after   33 cycles
 SCF Done:  E(UB3LYP) =  -708.858012008     a.u. after    1 cycles

 The electronic state is 2-A.
 Alpha  occ. eigenvalues --  -19.05317 -19.03237 -19.03009 -14.20148 -10.18537
 Alpha  occ. eigenvalues --  -10.13465 -10.12845 -10.12269 -10.10485 -10.09515
 Alpha  occ. eigenvalues --  -10.08210 -10.07901 -10.07157 -10.06857 -10.06614
 Alpha  occ. eigenvalues --   -0.97446  -0.96444  -0.91475  -0.83846  -0.73175
 Alpha  occ. eigenvalues --   -0.68105  -0.67609  -0.63435  -0.61539  -0.59004
 Alpha  occ. eigenvalues --   -0.56945  -0.52650  -0.50000  -0.47372  -0.44677
 Alpha  occ. eigenvalues --   -0.42228  -0.41644  -0.39447  -0.37894  -0.37024
 Alpha  occ. eigenvalues --   -0.34555  -0.34288  -0.33484  -0.32501  -0.31117
 Alpha  occ. eigenvalues --   -0.30549  -0.30050  -0.29342  -0.29186  -0.28686
 Alpha  occ. eigenvalues --   -0.28339  -0.27786  -0.26165  -0.25963  -0.24469
 Alpha  occ. eigenvalues --   -0.22602  -0.18241  -0.17869  -0.16552  -0.15041
 Alpha  occ. eigenvalues --   -0.13039   0.04365
 Alpha virt. eigenvalues --    0.05932   0.06557   0.07748   0.08030   0.09053
 Alpha virt. eigenvalues --    0.09322   0.09430   0.09832   0.10383   0.11289
 Alpha virt. eigenvalues --    0.11609   0.11835   0.12097   0.12700   0.13763

  Beta  occ. eigenvalues --  -19.05273 -19.03230 -19.02992 -14.20087 -10.18533
  Beta  occ. eigenvalues --  -10.13478 -10.12832 -10.12252 -10.10422 -10.09527
  Beta  occ. eigenvalues --  -10.08144 -10.07865 -10.07122 -10.06850 -10.06560
  Beta  occ. eigenvalues --   -0.97422  -0.96360  -0.91446  -0.83741  -0.73080
  Beta  occ. eigenvalues --   -0.68049  -0.67509  -0.63337  -0.61486  -0.58952
  Beta  occ. eigenvalues --   -0.56891  -0.52601  -0.49901  -0.47297  -0.44609
  Beta  occ. eigenvalues --   -0.42180  -0.41583  -0.39389  -0.37846  -0.36975
  Beta  occ. eigenvalues --   -0.34469  -0.34224  -0.33399  -0.32452  -0.31070
  Beta  occ. eigenvalues --   -0.30493  -0.30004  -0.29272  -0.29151  -0.28648
  Beta  occ. eigenvalues --   -0.28293  -0.27735  -0.26042  -0.25918  -0.24399
  Beta  occ. eigenvalues --   -0.22568  -0.18213  -0.17825  -0.16214  -0.14966
  Beta  occ. eigenvalues --   -0.12852
  Beta virt. eigenvalues --    0.06470   0.07189   0.07423   0.07965   0.08271
  Beta virt. eigenvalues --    0.09314   0.09564   0.09805   0.10185   0.11059
  Beta virt. eigenvalues --    0.11440   0.11824   0.12074   0.12291   0.13060

 Mulliken charges and spin densities:
               1          2
     1  C    3.609449  -4.332251
     2  C   -2.616961   2.298337
     3  N   -0.054593   0.106034
     4  C   -0.885644   0.632097
     5  C    0.164238   0.192602
     6  C    0.474267  -1.145111
     7  O    0.053881  -0.007570
     8  C   -1.764150   0.840179
     9  O    0.039082   0.008674
    10  C   -0.172781  -0.419781
    11  C    1.502681  -0.329650
    12  C   -0.414714   0.303727
    13  O   -0.283371   0.022998
    14  C    1.405634  -1.506055
    15  C   -0.593967   0.215561
    16  H   -0.230590   0.380836
    17  H   -0.561816   0.738594
    18  H   -0.003526   0.186050
    19  H    0.054052   0.111592
    20  H    0.085581   0.089134
    21  H   -0.094986   0.247754
    22  H    0.142087   0.088713
    23  H   -0.049965   0.199148
    24  H   -0.532448   0.838624
    25  H   -0.123550   0.299646
    26  H   -0.065930   0.239891
    27  H   -0.360743   0.506897
    28  H    0.091875   0.083457
    29  H    0.090177   0.059019
    30  H    0.096733   0.050852
 Sum of Mulliken charges =  -1.00000   1.00000

 Dipole moment (field-independent basis, Debye):
    X=              5.3328    Y=              3.0335    Z=              1.5014  Tot=              6.3163
 Quadrupole moment (field-independent basis, Debye-Ang):
   XX=           -174.7299   YY=           -127.1458   ZZ=           -119.1151
   XY=            -12.1328   XZ=              4.4186   YZ=             -1.5225

 Summary of Natural Population Analysis:

                                       Natural Population
                Natural  -----------------------------------------------
    Atom  No    Charge         Core      Valence    Rydberg      Total
 -----------------------------------------------------------------------
      C    1   -0.31191      0.99964     2.30501    0.00726     3.31191
      C    2    0.08765      0.99951     1.89814    0.01470     2.91235
      N    3   -0.22743      0.99968     2.71705    0.01069     3.72743
      C    4    0.01548      0.99953     1.97197    0.01303     2.98452
      C    5   -0.03729      0.99946     2.02858    0.00925     3.03729
      C    6   -0.01873      0.99952     2.00571    0.01350     3.01873
      O    7   -0.30919      0.99986     3.29987    0.00946     4.30919
      C    8    0.29123      0.99956     1.68856    0.02065     2.70877
      O    9   -0.30704      0.99986     3.29791    0.00927     4.30704
      C   10   -0.02250      0.99951     2.01013    0.01286     3.02250
      C   11   -0.02046      0.99942     2.00990    0.01113     3.02046
      C   12    0.14707      0.99928     1.84039    0.01325     2.85293
      O   13   -0.34309      0.99988     3.33634    0.00687     4.34309
      C   14   -0.31563      0.99959     2.30935    0.00668     3.31563
      C   15   -0.28792      0.99959     2.28188    0.00645     3.28792
      H   16    0.10301      0.00000     0.39553    0.00145     0.39699
      H   17    0.10840      0.00000     0.38769    0.00392     0.39160
      H   18    0.11399      0.00000     0.38435    0.00166     0.38601
      H   19    0.08614      0.00000     0.41250    0.00136     0.41386
      H   20    0.09391      0.00000     0.40487    0.00122     0.40609
      H   21    0.08785      0.00000     0.41043    0.00172     0.41215
      H   22    0.10691      0.00000     0.39133    0.00176     0.39309
      H   23    0.08751      0.00000     0.41100    0.00149     0.41249
      H   24    0.24560      0.00000     0.24366    0.01075     0.25440
      H   25    0.10585      0.00000     0.39312    0.00103     0.39415
      H   26    0.10636      0.00000     0.39258    0.00106     0.39364
      H   27    0.10360      0.00000     0.39493    0.00146     0.39640
      H   28    0.10851      0.00000     0.39051    0.00098     0.39149
      H   29    0.10149      0.00000     0.39767    0.00084     0.39851
      H   30    0.10063      0.00000     0.39849    0.00087     0.39937
 =======================================================================
   * Total *   -0.00000     14.99390    40.80945    0.19665    56.00000

 Normal termination of Gaussian 16 at Thu Dec 10 18:09:32 2020.
