 Gaussian 16, Revision A.03,

 -----------------------------------------------------------
 # opt freq B3LYP/6-31G(d) empiricaldispersion=gd3bj scf=xqc
 -----------------------------------------------------------

 -------------------------------
 CID_117111330_JID_4482_neutraal
 -------------------------------
 Symbolic Z-matrix:
 Charge =  0 Multiplicity = 1

 SCF Done:  E(RB3LYP) =  -578.873735181     A.U. after   14 cycles
 SCF Done:  E(RB3LYP) =  -578.878057279     A.U. after   11 cycles
 SCF Done:  E(RB3LYP) =  -578.878514749     A.U. after   11 cycles
 SCF Done:  E(RB3LYP) =  -578.878652032     A.U. after   11 cycles
 SCF Done:  E(RB3LYP) =  -578.878721629     A.U. after   11 cycles
 SCF Done:  E(RB3LYP) =  -578.878764493     A.U. after   11 cycles
 SCF Done:  E(RB3LYP) =  -578.878778506     A.U. after    9 cycles
 SCF Done:  E(RB3LYP) =  -578.878781458     A.U. after    9 cycles
 SCF Done:  E(RB3LYP) =  -578.878781888     A.U. after    7 cycles
 SCF Done:  E(RB3LYP) =  -578.878781962     A.U. after    7 cycles
 Optimization completed.
    -- Stationary point found.
 Normal termination of Gaussian 16 at Thu Dec 10 09:52:27 2020.

 --------------------------------------------------------------------
 #N Geom=AllCheck Guess=TCheck SCRF=Check GenChk RB3LYP/6-31G(d) Freq
 --------------------------------------------------------------------

 Structure from the checkpoint file:  "JID_4482.chk"
 -------------------------------
 CID_117111330_JID_4482_neutraal
 -------------------------------
 Charge =  0 Multiplicity = 1

 SCF Done:  E(RB3LYP) =  -578.878781962     A.U. after    1 cycles

  Exact polarizability: 168.886  -7.061 149.891  10.601   5.120  99.085
 Approx polarizability: 233.850  -9.594 230.074  23.217  12.627 145.230

                      1                      2                      3
                      A                      A                      A
 Frequencies --     37.9436                40.9217                60.2123
 Red. masses --      1.0175                 2.9341                 3.3021
 Frc consts  --      0.0009                 0.0029                 0.0071
 IR Inten    --      0.2173                 0.3012                 0.7275

                      4                      5                      6
                      A                      A                      A
 Frequencies --     65.1408                81.7108               127.4244
 Red. masses --      3.2339                 3.0417                 3.1971
 Frc consts  --      0.0081                 0.0120                 0.0306
 IR Inten    --      0.9271                 0.4810                 0.5507

                      7                      8                      9
                      A                      A                      A
 Frequencies --    176.5911               180.6324               243.2249
 Red. masses --      2.4979                 3.0400                 1.1862
 Frc consts  --      0.0459                 0.0584                 0.0413
 IR Inten    --      0.7527                 1.4901                 0.8798

                     10                     11                     12
                      A                      A                      A
 Frequencies --    247.4800               261.2364               285.0011
 Red. masses --      1.2895                 1.1650                 1.1547
 Frc consts  --      0.0465                 0.0468                 0.0553
 IR Inten    --      2.3639                35.3728                 0.5297

                     13                     14                     15
                      A                      A                      A
 Frequencies --    287.8593               296.0317               328.3929
 Red. masses --      1.7765                 2.6823                 2.8158
 Frc consts  --      0.0867                 0.1385                 0.1789
 IR Inten    --      0.8615                 1.2228                11.3211

                     16                     17                     18
                      A                      A                      A
 Frequencies --    350.8757               367.4488               387.9403
 Red. masses --      2.9363                 2.9738                 2.4790
 Frc consts  --      0.2130                 0.2366                 0.2198
 IR Inten    --      1.2338                 0.4181                10.5015

                     19                     20                     21
                      A                      A                      A
 Frequencies --    420.6302               444.5792               504.9574
 Red. masses --      2.4074                 2.0816                 3.0097
 Frc consts  --      0.2510                 0.2424                 0.4521
 IR Inten    --      1.9307                 4.6824                10.6772

                     22                     23                     24
                      A                      A                      A
 Frequencies --    515.6437               552.7601               556.7724
 Red. masses --      3.3777                 3.9354                 4.0377
 Frc consts  --      0.5291                 0.7085                 0.7375
 IR Inten    --      3.0696                 1.4365                 5.5189

                     25                     26                     27
                      A                      A                      A
 Frequencies --    616.8659               723.7203               766.3070
 Red. masses --      3.7224                 5.5834                 3.8206
 Frc consts  --      0.8346                 1.7230                 1.3219
 IR Inten    --      0.8584                 2.5988                 1.5529

                     28                     29                     30
                      A                      A                      A
 Frequencies --    805.8059               827.9442               849.8979
 Red. masses --      2.6915                 2.1094                 1.8690
 Frc consts  --      1.0297                 0.8519                 0.7954
 IR Inten    --      5.9855                 7.9495                 9.8222

                     31                     32                     33
                      A                      A                      A
 Frequencies --    895.9280               898.2294               911.0940
 Red. masses --      1.5118                 1.7181                 2.5845
 Frc consts  --      0.7150                 0.8167                 1.2640
 IR Inten    --      3.9711                 0.3581                55.3918

                     34                     35                     36
                      A                      A                      A
 Frequencies --    925.7555               954.5657               970.6721
 Red. masses --      1.5382                 1.3115                 1.6598
 Frc consts  --      0.7767                 0.7041                 0.9214
 IR Inten    --    122.8297                 0.3192                 1.0261

                     37                     38                     39
                      A                      A                      A
 Frequencies --    996.9141              1036.4575              1046.4897
 Red. masses --      2.2409                 1.6506                 1.4924
 Frc consts  --      1.3121                 1.0447                 0.9629
 IR Inten    --     27.9743                12.4929                 0.6522

                     40                     41                     42
                      A                      A                      A
 Frequencies --   1074.3422              1080.6461              1094.9999
 Red. masses --      1.5063                 1.5781                 2.0217
 Frc consts  --      1.0243                 1.0858                 1.4282
 IR Inten    --      8.3070                12.9687                 9.6904

                     43                     44                     45
                      A                      A                      A
 Frequencies --   1131.5193              1138.2644              1172.1768
 Red. masses --      1.2461                 2.2905                 1.5031
 Frc consts  --      0.9400                 1.7485                 1.2168
 IR Inten    --      8.1761                35.4822                 7.6572

                     46                     47                     48
                      A                      A                      A
 Frequencies --   1188.1317              1192.5334              1203.0126
 Red. masses --      1.4235                 1.5099                 1.6502
 Frc consts  --      1.1840                 1.2651                 1.4071
 IR Inten    --      3.5159                19.5095                 4.1632

                     49                     50                     51
                      A                      A                      A
 Frequencies --   1233.4194              1242.2666              1252.1350
 Red. masses --      2.1858                 2.8628                 2.5866
 Frc consts  --      1.9593                 2.6030                 2.3894
 IR Inten    --     12.0653                11.8485                 2.7060

                     52                     53                     54
                      A                      A                      A
 Frequencies --   1281.8899              1325.2543              1348.8652
 Red. masses --      1.4482                 1.7204                 2.8697
 Frc consts  --      1.4021                 1.7803                 3.0763
 IR Inten    --      2.5584                 1.1849                14.4032

                     55                     56                     57
                      A                      A                      A
 Frequencies --   1353.6023              1375.5302              1393.9171
 Red. masses --      2.6832                 1.6112                 1.3464
 Frc consts  --      2.8965                 1.7961                 1.5414
 IR Inten    --     14.4385                 9.7810                 5.5512

                     58                     59                     60
                      A                      A                      A
 Frequencies --   1420.7098              1435.1491              1441.9229
 Red. masses --      1.3333                 1.2594                 1.2501
 Frc consts  --      1.5856                 1.5283                 1.5314
 IR Inten    --     19.0915                 6.4645                 0.0568

                     61                     62                     63
                      A                      A                      A
 Frequencies --   1456.2800              1466.6342              1494.3533
 Red. masses --      2.7134                 1.1623                 1.1911
 Frc consts  --      3.3904                 1.4730                 1.5672
 IR Inten    --     15.0941                 0.2396                 1.3002

                     64                     65                     66
                      A                      A                      A
 Frequencies --   1506.4221              1508.1300              1518.6448
 Red. masses --      1.0759                 1.0605                 1.0490
 Frc consts  --      1.4385                 1.4211                 1.4255
 IR Inten    --      4.8094                 4.8042                 5.3986

                     67                     68                     69
                      A                      A                      A
 Frequencies --   1520.1721              1521.2978              1525.1377
 Red. masses --      1.0723                 1.0652                 1.1207
 Frc consts  --      1.4601                 1.4524                 1.5359
 IR Inten    --      4.2971                20.4156                 9.0975

                     70                     71                     72
                      A                      A                      A
 Frequencies --   1531.3453              1533.3655              1551.4452
 Red. masses --      1.0543                 1.0742                 1.0739
 Frc consts  --      1.4567                 1.4881                 1.5230
 IR Inten    --      7.7202                 7.8960                 3.6900

                     73                     74                     75
                      A                      A                      A
 Frequencies --   1557.6411              1632.5859              1668.8696
 Red. masses --      2.6675                 5.7406                 5.8902
 Frc consts  --      3.8132                 9.0148                 9.6655
 IR Inten    --     36.6813                10.0903                18.8543

                     76                     77                     78
                      A                      A                      A
 Frequencies --   1694.9941              2954.1628              2965.1320
 Red. masses --      1.0911                 1.0599                 1.0599
 Frc consts  --      1.8469                 5.4500                 5.4901
 IR Inten    --     20.9279                54.2214               121.7529

                     79                     80                     81
                      A                      A                      A
 Frequencies --   3034.5905              3039.2600              3040.7020
 Red. masses --      1.0842                 1.0408                 1.0360
 Frc consts  --      5.8827                 5.6641                 5.6436
 IR Inten    --     19.0367                38.8623                23.7648

                     82                     83                     84
                      A                      A                      A
 Frequencies --   3068.9970              3075.0017              3079.0382
 Red. masses --      1.0617                 1.0754                 1.0766
 Frc consts  --      5.8915                 5.9911                 6.0137
 IR Inten    --     24.2328                27.6878                54.8821

                     85                     86                     87
                      A                      A                      A
 Frequencies --   3096.0093              3106.5328              3118.6781
 Red. masses --      1.0953                 1.1024                 1.1012
 Frc consts  --      6.1857                 6.2682                 6.3103
 IR Inten    --     23.5803                41.4797                15.2189

                     88                     89                     90
                      A                      A                      A
 Frequencies --   3122.2308              3123.3956              3136.5422
 Red. masses --      1.1006                 1.1026                 1.1008
 Frc consts  --      6.3214                 6.3373                 6.3806
 IR Inten    --     46.7736                19.0876                22.3063

                     91                     92                     93
                      A                      A                      A
 Frequencies --   3141.7196              3169.9937              3188.7660
 Red. masses --      1.0998                 1.0867                 1.0934
 Frc consts  --      6.3960                 6.4342                 6.5503
 IR Inten    --     21.7541                13.3304                34.2746

                     94                     95                     96
                      A                      A                      A
 Frequencies --   3192.5545              3437.2975              3522.5665
 Red. masses --      1.0898                 1.0498                 1.0910
 Frc consts  --      6.5445                 7.3080                 7.9759
 IR Inten    --      6.7312                 5.0756                 2.2740

 - Thermochemistry -
 -------------------
 Temperature   298.150 Kelvin.  Pressure   1.00000 Atm.
 Atom     1 has atomic number  6 and mass  12.00000

 Molecular mass:   192.16265 amu.
 Principal axes and moments of inertia in atomic units:
                           1         2         3
     Eigenvalues --  2018.062343631.775924752.11197
           X            1.00000  -0.00208   0.00027
           Y            0.00208   0.99998  -0.00588
           Z           -0.00026   0.00588   0.99998
 This molecule is an asymmetric top.
 Rotational symmetry number  1.
 Warning -- assumption of classical behavior for rotation
           may cause significant error
 Rotational temperatures (Kelvin)      0.04292     0.02385     0.01823
 Rotational constants (GHZ):           0.89429     0.49693     0.37978
 Zero-point vibrational energy     799876.1 (Joules/Mol)
                                  191.17497 (Kcal/Mol)
 Warning -- explicit consideration of  25 degrees of freedom as
           vibrations may cause significant error
 Vibrational temperatures:     54.59    58.88    86.63    93.72   117.56
          (Kelvin)            183.34   254.08   259.89   349.95   356.07
                              375.86   410.05   414.17   425.92   472.48
                              504.83   528.68   558.16   605.19   639.65
                              726.52   741.90   795.30   801.07   887.53
                             1041.27  1102.54  1159.38  1191.23  1222.81
                             1289.04  1292.35  1310.86  1331.96  1373.41
                             1396.58  1434.34  1491.23  1505.67  1545.74
                             1554.81  1575.46  1628.00  1637.71  1686.50
                             1709.46  1715.79  1730.87  1774.62  1787.34
                             1801.54  1844.35  1906.75  1940.72  1947.53
                             1979.08  2005.54  2044.08  2064.86  2074.61
                             2095.26  2110.16  2150.04  2167.41  2169.86
                             2184.99  2187.19  2188.81  2194.33  2203.26
                             2206.17  2232.18  2241.10  2348.93  2401.13
                             2438.72  4250.38  4266.16  4366.10  4372.82
                             4374.89  4415.60  4424.24  4430.05  4454.47
                             4469.61  4487.08  4492.19  4493.87  4512.78
                             4520.23  4560.91  4587.92  4593.37  4945.50
                             5068.19

 Zero-point correction=                           0.304657 (Hartree/Particle)
 Thermal correction to Energy=                    0.320326
 Thermal correction to Enthalpy=                  0.321271
 Thermal correction to Gibbs Free Energy=         0.261382
 Sum of electronic and zero-point Energies=           -578.574125
 Sum of electronic and thermal Energies=              -578.558455
 Sum of electronic and thermal Enthalpies=            -578.557511
 Sum of electronic and thermal Free Energies=         -578.617400

                     E (Thermal)             CV                S
                      KCal/Mol        Cal/Mol-Kelvin    Cal/Mol-Kelvin
 Total                  201.008             58.629            126.045
 Electronic               0.000              0.000              0.000
 Translational            0.889              2.981             41.665
 Rotational               0.889              2.981             31.921
 Vibrational            199.230             52.668             52.459
 Vibration     1          0.594              1.982              5.364
 Vibration     2          0.594              1.981              5.214
 Vibration     3          0.597              1.973              4.450
 Vibration     4          0.597              1.971              4.295
 Vibration     5          0.600              1.962              3.849
 Vibration     6          0.611              1.926              2.985
 Vibration     7          0.628              1.871              2.364
 Vibration     8          0.630              1.866              2.322
 Vibration     9          0.659              1.774              1.779
 Vibration    10          0.661              1.767              1.748
 Vibration    11          0.669              1.744              1.653
 Vibration    12          0.683              1.702              1.503
 Vibration    13          0.685              1.696              1.487
 Vibration    14          0.690              1.681              1.439
 Vibration    15          0.712              1.619              1.268
 Vibration    16          0.728              1.573              1.162
 Vibration    17          0.740              1.539              1.090
 Vibration    18          0.756              1.496              1.008
 Vibration    19          0.783              1.425              0.890
 Vibration    20          0.804              1.373              0.812
 Vibration    21          0.860              1.239              0.646
 Vibration    22          0.871              1.215              0.620
 Vibration    23          0.908              1.134              0.538
 Vibration    24          0.912              1.125              0.530
 Vibration    25          0.977              0.996              0.422

                           ! Non-Optimized Parameters !
 Normal termination of Gaussian 16 at Thu Dec 10 10:02:35 2020.

 ----------------------------------------------------------------------
 # B3LYP/6-311++G(d,p) empiricaldispersion=gd3bj scf=xqc pop=npa geom=c
 heck
 ----------------------------------------------------------------------

 ---------------------------------------
 CID_117111330_JID_4482_Energie_neutraal
 ---------------------------------------
 Structure from the checkpoint file:  "JID_4482.chk"
 Charge =  0 Multiplicity = 1

 SCF Done:  E(RB3LYP) =  -579.041161523     A.U. after   15 cycles
 Normal termination of Gaussian 16 at Thu Dec 10 10:06:59 2020.

 ----------------------------------------------------------------------
 # B3LYP/6-311++G(d,p) empiricaldispersion=gd3bj scf=xqc pop=npa geom=c
 heck
 ----------------------------------------------------------------------

 -------------------------------------
 CID_117111330_JID_4482_Energie_kation
 -------------------------------------
 Structure from the checkpoint file:  "JID_4482.chk"
 Charge =  1 Multiplicity = 2

 SCF Done:  E(UB3LYP) =  -578.767140359     A.U. after   25 cycles
 Normal termination of Gaussian 16 at Thu Dec 10 10:17:03 2020.
 Gaussian 16:  ES64L-G16RevA.03 25-Dec-2016

 ----------------------------------------------------------------------
 # B3LYP/6-311++G(d,p) empiricaldispersion=gd3bj scf=xqc pop=npa geom=c
 heck
 ----------------------------------------------------------------------

 ------------------------------------
 CID_117111330_JID_4482_Energie_anion
 ------------------------------------
 Structure from the checkpoint file:  "JID_4482.chk"
 Charge = -1 Multiplicity = 2

                         Standard orientation:
 ---------------------------------------------------------------------
 Center     Atomic      Atomic             Coordinates (Angstroms)
 Number     Number       Type             X           Y           Z
 ---------------------------------------------------------------------
      1          6           0        4.015964   -0.976531    0.522386
      2          6           0        2.569830   -0.838410    0.111843
      3          6           0        1.925410    0.401632    0.174022
      4          6           0        0.575568    0.553222   -0.163745
      5          6           0       -0.168877   -0.569001   -0.582990
      6          6           0        0.489205   -1.799094   -0.668323
      7          6           0        1.833373   -1.940723   -0.328851
      8          6           0       -1.652693   -0.501957   -0.857292
      9          6           0       -2.501669   -1.046203    0.309816
     10          6           0       -2.268727   -0.261404    1.607474
     11          7           0       -3.905979   -1.073980   -0.130886
     12          7           0       -0.074818    1.828341   -0.094494
     13          6           0        0.386042    2.719917    0.958009
     14          6           0       -0.140595    2.508911   -1.385829
     15          1           0        4.586592   -0.069969    0.293525
     16          1           0        4.108136   -1.153883    1.602307
     17          1           0        4.497242   -1.817502    0.012394
     18          1           0        2.494408    1.271059    0.490508
     19          1           0       -0.074216   -2.669833   -0.996713
     20          1           0        2.310654   -2.914881   -0.401995
     21          1           0       -1.964007    0.529035   -1.047186
     22          1           0       -1.901786   -1.090366   -1.747184
     23          1           0       -2.208050   -2.091371    0.478849
     24          1           0       -2.512243    0.798102    1.463680
     25          1           0       -2.897774   -0.656368    2.414749
     26          1           0       -1.223966   -0.320777    1.930485
     27          1           0       -4.485470   -1.441351    0.624148
     28          1           0       -4.221589   -0.112450   -0.270277
     29          1           0        1.376075    3.172536    0.764139
     30          1           0       -0.333415    3.539779    1.064797
     31          1           0        0.433982    2.175282    1.904698
     32          1           0       -0.533181    1.830934   -2.147447
     33          1           0       -0.811448    3.372424   -1.309878
     34          1           0        0.848643    2.866919   -1.725059
 ---------------------------------------------------------------------

 SCF Done:  E(UB3LYP) =  -579.026265740     A.U. after   33 cycles
 SCF Done:  E(UB3LYP) =  -579.026265740     a.u. after    1 cycles

 The electronic state is 2-A.
 Alpha  occ. eigenvalues --  -14.21478 -14.19573 -10.10583 -10.10148 -10.09212
 Alpha  occ. eigenvalues --  -10.08840 -10.08496 -10.07854 -10.07498 -10.07228
 Alpha  occ. eigenvalues --  -10.07205 -10.06935 -10.06717 -10.05374  -0.83791
 Alpha  occ. eigenvalues --   -0.79251  -0.75541  -0.69384  -0.64559  -0.64482
 Alpha  occ. eigenvalues --   -0.61388  -0.60297  -0.56959  -0.54717  -0.50414
 Alpha  occ. eigenvalues --   -0.47940  -0.46451  -0.41223  -0.39447  -0.38341
 Alpha  occ. eigenvalues --   -0.37259  -0.36301  -0.35035  -0.34116  -0.33273
 Alpha  occ. eigenvalues --   -0.33083  -0.32480  -0.30898  -0.30167  -0.29254
 Alpha  occ. eigenvalues --   -0.29142  -0.28750  -0.27466  -0.26994  -0.26171
 Alpha  occ. eigenvalues --   -0.25252  -0.24445  -0.23886  -0.23004  -0.16431
 Alpha  occ. eigenvalues --   -0.15210  -0.14222  -0.11317   0.04332
 Alpha virt. eigenvalues --    0.06068   0.06608   0.07387   0.07977   0.08249
 Alpha virt. eigenvalues --    0.08631   0.08808   0.09451   0.09627   0.10337
 Alpha virt. eigenvalues --    0.10577   0.10967   0.11985   0.12130   0.12641

  Beta  occ. eigenvalues --  -14.21473 -14.19546 -10.10582 -10.10143 -10.09183
  Beta  occ. eigenvalues --  -10.08805 -10.08494 -10.07850 -10.07494 -10.07197
  Beta  occ. eigenvalues --  -10.07196 -10.06921 -10.06709 -10.05350  -0.83776
  Beta  occ. eigenvalues --   -0.79207  -0.75528  -0.69360  -0.64539  -0.64446
  Beta  occ. eigenvalues --   -0.61341  -0.60253  -0.56913  -0.54672  -0.50377
  Beta  occ. eigenvalues --   -0.47895  -0.46417  -0.41192  -0.39421  -0.38315
  Beta  occ. eigenvalues --   -0.37224  -0.36261  -0.35000  -0.34079  -0.33244
  Beta  occ. eigenvalues --   -0.33056  -0.32448  -0.30873  -0.30135  -0.29219
  Beta  occ. eigenvalues --   -0.29109  -0.28714  -0.27435  -0.26962  -0.26147
  Beta  occ. eigenvalues --   -0.25227  -0.24415  -0.23865  -0.22983  -0.16415
  Beta  occ. eigenvalues --   -0.15181  -0.14198  -0.11293
  Beta virt. eigenvalues --    0.06344   0.06915   0.07322   0.07622   0.08216
  Beta virt. eigenvalues --    0.08511   0.08912   0.09310   0.09794   0.09961
  Beta virt. eigenvalues --    0.10605   0.10910   0.11435   0.12247   0.12475

 Mulliken charges and spin densities:
               1          2
     1  C    1.428883  -1.917765
     2  C   -0.008075   0.401640
     3  C   -0.760132   0.532228
     4  C   -1.561884   0.729717
     5  C    0.601941  -0.028229
     6  C   -0.089470  -0.272871
     7  C   -0.540404  -0.169571
     8  C    0.204439  -0.218985
     9  C    0.075155  -0.732562
    10  C   -0.253388  -0.204148
    11  N   -0.366816   0.113636
    12  N    0.283534   0.162574
    13  C    0.950336  -1.205424
    14  C    0.632913  -0.899346
    15  H   -0.384366   0.535909
    16  H   -0.046105   0.217615
    17  H   -0.183893   0.318937
    18  H    0.298883  -0.152779
    19  H    0.062145   0.073272
    20  H   -0.155215   0.298238
    21  H    0.124131   0.005614
    22  H    0.094181   0.121946
    23  H    0.045833   0.115196
    24  H   -0.050756   0.187290
    25  H   -0.342928   0.493837
    26  H    0.273531  -0.126549
    27  H    0.027058   0.192037
    28  H   -0.003402   0.214115
    29  H   -0.389983   0.522899
    30  H   -0.336408   0.478586
    31  H   -0.210587   0.366685
    32  H   -0.053611   0.179201
    33  H   -0.151823   0.322231
    34  H   -0.213719   0.344824
 Sum of Mulliken charges =  -1.00000   1.00000

 Dipole moment (field-independent basis, Debye):
    X=             -0.2438    Y=             -3.3408    Z=             -1.0127  Tot=              3.4994
 Quadrupole moment (field-independent basis, Debye-Ang):
   XX=           -165.5980   YY=           -140.6462   ZZ=           -122.5743
   XY=             -2.5599   XZ=              0.9567   YZ=             -1.2958

 Summary of Natural Population Analysis:

                                       Natural Population
                Natural  -----------------------------------------------
    Atom  No    Charge         Core      Valence    Rydberg      Total
 -----------------------------------------------------------------------
      C    1   -0.29034      0.99964     2.28565    0.00505     3.29034
      C    2   -0.01517      0.99952     2.00514    0.01051     3.01517
      C    3   -0.11375      0.99946     2.10535    0.00894     3.11375
      C    4    0.09330      0.99941     1.89445    0.01283     2.90670
      C    5   -0.02164      0.99946     2.01153    0.01065     3.02164
      C    6   -0.09427      0.99952     2.08628    0.00848     3.09427
      C    7   -0.10662      0.99951     2.09812    0.00899     3.10662
      C    8   -0.20310      0.99957     2.19285    0.01068     3.20310
      C    9   -0.00849      0.99961     1.99776    0.01112     3.00849
      C   10   -0.29520      0.99964     2.28912    0.00644     3.29520
      N   11   -0.42148      0.99977     2.91147    0.01023     3.92148
      N   12   -0.28195      0.99970     2.76836    0.01389     3.78195
      C   13   -0.17573      0.99964     2.16699    0.00910     3.17573
      C   14   -0.17180      0.99963     2.16405    0.00813     3.17180
      H   15    0.10426      0.00000     0.39429    0.00145     0.39574
      H   16    0.10352      0.00000     0.39512    0.00135     0.39648
      H   17    0.10116      0.00000     0.39758    0.00125     0.39884
      H   18    0.10425      0.00000     0.39420    0.00154     0.39575
      H   19    0.09747      0.00000     0.40125    0.00128     0.40253
      H   20    0.09769      0.00000     0.40142    0.00089     0.40231
      H   21    0.10596      0.00000     0.39220    0.00184     0.39404
      H   22    0.10592      0.00000     0.39281    0.00127     0.39408
      H   23    0.08485      0.00000     0.41317    0.00198     0.41515
      H   24    0.10048      0.00000     0.39763    0.00189     0.39952
      H   25    0.09534      0.00000     0.40341    0.00125     0.40466
      H   26    0.10368      0.00000     0.39506    0.00125     0.39632
      H   27    0.17313      0.00000     0.32518    0.00169     0.32687
      H   28    0.17091      0.00000     0.32716    0.00194     0.32909
      H   29    0.08265      0.00000     0.41541    0.00194     0.41735
      H   30    0.09789      0.00000     0.40075    0.00136     0.40211
      H   31    0.09945      0.00000     0.39928    0.00127     0.40055
      H   32    0.09708      0.00000     0.40198    0.00093     0.40292
      H   33    0.09591      0.00000     0.40285    0.00124     0.40409
      H   34    0.08463      0.00000     0.41397    0.00140     0.41537
 =======================================================================
   * Total *    0.00000     13.99408    38.84187    0.16405    53.00000

 Normal termination of Gaussian 16 at Thu Dec 10 10:30:15 2020.
