 Gaussian 16, Revision A.03,

 -----------------------------------------------------------
 # opt freq B3LYP/6-31G(d) empiricaldispersion=gd3bj scf=xqc
 -----------------------------------------------------------

 --------------------------------
 CID_134187345_JID_10590_neutraal
 --------------------------------
 Symbolic Z-matrix:
 Charge =  0 Multiplicity = 1

 SCF Done:  E(RB3LYP) =  -1290.11600148     A.U. after   15 cycles
 SCF Done:  E(RB3LYP) =  -1290.12086447     A.U. after   12 cycles
 SCF Done:  E(RB3LYP) =  -1290.12166145     A.U. after   12 cycles
 SCF Done:  E(RB3LYP) =  -1290.12200182     A.U. after   11 cycles
 SCF Done:  E(RB3LYP) =  -1290.12253547     A.U. after   12 cycles
 SCF Done:  E(RB3LYP) =  -1290.12289764     A.U. after   12 cycles
 SCF Done:  E(RB3LYP) =  -1290.12339516     A.U. after   12 cycles
 SCF Done:  E(RB3LYP) =  -1290.12349333     A.U. after   12 cycles
 SCF Done:  E(RB3LYP) =  -1290.12351109     A.U. after   11 cycles
 SCF Done:  E(RB3LYP) =  -1290.12352408     A.U. after   10 cycles
 SCF Done:  E(RB3LYP) =  -1290.12355691     A.U. after   11 cycles
 SCF Done:  E(RB3LYP) =  -1290.12356274     A.U. after   11 cycles
 SCF Done:  E(RB3LYP) =  -1290.12356408     A.U. after    8 cycles
 SCF Done:  E(RB3LYP) =  -1290.12356413     A.U. after    8 cycles
 SCF Done:  E(RB3LYP) =  -1290.12356405     A.U. after    7 cycles
 Optimization completed.
    -- Stationary point found.
 Normal termination of Gaussian 16 at Sun Dec 13 13:09:14 2020.

 --------------------------------------------------------------------
 #N Geom=AllCheck Guess=TCheck SCRF=Check GenChk RB3LYP/6-31G(d) Freq
 --------------------------------------------------------------------

 Structure from the checkpoint file:  "JID_10590.chk"
 --------------------------------
 CID_134187345_JID_10590_neutraal
 --------------------------------
 Charge =  0 Multiplicity = 1

 SCF Done:  E(RB3LYP) =  -1290.12356405     A.U. after    1 cycles

  Exact polarizability: 269.579  28.328 136.695  11.920  -4.515 133.823
 Approx polarizability: 353.094  55.404 252.819  13.422 -13.017 238.967

                      1                      2                      3
                      A                      A                      A
 Frequencies --      8.4267                16.1906                39.0565
 Red. masses --      6.2358                 6.1618                 5.6611
 Frc consts  --      0.0003                 0.0010                 0.0051
 IR Inten    --      1.1185                 3.3690                 0.4260

                      4                      5                      6
                      A                      A                      A
 Frequencies --     51.6289                78.5046               135.6398
 Red. masses --      4.6069                 5.8188                 2.5036
 Frc consts  --      0.0072                 0.0211                 0.0271
 IR Inten    --      1.3542                 3.0306                13.6768

                      7                      8                      9
                      A                      A                      A
 Frequencies --    141.1640               166.1520               217.5475
 Red. masses --      2.5798                 7.7059                 3.2826
 Frc consts  --      0.0303                 0.1253                 0.0915
 IR Inten    --     24.6681                 0.0416                 8.4187

                     10                     11                     12
                      A                      A                      A
 Frequencies --    244.2313               259.0648               305.6894
 Red. masses --      4.7754                 6.7009                 7.4693
 Frc consts  --      0.1678                 0.2650                 0.4112
 IR Inten    --      8.6724                 3.9428                 2.8272

                     13                     14                     15
                      A                      A                      A
 Frequencies --    331.6724               349.7845               367.5950
 Red. masses --      5.8602                 4.0104                 5.3846
 Frc consts  --      0.3798                 0.2891                 0.4287
 IR Inten    --     12.9268                 2.3875                 6.5759

                     16                     17                     18
                      A                      A                      A
 Frequencies --    375.8045               422.7750               433.9358
 Red. masses --      5.8482                 3.2124                 4.7290
 Frc consts  --      0.4866                 0.3383                 0.5247
 IR Inten    --      0.3075                 0.8283                12.1117

                     19                     20                     21
                      A                      A                      A
 Frequencies --    443.9758               452.2067               463.8578
 Red. masses --      2.5735                 1.6521                 4.0902
 Frc consts  --      0.2989                 0.1991                 0.5185
 IR Inten    --      8.5759               102.0825                15.7029

                     22                     23                     24
                      A                      A                      A
 Frequencies --    482.1716               535.9297               542.8966
 Red. masses --      6.6978                 3.9214                 5.2967
 Frc consts  --      0.9175                 0.6636                 0.9198
 IR Inten    --      5.6198                49.8164                77.9862

                     25                     26                     27
                      A                      A                      A
 Frequencies --    554.1092               620.3891               646.0489
 Red. masses --      5.7783                 5.5706                 6.2207
 Frc consts  --      1.0453                 1.2632                 1.5297
 IR Inten    --     19.1963                16.5617                 1.0062

                     28                     29                     30
                      A                      A                      A
 Frequencies --    651.3624               659.4675               688.2170
 Red. masses --      2.6956                 6.6997                 3.8235
 Frc consts  --      0.6738                 1.7167                 1.0670
 IR Inten    --      1.0109                13.1971               124.5542

                     31                     32                     33
                      A                      A                      A
 Frequencies --    702.2170               715.8384               764.7562
 Red. masses --      3.0684                 4.3161                 4.2169
 Frc consts  --      0.8915                 1.3031                 1.4531
 IR Inten    --    102.0331                47.7890                 1.8028

                     34                     35                     36
                      A                      A                      A
 Frequencies --    782.3627               816.4523               831.1554
 Red. masses --      5.0799                 4.4257                 1.3474
 Frc consts  --      1.8320                 1.7382                 0.5484
 IR Inten    --      3.7859                 0.4603                 0.6792

                     37                     38                     39
                      A                      A                      A
 Frequencies --    833.8549               846.7886               854.7245
 Red. masses --      1.4349                 1.5766                 1.4761
 Frc consts  --      0.5878                 0.6661                 0.6353
 IR Inten    --      7.5924                32.4045                14.2963

                     40                     41                     42
                      A                      A                      A
 Frequencies --    858.2215               875.0215               891.6185
 Red. masses --      2.7261                 2.2993                 2.1487
 Frc consts  --      1.1830                 1.0373                 1.0064
 IR Inten    --     20.9869                 8.5727               202.0816

                     43                     44                     45
                      A                      A                      A
 Frequencies --    949.7930               954.7786               961.8524
 Red. masses --      6.9059                 1.2916                 1.2712
 Frc consts  --      3.6705                 0.6937                 0.6929
 IR Inten    --      3.4643                 0.1157                 0.2806

                     46                     47                     48
                      A                      A                      A
 Frequencies --    971.4464               981.6434              1032.0130
 Red. masses --      1.3037                 2.9478                 3.1715
 Frc consts  --      0.7249                 1.6736                 1.9901
 IR Inten    --      0.3356                35.1687                 2.9549

                     49                     50                     51
                      A                      A                      A
 Frequencies --   1094.9476              1104.6916              1113.2595
 Red. masses --      4.0667                 1.7252                 1.4130
 Frc consts  --      2.8726                 1.2405                 1.0318
 IR Inten    --     59.7992                16.9991                 4.0071

                     52                     53                     54
                      A                      A                      A
 Frequencies --   1138.9305              1144.4979              1151.7831
 Red. masses --      1.5146                 1.2888                 4.1752
 Frc consts  --      1.1576                 0.9946                 3.2634
 IR Inten    --      8.0460                13.9243               306.8784

                     55                     56                     57
                      A                      A                      A
 Frequencies --   1166.1808              1204.9480              1218.1011
 Red. masses --      1.9717                 1.2191                 2.1023
 Frc consts  --      1.5799                 1.0428                 1.8379
 IR Inten    --     48.9790                26.8132                31.4403

                     58                     59                     60
                      A                      A                      A
 Frequencies --   1274.4294              1286.4912              1317.8776
 Red. masses --      1.9128                 2.8420                 5.5140
 Frc consts  --      1.8304                 2.7713                 5.6425
 IR Inten    --     40.2917               387.8454                79.1659

                     61                     62                     63
                      A                      A                      A
 Frequencies --   1331.7390              1339.0055              1341.9651
 Red. masses --      1.8039                 2.6013                 2.8353
 Frc consts  --      1.8850                 2.7479                 3.0084
 IR Inten    --     78.8899                18.6321                61.4860

                     64                     65                     66
                      A                      A                      A
 Frequencies --   1369.8295              1390.0579              1411.7284
 Red. masses --     11.0165                 5.0374                 2.4151
 Frc consts  --     12.1795                 5.7349                 2.8358
 IR Inten    --     56.0480                39.3156                85.6374

                     67                     68                     69
                      A                      A                      A
 Frequencies --   1461.2214              1491.0744              1532.3611
 Red. masses --      3.2679                 3.2990                 4.3812
 Frc consts  --      4.1111                 4.3214                 6.0613
 IR Inten    --      8.0325                44.7309                81.2503

                     70                     71                     72
                      A                      A                      A
 Frequencies --   1541.2632              1558.0758              1620.7154
 Red. masses --      2.5672                 3.5225                 1.1101
 Frc consts  --      3.5931                 5.0382                 1.7180
 IR Inten    --    131.9269                34.4713                32.1249

                     73                     74                     75
                      A                      A                      A
 Frequencies --   1635.7248              1639.4206              1656.2626
 Red. masses --      7.0897                 7.1190                 5.8445
 Frc consts  --     11.1764                11.2733                 9.4461
 IR Inten    --     21.4510                12.7285               190.1966

                     76                     77                     78
                      A                      A                      A
 Frequencies --   1687.7579              3213.5767              3218.8650
 Red. masses --      6.8128                 1.0882                 1.0882
 Frc consts  --     11.4339                 6.6210                 6.6431
 IR Inten    --     20.8691                 4.4322                 1.9603

                     79                     80                     81
                      A                      A                      A
 Frequencies --   3222.9573              3227.9340              3228.3747
 Red. masses --      1.0925                 1.0953                 1.0884
 Frc consts  --      6.6863                 6.7242                 6.6834
 IR Inten    --      3.0636                 4.8423                 0.3765

                     82                     83                     84
                      A                      A                      A
 Frequencies --   3232.6831              3241.1059              3262.4325
 Red. masses --      1.0951                 1.0937                 1.0971
 Frc consts  --      6.7426                 6.7694                 6.8799
 IR Inten    --      2.3722                 3.0874                 2.4856

                     85                     86                     87
                      A                      A                      A
 Frequencies --   3484.2199              3594.9824              3657.8546
 Red. masses --      1.0469                 1.0973                 1.0808
 Frc consts  --      7.4883                 8.3556                 8.5201
 IR Inten    --     31.1927                28.6493                62.9794

 - Thermochemistry -
 -------------------
 Temperature   298.150 Kelvin.  Pressure   1.00000 Atm.
 Atom     1 has atomic number  6 and mass  12.00000

 Molecular mass:   289.05211 amu.
 Principal axes and moments of inertia in atomic units:
                           1         2         3
     Eigenvalues --  1836.62982********************
           X            0.99997   0.00341   0.00643
           Y           -0.00331   0.99986  -0.01615
           Z           -0.00649   0.01612   0.99985
 This molecule is an asymmetric top.
 Rotational symmetry number  1.
 Warning -- assumption of classical behavior for rotation
           may cause significant error
 Rotational temperatures (Kelvin)      0.04716     0.00549     0.00535
 Rotational constants (GHZ):           0.98264     0.11432     0.11148
 Zero-point vibrational energy     604828.1 (Joules/Mol)
                                  144.55738 (Kcal/Mol)
 Warning -- explicit consideration of  26 degrees of freedom as
           vibrations may cause significant error
 Vibrational temperatures:     12.12    23.29    56.19    74.28   112.95
          (Kelvin)            195.16   203.10   239.06   313.00   351.39
                              372.74   439.82   477.20   503.26   528.89
                              540.70   608.28   624.34   638.78   650.62
                              667.39   693.74   771.08   781.11   797.24
                              892.60   929.52   937.17   948.83   990.19
                             1010.33  1029.93  1100.31  1125.65  1174.69
                             1195.85  1199.73  1218.34  1229.76  1234.79
                             1258.96  1282.84  1366.54  1373.71  1383.89
                             1397.69  1412.37  1484.84  1575.39  1589.40
                             1601.73  1638.67  1646.68  1657.16  1677.87
                             1733.65  1752.58  1833.62  1850.97  1896.13
                             1916.08  1926.53  1930.79  1970.88  1999.98
                             2031.16  2102.37  2145.32  2204.73  2217.53
                             2241.72  2331.85  2353.44  2358.76  2382.99
                             2428.31  4623.62  4631.23  4637.12  4644.28
                             4644.91  4651.11  4663.23  4693.91  5013.02
                             5172.38  5262.84

 Zero-point correction=                           0.230367 (Hartree/Particle)
 Thermal correction to Energy=                    0.247077
 Thermal correction to Enthalpy=                  0.248021
 Thermal correction to Gibbs Free Energy=         0.182271
 Sum of electronic and zero-point Energies=          -1289.893197
 Sum of electronic and thermal Energies=             -1289.876487
 Sum of electronic and thermal Enthalpies=           -1289.875543
 Sum of electronic and thermal Free Energies=        -1289.941293

                     E (Thermal)             CV                S
                      KCal/Mol        Cal/Mol-Kelvin    Cal/Mol-Kelvin
 Total                  155.043             65.008            138.383
 Electronic               0.000              0.000              0.000
 Translational            0.889              2.981             42.882
 Rotational               0.889              2.981             34.506
 Vibrational            153.266             59.046             60.995
 Vibration     1          0.593              1.987              8.351
 Vibration     2          0.593              1.986              7.054
 Vibration     3          0.594              1.981              5.306
 Vibration     4          0.596              1.977              4.754
 Vibration     5          0.600              1.964              3.928
 Vibration     6          0.613              1.918              2.864
 Vibration     7          0.615              1.912              2.788
 Vibration     8          0.624              1.884              2.479
 Vibration     9          0.646              1.814              1.979
 Vibration    10          0.660              1.772              1.772
 Vibration    11          0.668              1.747              1.668
 Vibration    12          0.696              1.663              1.386
 Vibration    13          0.714              1.612              1.252
 Vibration    14          0.727              1.576              1.167
 Vibration    15          0.740              1.539              1.090
 Vibration    16          0.747              1.522              1.056
 Vibration    17          0.785              1.421              0.883
 Vibration    18          0.795              1.396              0.846
 Vibration    19          0.803              1.374              0.814
 Vibration    20          0.811              1.356              0.789
 Vibration    21          0.821              1.330              0.755
 Vibration    22          0.838              1.290              0.704
 Vibration    23          0.891              1.171              0.574
 Vibration    24          0.898              1.155              0.559
 Vibration    25          0.910              1.131              0.536
 Vibration    26          0.980              0.989              0.416

                           ! Non-Optimized Parameters !
 Normal termination of Gaussian 16 at Sun Dec 13 13:22:24 2020.

 ----------------------------------------------------------------------
 # B3LYP/6-311++G(d,p) empiricaldispersion=gd3bj scf=xqc pop=npa geom=c
 heck
 ----------------------------------------------------------------------

 ----------------------------------------
 CID_134187345_JID_10590_Energie_neutraal
 ----------------------------------------
 Structure from the checkpoint file:  "JID_10590.chk"
 Charge =  0 Multiplicity = 1

 SCF Done:  E(RB3LYP) =  -1290.39683519     A.U. after   16 cycles
 Normal termination of Gaussian 16 at Sun Dec 13 13:27:26 2020.

 ----------------------------------------------------------------------
 # B3LYP/6-311++G(d,p) empiricaldispersion=gd3bj scf=xqc pop=npa geom=c
 heck
 ----------------------------------------------------------------------

 --------------------------------------
 CID_134187345_JID_10590_Energie_kation
 --------------------------------------
 Structure from the checkpoint file:  "JID_10590.chk"
 Charge =  1 Multiplicity = 2

 SCF Done:  E(UB3LYP) =  -1290.09654696     A.U. after   27 cycles
 Normal termination of Gaussian 16 at Sun Dec 13 13:38:58 2020.
 Gaussian 16:  ES64L-G16RevA.03 25-Dec-2016

 ----------------------------------------------------------------------
 # B3LYP/6-311++G(d,p) empiricaldispersion=gd3bj scf=xqc pop=npa geom=c
 heck
 ----------------------------------------------------------------------

 -------------------------------------
 CID_134187345_JID_10590_Energie_anion
 -------------------------------------
 Structure from the checkpoint file:  "JID_10590.chk"
 Charge = -1 Multiplicity = 2

                         Standard orientation:
 ---------------------------------------------------------------------
 Center     Atomic      Atomic             Coordinates (Angstroms)
 Number     Number       Type             X           Y           Z
 ---------------------------------------------------------------------
      1          6           0        0.427393   -0.261673   -0.016371
      2          6           0        1.714440   -0.795209   -0.045903
      3          6           0        2.814177    0.055724   -0.121491
      4          6           0        2.649643    1.443640   -0.178760
      5          6           0        1.371428    1.978348   -0.146974
      6          6           0        0.261149    1.125698   -0.063679
      7          8           0       -0.959997    1.744772   -0.057589
      8          6           0       -2.100923    0.979136    0.163641
      9          6           0       -2.910392    0.684455   -0.925778
     10          6           0       -4.074406   -0.031658   -0.643361
     11          6           0       -4.418426   -0.448185    0.667754
     12          6           0       -3.574836   -0.133696    1.740014
     13          6           0       -2.414976    0.584409    1.477471
     14          7           0       -5.622782   -1.143409    0.654061
     15          6           0       -5.991173   -1.148798   -0.600542
     16          7           0       -5.106764   -0.497681   -1.436297
     17         16           0        4.453576   -0.631830   -0.172797
     18          8           0        4.319884   -2.086646   -0.312842
     19          8           0        5.274014    0.157932   -1.095551
     20          7           0        5.057184   -0.260947    1.374033
     21          1           0       -0.435517   -0.913994    0.037541
     22          1           0        1.869288   -1.868018   -0.023227
     23          1           0        3.517165    2.089916   -0.253989
     24          1           0        1.204572    3.049176   -0.190278
     25          1           0       -2.630411    1.008770   -1.921968
     26          1           0       -3.832649   -0.443420    2.747184
     27          1           0       -1.733435    0.857713    2.275922
     28          1           0       -6.892473   -1.607927   -0.985930
     29          1           0       -5.198367   -0.384515   -2.434801
     30          1           0        4.948985   -1.065107    1.990148
     31          1           0        6.042350   -0.020657    1.273282
 ---------------------------------------------------------------------

 SCF Done:  E(UB3LYP) =  -1290.40079169     A.U. after   33 cycles
 SCF Done:  E(UB3LYP) =  -1290.40079170     a.u. after    1 cycles

 The electronic state is 2-A.
 Alpha  occ. eigenvalues --  -88.96966 -19.06706 -19.02536 -19.02445 -14.27108
 Alpha  occ. eigenvalues --  -14.25433 -14.20429 -10.14110 -10.13927 -10.13525
 Alpha  occ. eigenvalues --  -10.11885 -10.09830 -10.09824 -10.09532 -10.08713
 Alpha  occ. eigenvalues --  -10.08289 -10.08207 -10.08098 -10.07885 -10.07806
 Alpha  occ. eigenvalues --   -8.03145  -5.99457  -5.99403  -5.99198  -1.02730
 Alpha  occ. eigenvalues --   -0.98735  -0.92261  -0.91877  -0.82212  -0.78611
 Alpha  occ. eigenvalues --   -0.77462  -0.75265  -0.68147  -0.66556  -0.65637
 Alpha  occ. eigenvalues --   -0.63967  -0.58050  -0.54838  -0.53739  -0.52316
 Alpha  occ. eigenvalues --   -0.51533  -0.48993  -0.46514  -0.45354  -0.44467
 Alpha  occ. eigenvalues --   -0.43340  -0.41026  -0.40337  -0.39744  -0.37486
 Alpha  occ. eigenvalues --   -0.36202  -0.35740  -0.35316  -0.34935  -0.34596
 Alpha  occ. eigenvalues --   -0.34109  -0.32831  -0.31070  -0.30683  -0.29760
 Alpha  occ. eigenvalues --   -0.27856  -0.27035  -0.26417  -0.25083  -0.23919
 Alpha  occ. eigenvalues --   -0.23805  -0.22862  -0.21851  -0.21633  -0.20510
 Alpha  occ. eigenvalues --   -0.18670  -0.17320  -0.14958  -0.14126  -0.13222
 Alpha  occ. eigenvalues --    0.03289
 Alpha virt. eigenvalues --    0.04771   0.05358   0.06163   0.07286   0.07697
 Alpha virt. eigenvalues --    0.08106   0.08534   0.09364   0.09961   0.10268
 Alpha virt. eigenvalues --    0.10497   0.11285   0.11843   0.12114   0.12561

  Beta  occ. eigenvalues --  -88.96953 -19.06686 -19.02520 -19.02421 -14.27057
  Beta  occ. eigenvalues --  -14.25378 -14.20425 -10.13911 -10.13836 -10.13483
  Beta  occ. eigenvalues --  -10.11890 -10.09812 -10.09715 -10.09513 -10.08573
  Beta  occ. eigenvalues --  -10.08288 -10.08261 -10.08007 -10.07891 -10.07702
  Beta  occ. eigenvalues --   -8.03132  -5.99423  -5.99385  -5.99192  -1.02666
  Beta  occ. eigenvalues --   -0.98634  -0.92174  -0.91838  -0.82104  -0.78531
  Beta  occ. eigenvalues --   -0.77277  -0.75144  -0.67894  -0.66417  -0.65489
  Beta  occ. eigenvalues --   -0.63822  -0.57839  -0.54676  -0.53653  -0.52186
  Beta  occ. eigenvalues --   -0.51429  -0.48830  -0.46389  -0.45276  -0.44372
  Beta  occ. eigenvalues --   -0.43209  -0.40943  -0.40252  -0.39636  -0.37385
  Beta  occ. eigenvalues --   -0.36108  -0.35664  -0.35219  -0.34778  -0.34504
  Beta  occ. eigenvalues --   -0.34068  -0.32714  -0.30943  -0.30391  -0.29680
  Beta  occ. eigenvalues --   -0.27709  -0.26946  -0.26280  -0.24745  -0.23753
  Beta  occ. eigenvalues --   -0.23626  -0.22784  -0.21763  -0.21431  -0.20404
  Beta  occ. eigenvalues --   -0.18647  -0.16916  -0.14470  -0.13647  -0.12861
  Beta virt. eigenvalues --    0.05435   0.06460   0.06504   0.06958   0.07712
  Beta virt. eigenvalues --    0.07993   0.08388   0.08630   0.09456   0.09954
  Beta virt. eigenvalues --    0.10346   0.10858   0.11272   0.11798   0.12237

 Mulliken charges and spin densities:
               1          2
     1  C   -0.160154  -0.013383
     2  C   -0.219793   0.157415
     3  C   -0.288043   0.094802
     4  C    0.165246  -0.001401
     5  C   -0.440987   0.047462
     6  C   -0.390996   0.066906
     7  O   -0.032969   0.005733
     8  C   -0.307661  -0.313310
     9  C    0.070642  -0.273747
    10  C    0.983956  -0.536103
    11  C   -0.295335   0.048010
    12  C   -0.482931   0.204741
    13  C    0.213202  -0.018051
    14  N   -0.155806  -0.009668
    15  C    0.259586   0.095513
    16  N   -0.163456  -0.051479
    17  S    0.372996  -0.185905
    18  O   -0.219715   0.006274
    19  O   -0.270341   0.007025
    20  N   -0.292498  -0.041801
    21  H    0.190701   0.010234
    22  H    0.245078  -0.004551
    23  H    0.214388   0.011923
    24  H    0.143404   0.004306
    25  H   -0.060609   0.225813
    26  H    0.158460  -0.001939
    27  H    0.159158   0.000190
    28  H   -0.373500   0.559410
    29  H   -0.380101   0.704605
    30  H    0.199560   0.072990
    31  H    0.158518   0.127986
 Sum of Mulliken charges =  -1.00000   1.00000

 Dipole moment (field-independent basis, Debye):
    X=              4.9266    Y=              1.3483    Z=              4.2463  Tot=              6.6423
 Quadrupole moment (field-independent basis, Debye-Ang):
   XX=           -254.0081   YY=           -143.4982   ZZ=           -149.2290
   XY=              0.9340   XZ=              1.7930   YZ=             -1.6034

 Summary of Natural Population Analysis:

                                       Natural Population
                Natural  -----------------------------------------------
    Atom  No    Charge         Core      Valence    Rydberg      Total
 -----------------------------------------------------------------------
      C    1   -0.14957      0.99952     2.14300    0.00705     3.14957
      C    2   -0.05841      0.99952     2.04967    0.00922     3.05841
      C    3   -0.14279      0.99937     2.12850    0.01492     3.14279
      C    4   -0.07942      0.99952     2.07095    0.00895     3.07942
      C    5   -0.12483      0.99953     2.11690    0.00841     3.12483
      C    6    0.19997      0.99937     1.78770    0.01295     2.80003
      O    7   -0.26759      0.99984     3.25808    0.00968     4.26759
      C    8    0.15052      0.99938     1.83603    0.01408     2.84948
      C    9   -0.11988      0.99946     2.11110    0.00932     3.11988
      C   10    0.06591      0.99947     1.92322    0.01141     2.93409
      C   11    0.04812      0.99946     1.93825    0.01418     2.95188
      C   12   -0.07487      0.99953     2.06756    0.00778     3.07487
      C   13   -0.13333      0.99952     2.12611    0.00770     3.13333
      N   14   -0.25749      0.99971     2.74832    0.00947     3.75749
      C   15    0.13540      0.99965     1.84685    0.01810     2.86460
      N   16   -0.27776      0.99966     2.76764    0.01046     3.77776
      S   17    1.09779      4.99925     1.80201    0.10094     6.90221
      O   18   -0.46844      0.99991     3.46258    0.00595     4.46844
      O   19   -0.46726      0.99991     3.46208    0.00528     4.46726
      N   20   -0.51457      0.99979     3.00363    0.01115     4.01457
      H   21    0.11304      0.00000     0.38597    0.00100     0.38696
      H   22    0.11170      0.00000     0.38735    0.00095     0.38830
      H   23    0.10856      0.00000     0.39028    0.00117     0.39144
      H   24    0.10512      0.00000     0.39362    0.00126     0.39488
      H   25    0.10986      0.00000     0.38907    0.00106     0.39014
      H   26    0.10136      0.00000     0.39755    0.00110     0.39864
      H   27    0.10481      0.00000     0.39441    0.00078     0.39519
      H   28    0.09180      0.00000     0.40685    0.00135     0.40820
      H   29    0.20973      0.00000     0.27645    0.01382     0.29027
      H   30    0.19022      0.00000     0.30774    0.00205     0.30978
      H   31    0.19232      0.00000     0.30485    0.00283     0.30768
 =======================================================================
   * Total *    0.00000     23.99135    50.68430    0.32434    75.00000

 Normal termination of Gaussian 16 at Sun Dec 13 13:53:27 2020.
