 Gaussian 16, Revision A.03,

 -----------------------------------------------------------
 # opt freq B3LYP/6-31G(d) empiricaldispersion=gd3bj scf=xqc
 -----------------------------------------------------------

 ------------------------------
 CID_3261909_JID_10166_neutraal
 ------------------------------
 Symbolic Z-matrix:
 Charge =  0 Multiplicity = 1

 SCF Done:  E(RB3LYP) =  -1197.24576343     A.U. after   16 cycles
 SCF Done:  E(RB3LYP) =  -1197.25055061     A.U. after   13 cycles
 SCF Done:  E(RB3LYP) =  -1197.25261898     A.U. after   15 cycles
 SCF Done:  E(RB3LYP) =  -1197.25394694     A.U. after   15 cycles
 SCF Done:  E(RB3LYP) =  -1197.25574685     A.U. after   15 cycles
 SCF Done:  E(RB3LYP) =  -1197.25657479     A.U. after   13 cycles
 SCF Done:  E(RB3LYP) =  -1197.25680011     A.U. after   12 cycles
 SCF Done:  E(RB3LYP) =  -1197.25698487     A.U. after   12 cycles
 SCF Done:  E(RB3LYP) =  -1197.25726083     A.U. after   12 cycles
 SCF Done:  E(RB3LYP) =  -1197.25713686     A.U. after   12 cycles
 SCF Done:  E(RB3LYP) =  -1197.25901479     A.U. after   10 cycles
 SCF Done:  E(RB3LYP) =  -1197.25901518     A.U. after    9 cycles
 SCF Done:  E(RB3LYP) =  -1197.25901530     A.U. after    7 cycles
 SCF Done:  E(RB3LYP) =  -1197.25901530     A.U. after    6 cycles
 Optimization completed.
    -- Stationary point found.
 Normal termination of Gaussian 16 at Sun Dec 13 14:13:38 2020.

 --------------------------------------------------------------------
 #N Geom=AllCheck Guess=TCheck SCRF=Check GenChk RB3LYP/6-31G(d) Freq
 --------------------------------------------------------------------

 Structure from the checkpoint file:  "JID_10166.chk"
 ------------------------------
 CID_3261909_JID_10166_neutraal
 ------------------------------
 Charge =  0 Multiplicity = 1

 SCF Done:  E(RB3LYP) =  -1197.25901530     A.U. after    1 cycles

  Exact polarizability: 218.947  29.038 162.559  10.925 -23.339 162.259
 Approx polarizability: 359.525  66.743 264.065  25.046 -48.667 299.231

                      1                      2                      3
                      A                      A                      A
 Frequencies --     28.6621                33.4663                43.6469
 Red. masses --      1.9449                 1.6382                 3.7867
 Frc consts  --      0.0009                 0.0011                 0.0043
 IR Inten    --      0.6919                 0.8996                 1.1412

                      4                      5                      6
                      A                      A                      A
 Frequencies --     48.5740                57.1853                68.6369
 Red. masses --      1.1424                 3.7715                 3.9257
 Frc consts  --      0.0016                 0.0073                 0.0109
 IR Inten    --      0.2010                 0.1300                 0.0504

                      7                      8                      9
                      A                      A                      A
 Frequencies --     83.8405               102.5797               177.4979
 Red. masses --      5.1921                 6.9134                 4.5718
 Frc consts  --      0.0215                 0.0429                 0.0849
 IR Inten    --      0.0288                 1.6677                 1.9160

                     10                     11                     12
                      A                      A                      A
 Frequencies --    195.2705               213.8825               233.1884
 Red. masses --      4.7679                 4.1123                 3.6782
 Frc consts  --      0.1071                 0.1108                 0.1178
 IR Inten    --      2.4670                 0.1089                 0.3313

                     13                     14                     15
                      A                      A                      A
 Frequencies --    238.8982               250.2881               280.4209
 Red. masses --      4.3259                 4.3758                 3.4841
 Frc consts  --      0.1455                 0.1615                 0.1614
 IR Inten    --      0.1655                 0.2315                 0.0454

                     16                     17                     18
                      A                      A                      A
 Frequencies --    335.4877               383.4718               404.4861
 Red. masses --      6.8543                 7.3409                 8.1653
 Frc consts  --      0.4545                 0.6360                 0.7871
 IR Inten    --      2.4437                 0.1701                 0.2018

                     19                     20                     21
                      A                      A                      A
 Frequencies --    417.7229               449.6737               460.4591
 Red. masses --      2.9888                 3.4242                 6.2365
 Frc consts  --      0.3073                 0.4079                 0.7791
 IR Inten    --      0.0084                 0.7496                 1.1934

                     22                     23                     24
                      A                      A                      A
 Frequencies --    496.8304               519.4929               524.7475
 Red. masses --      7.2009                 4.7445                 3.2595
 Frc consts  --      1.0473                 0.7544                 0.5288
 IR Inten    --      3.8559                 0.7467                 0.4347

                     25                     26                     27
                      A                      A                      A
 Frequencies --    549.5268               556.1153               586.8251
 Red. masses --      4.2068                 4.5611                 5.6739
 Frc consts  --      0.7485                 0.8311                 1.1512
 IR Inten    --      4.8478                 1.5055                 3.5208

                     28                     29                     30
                      A                      A                      A
 Frequencies --    631.2693               699.1592               703.9028
 Red. masses --      6.5711                 2.7135                 2.1033
 Frc consts  --      1.5428                 0.7815                 0.6140
 IR Inten    --      0.2287                19.7082                11.6772

                     31                     32                     33
                      A                      A                      A
 Frequencies --    712.4543               715.0654               729.0303
 Red. masses --      7.6166                 7.0888                11.4555
 Frc consts  --      2.2778                 2.1356                 3.5872
 IR Inten    --      8.7245                 1.8846                 1.4545

                     34                     35                     36
                      A                      A                      A
 Frequencies --    778.3827               847.1005               856.2872
 Red. masses --      1.8245                 1.2565                 6.5918
 Frc consts  --      0.6513                 0.5312                 2.8477
 IR Inten    --     39.9955                 1.4202                 5.8439

                     37                     38                     39
                      A                      A                      A
 Frequencies --    868.9043               895.3741               915.3226
 Red. masses --      1.3408                 1.3120                 1.3248
 Frc consts  --      0.5964                 0.6197                 0.6540
 IR Inten    --     20.1648                 0.8719                 0.7948

                     40                     41                     42
                      A                      A                      A
 Frequencies --    927.2856               966.1423               969.5606
 Red. masses --      1.4049                 1.3543                 3.6623
 Frc consts  --      0.7117                 0.7448                 2.0284
 IR Inten    --      2.6238                 0.2373                 1.1165

                     43                     44                     45
                      A                      A                      A
 Frequencies --    995.7812              1008.2907              1017.7979
 Red. masses --      1.2668                12.5542                 3.5193
 Frc consts  --      0.7401                 7.5199                 2.1480
 IR Inten    --      0.4341                 3.6907                 4.1132

                     46                     47                     48
                      A                      A                      A
 Frequencies --   1025.3860              1026.1086              1042.9269
 Red. masses --      4.1009                 1.9796                 5.3011
 Frc consts  --      2.5404                 1.2280                 3.3972
 IR Inten    --      4.4044                 1.1946                 5.8726

                     49                     50                     51
                      A                      A                      A
 Frequencies --   1050.1919              1071.6973              1075.7806
 Red. masses --      1.5548                 2.1986                 1.5257
 Frc consts  --      1.0103                 1.4878                 1.0403
 IR Inten    --      0.9200                 2.5091                 9.7321

                     52                     53                     54
                      A                      A                      A
 Frequencies --   1076.7768              1086.5273              1110.6837
 Red. masses --      1.5163                 8.5256                 1.8921
 Frc consts  --      1.0358                 5.9300                 1.3753
 IR Inten    --      4.6179                 7.5390                 6.9012

                     55                     56                     57
                      A                      A                      A
 Frequencies --   1127.4794              1155.0917              1195.6133
 Red. masses --      5.5797                 1.5898                 1.1012
 Frc consts  --      4.1791                 1.2498                 0.9275
 IR Inten    --     21.7782                 0.4625                 0.0203

                     58                     59                     60
                      A                      A                      A
 Frequencies --   1205.0725              1206.5963              1264.9713
 Red. masses --      1.4397                 1.1369                 7.0695
 Frc consts  --      1.2318                 0.9752                 6.6650
 IR Inten    --      0.0554                 1.1228                19.6458

                     61                     62                     63
                      A                      A                      A
 Frequencies --   1290.9140              1320.0068              1323.0502
 Red. masses --      4.1392                 4.6480                 1.7790
 Frc consts  --      4.0640                 4.7717                 1.8347
 IR Inten    --      0.6570                13.9825                 2.1023

                     64                     65                     66
                      A                      A                      A
 Frequencies --   1351.4515              1361.0477              1366.8238
 Red. masses --      1.9620                 3.6959                 2.9401
 Frc consts  --      2.1113                 4.0338                 3.2363
 IR Inten    --      2.4264                 1.2846                 2.1556

                     67                     68                     69
                      A                      A                      A
 Frequencies --   1439.3791              1443.3952              1444.8758
 Red. masses --      1.2666                 1.3559                 4.6487
 Frc consts  --      1.5462                 1.6643                 5.7179
 IR Inten    --      3.5759                 3.3844                31.9874

                     70                     71                     72
                      A                      A                      A
 Frequencies --   1447.8393              1473.8641              1481.6359
 Red. masses --      7.4003                 2.2318                 2.8138
 Frc consts  --      9.1399                 2.8564                 3.6394
 IR Inten    --     34.6007                 0.6775                 6.2065

                     73                     74                     75
                      A                      A                      A
 Frequencies --   1506.6208              1514.7475              1516.4064
 Red. masses --      2.3280                 1.0451                 1.0475
 Frc consts  --      3.1134                 1.4128                 1.4192
 IR Inten    --      5.3794                 5.6842                 3.7763

                     76                     77                     78
                      A                      A                      A
 Frequencies --   1528.4744              1533.8434              1553.6311
 Red. masses --      1.1565                 1.2267                 2.6034
 Frc consts  --      1.5920                 1.7004                 3.7025
 IR Inten    --     12.5485                15.9861                37.1268

                     79                     80                     81
                      A                      A                      A
 Frequencies --   1638.9108              1654.6407              1661.2436
 Red. masses --      5.3674                 6.1241                 5.6546
 Frc consts  --      8.4943                 9.8787                 9.1942
 IR Inten    --     19.1013                 2.2753                25.8991

                     82                     83                     84
                      A                      A                      A
 Frequencies --   1663.1841              3047.3080              3048.8895
 Red. masses --      5.6690                 1.0382                 1.0368
 Frc consts  --      9.2393                 5.6801                 5.6786
 IR Inten    --      6.0003                28.5327                23.4181

                     85                     86                     87
                      A                      A                      A
 Frequencies --   3101.7587              3104.3015              3130.8608
 Red. masses --      1.0997                 1.1007                 1.1017
 Frc consts  --      6.2336                 6.2495                 6.3624
 IR Inten    --     14.9301                17.5678                13.1363

                     88                     89                     90
                      A                      A                      A
 Frequencies --   3132.1294              3174.3156              3192.6770
 Red. masses --      1.1016                 1.0899                 1.0861
 Frc consts  --      6.3671                 6.4708                 6.5225
 IR Inten    --     12.8948                16.2985                 0.6537

                     91                     92                     93
                      A                      A                      A
 Frequencies --   3199.7365              3205.8224              3205.8965
 Red. masses --      1.0911                 1.0899                 1.0909
 Frc consts  --      6.5817                 6.5993                 6.6062
 IR Inten    --      1.8036                11.0677                 0.6625

                     94                     95                     96
                      A                      A                      A
 Frequencies --   3214.2428              3226.4517              3234.0888
 Red. masses --      1.0938                 1.0951                 1.0948
 Frc consts  --      6.6583                 6.7166                 6.7468
 IR Inten    --     16.5584                 2.6106                 1.2227

 - Thermochemistry -
 -------------------
 Temperature   298.150 Kelvin.  Pressure   1.00000 Atm.
 Atom     1 has atomic number  6 and mass  12.00000

 Molecular mass:   282.09392 amu.
 Principal axes and moments of inertia in atomic units:
                           1         2         3
     Eigenvalues --  4053.510555808.025727134.41514
           X            0.99998  -0.00142   0.00613
           Y            0.00185   0.99756  -0.06976
           Z           -0.00602   0.06977   0.99755
 This molecule is an asymmetric top.
 Rotational symmetry number  1.
 Warning -- assumption of classical behavior for rotation
           may cause significant error
 Rotational temperatures (Kelvin)      0.02137     0.01491     0.01214
 Rotational constants (GHZ):           0.44523     0.31073     0.25296
 Zero-point vibrational energy     696426.1 (Joules/Mol)
                                  166.44984 (Kcal/Mol)
 Warning -- explicit consideration of  27 degrees of freedom as
           vibrations may cause significant error
 Vibrational temperatures:     41.24    48.15    62.80    69.89    82.28
          (Kelvin)             98.75   120.63   147.59   255.38   280.95
                              307.73   335.51   343.72   360.11   403.46
                              482.69   551.73   581.97   601.01   646.98
                              662.50   714.83   747.43   754.99   790.65
                              800.13   844.31   908.26  1005.93  1012.76
                             1025.06  1028.82  1048.91  1119.92  1218.79
                             1232.01  1250.16  1288.24  1316.95  1334.16
                             1390.06  1394.98  1432.71  1450.71  1464.38
                             1475.30  1476.34  1500.54  1510.99  1541.93
                             1547.81  1549.24  1563.27  1598.03  1622.19
                             1661.92  1720.22  1733.83  1736.02  1820.01
                             1857.34  1899.20  1903.57  1944.44  1958.24
                             1966.55  2070.95  2076.72  2078.85  2083.12
                             2120.56  2131.74  2167.69  2179.38  2181.77
                             2199.13  2206.86  2235.33  2358.03  2380.66
                             2390.16  2392.95  4384.40  4386.67  4462.74
                             4466.40  4504.61  4506.44  4567.13  4593.55
                             4603.71  4612.46  4612.57  4624.58  4642.14
                             4653.13

 Zero-point correction=                           0.265255 (Hartree/Particle)
 Thermal correction to Energy=                    0.283092
 Thermal correction to Enthalpy=                  0.284036
 Thermal correction to Gibbs Free Energy=         0.217045
 Sum of electronic and zero-point Energies=          -1196.993761
 Sum of electronic and thermal Energies=             -1196.975924
 Sum of electronic and thermal Enthalpies=           -1196.974980
 Sum of electronic and thermal Free Energies=        -1197.041970

                     E (Thermal)             CV                S
                      KCal/Mol        Cal/Mol-Kelvin    Cal/Mol-Kelvin
 Total                  177.643             66.760            140.994
 Electronic               0.000              0.000              0.000
 Translational            0.889              2.981             42.809
 Rotational               0.889              2.981             33.485
 Vibrational            175.865             60.799             64.700
 Vibration     1          0.593              1.984              5.920
 Vibration     2          0.594              1.983              5.613
 Vibration     3          0.595              1.980              5.086
 Vibration     4          0.595              1.978              4.875
 Vibration     5          0.596              1.975              4.552
 Vibration     6          0.598              1.969              4.192
 Vibration     7          0.601              1.960              3.799
 Vibration     8          0.605              1.947              3.405
 Vibration     9          0.628              1.870              2.355
 Vibration    10          0.636              1.846              2.177
 Vibration    11          0.644              1.820              2.010
 Vibration    12          0.654              1.790              1.854
 Vibration    13          0.657              1.781              1.811
 Vibration    14          0.663              1.762              1.729
 Vibration    15          0.680              1.710              1.531
 Vibration    16          0.717              1.605              1.234
 Vibration    17          0.753              1.505              1.025
 Vibration    18          0.770              1.460              0.946
 Vibration    19          0.781              1.432              0.900
 Vibration    20          0.809              1.362              0.797
 Vibration    21          0.818              1.338              0.765
 Vibration    22          0.852              1.257              0.666
 Vibration    23          0.874              1.207              0.611
 Vibration    24          0.880              1.195              0.599
 Vibration    25          0.905              1.141              0.545
 Vibration    26          0.912              1.126              0.532
 Vibration    27          0.944              1.060              0.473

 Optimization completed.
    -- Stationary point found.
 Normal termination of Gaussian 16 at Sun Dec 13 14:37:04 2020.

 ----------------------------------------------------------------------
 # B3LYP/6-311++G(d,p) empiricaldispersion=gd3bj scf=xqc pop=npa geom=c
 heck
 ----------------------------------------------------------------------

 --------------------------------------
 CID_3261909_JID_10166_Energie_neutraal
 --------------------------------------
 Structure from the checkpoint file:  "JID_10166.chk"
 Charge =  0 Multiplicity = 1

 SCF Done:  E(RB3LYP) =  -1197.48507592     A.U. after   16 cycles
 Normal termination of Gaussian 16 at Sun Dec 13 14:47:20 2020.

 ----------------------------------------------------------------------
 # B3LYP/6-311++G(d,p) empiricaldispersion=gd3bj scf=xqc pop=npa geom=c
 heck
 ----------------------------------------------------------------------

 ------------------------------------
 CID_3261909_JID_10166_Energie_kation
 ------------------------------------
 Structure from the checkpoint file:  "JID_10166.chk"
 Charge =  1 Multiplicity = 2

 SCF Done:  E(UB3LYP) =  -1197.17619776     A.U. after   33 cycles
 SCF Done:  E(UB3LYP) =  -1197.17619776     a.u. after    1 cycles
 Normal termination of Gaussian 16 at Sun Dec 13 15:16:33 2020.
 Gaussian 16:  ES64L-G16RevA.03 25-Dec-2016

 ----------------------------------------------------------------------
 # B3LYP/6-311++G(d,p) empiricaldispersion=gd3bj scf=xqc pop=npa geom=c
 heck
 ----------------------------------------------------------------------

 -----------------------------------
 CID_3261909_JID_10166_Energie_anion
 -----------------------------------
 Structure from the checkpoint file:  "JID_10166.chk"
 Charge = -1 Multiplicity = 2

                         Standard orientation:
 ---------------------------------------------------------------------
 Center     Atomic      Atomic             Coordinates (Angstroms)
 Number     Number       Type             X           Y           Z
 ---------------------------------------------------------------------
      1          6           0        1.771137   -2.999339    1.923852
      2          6           0        1.622823   -2.047852    0.761595
      3          6           0        2.691664   -1.227953    0.371081
      4          6           0        2.594616   -0.352556   -0.711163
      5          6           0        1.384724   -0.287627   -1.414989
      6          6           0        0.312939   -1.086788   -1.030423
      7          6           0        0.429123   -1.975887    0.043510
      8         16           0       -1.250307   -0.945794   -1.914818
      9          6           0       -2.280794   -0.503548   -0.558756
     10          7           0       -3.439322   -1.062048   -0.253741
     11          7           0       -3.877714   -0.427076    0.867522
     12          7           0       -3.037314    0.473390    1.261585
     13          7           0       -2.017486    0.465170    0.360871
     14          6           0       -0.893884    1.335920    0.475040
     15          6           0       -0.026133    1.187872    1.554818
     16          6           0        1.097948    2.006373    1.635568
     17          6           0        1.344473    2.959543    0.645253
     18          6           0        0.462603    3.100540   -0.428097
     19          6           0       -0.666640    2.288364   -0.516536
     20          6           0        3.740594    0.549438   -1.096148
     21          1           0        2.408414   -3.852004    1.657830
     22          1           0        2.235344   -2.506114    2.785368
     23          1           0        0.802423   -3.396468    2.241067
     24          1           0        3.622959   -1.272730    0.931836
     25          1           0        1.267785    0.416838   -2.232227
     26          1           0       -0.416707   -2.596560    0.324154
     27          1           0       -0.227797    0.427724    2.300545
     28          1           0        1.784921    1.894203    2.468435
     29          1           0        2.222437    3.595365    0.712294
     30          1           0        0.649676    3.846121   -1.194858
     31          1           0       -1.362224    2.378808   -1.343630
     32          1           0        3.472840    1.601289   -0.939051
     33          1           0        4.634040    0.336761   -0.501704
     34          1           0        4.002483    0.434425   -2.154268
 ---------------------------------------------------------------------

 SCF Done:  E(UB3LYP) =  -1197.48673388     A.U. after   33 cycles
 SCF Done:  E(UB3LYP) =  -1197.48716147     a.u. after    7 cycles

 The electronic state is 2-A.
 Alpha  occ. eigenvalues --  -88.75523 -14.28698 -14.25285 -14.24384 -14.21593
 Alpha  occ. eigenvalues --  -10.14364 -10.09464 -10.08939 -10.08363 -10.07943
 Alpha  occ. eigenvalues --  -10.07905 -10.06757 -10.06736 -10.06725 -10.06305
 Alpha  occ. eigenvalues --  -10.06189 -10.06077 -10.05885 -10.05818 -10.04942
 Alpha  occ. eigenvalues --   -7.84072  -5.80486  -5.80095  -5.79448  -1.01127
 Alpha  occ. eigenvalues --   -0.83292  -0.77894  -0.76144  -0.73786  -0.69077
 Alpha  occ. eigenvalues --   -0.68484  -0.64352  -0.63668  -0.62025  -0.59272
 Alpha  occ. eigenvalues --   -0.58458  -0.54425  -0.52750  -0.49665  -0.49188
 Alpha  occ. eigenvalues --   -0.47642  -0.46430  -0.43011  -0.40194  -0.38263
 Alpha  occ. eigenvalues --   -0.37940  -0.37518  -0.34903  -0.33421  -0.33232
 Alpha  occ. eigenvalues --   -0.32867  -0.32158  -0.31856  -0.31352  -0.30833
 Alpha  occ. eigenvalues --   -0.30383  -0.28941  -0.28299  -0.26882  -0.25872
 Alpha  occ. eigenvalues --   -0.24578  -0.24486  -0.24281  -0.24061  -0.22945
 Alpha  occ. eigenvalues --   -0.20217  -0.19850  -0.17902  -0.17587  -0.16050
 Alpha  occ. eigenvalues --   -0.14672  -0.14033  -0.13642  -0.12345   0.04395
 Alpha virt. eigenvalues --    0.06348   0.07162   0.07337   0.08278   0.08485
 Alpha virt. eigenvalues --    0.08730   0.09500   0.09759   0.10013   0.10540
 Alpha virt. eigenvalues --    0.10754   0.10961   0.11641   0.11812   0.12399

  Beta  occ. eigenvalues --  -88.75514 -14.28658 -14.25102 -14.24333 -14.21615
  Beta  occ. eigenvalues --  -10.14207 -10.09337 -10.08707 -10.08383 -10.07939
  Beta  occ. eigenvalues --  -10.07871 -10.06761 -10.06716 -10.06684 -10.06214
  Beta  occ. eigenvalues --  -10.06206 -10.06021 -10.05873 -10.05756 -10.04695
  Beta  occ. eigenvalues --   -7.84063  -5.80456  -5.80096  -5.79433  -1.00957
  Beta  occ. eigenvalues --   -0.83068  -0.77685  -0.76016  -0.73547  -0.68926
  Beta  occ. eigenvalues --   -0.68408  -0.63987  -0.63468  -0.61898  -0.59163
  Beta  occ. eigenvalues --   -0.58380  -0.54117  -0.52548  -0.49561  -0.48939
  Beta  occ. eigenvalues --   -0.47605  -0.46224  -0.42902  -0.40104  -0.38087
  Beta  occ. eigenvalues --   -0.37727  -0.37273  -0.34742  -0.33332  -0.33058
  Beta  occ. eigenvalues --   -0.32756  -0.32076  -0.31761  -0.31303  -0.30796
  Beta  occ. eigenvalues --   -0.30335  -0.28689  -0.28223  -0.26470  -0.25544
  Beta  occ. eigenvalues --   -0.24481  -0.24236  -0.24180  -0.23880  -0.22661
  Beta  occ. eigenvalues --   -0.19861  -0.19452  -0.17620  -0.17379  -0.15707
  Beta  occ. eigenvalues --   -0.14249  -0.13649  -0.12656  -0.12021
  Beta virt. eigenvalues --    0.06476   0.07387   0.07683   0.08192   0.08454
  Beta virt. eigenvalues --    0.08796   0.08858   0.09788   0.09936   0.10342
  Beta virt. eigenvalues --    0.10692   0.10977   0.11207   0.11753   0.11930

 Mulliken charges and spin densities:
               1          2
     1  C   -0.449169  -0.098708
     2  C    0.250349  -0.198376
     3  C   -0.045776  -0.164443
     4  C   -0.207847   0.780954
     5  C   -0.633752   0.229667
     6  C    0.903692  -0.041796
     7  C   -0.644780  -0.026860
     8  S   -0.173071   0.072551
     9  C   -0.737129   0.064452
    10  N    0.087772  -0.012982
    11  N    0.005907   0.017265
    12  N    0.060632   0.082559
    13  N    0.157000  -0.001135
    14  C   -0.403843   0.114289
    15  C    0.053852   0.219895
    16  C   -0.141507  -0.273806
    17  C   -0.196474   0.030291
    18  C   -0.388325  -0.101871
    19  C    0.208293   0.089073
    20  C    0.105119  -0.800642
    21  H    0.140426   0.005928
    22  H    0.094006   0.054097
    23  H    0.138474  -0.000447
    24  H    0.065235   0.086412
    25  H    0.189594   0.004535
    26  H    0.214259   0.002148
    27  H    0.163936  -0.009423
    28  H   -0.012693   0.172642
    29  H   -0.051353   0.173890
    30  H    0.093532   0.055676
    31  H    0.159946   0.002734
    32  H    0.067745   0.135224
    33  H   -0.154696   0.276889
    34  H    0.080647   0.059318
 Sum of Mulliken charges =  -1.00000   1.00000

 Dipole moment (field-independent basis, Debye):
    X=              4.5622    Y=             -1.4505    Z=             -1.4028  Tot=              4.9885
 Quadrupole moment (field-independent basis, Debye-Ang):
   XX=           -189.0896   YY=           -152.1361   ZZ=           -142.6798
   XY=            -10.7267   XZ=              5.1197   YZ=             -9.1776

 Summary of Natural Population Analysis:

                                       Natural Population
                Natural  -----------------------------------------------
    Atom  No    Charge         Core      Valence    Rydberg      Total
 -----------------------------------------------------------------------
      C    1   -0.29005      0.99964     2.28575    0.00466     3.29005
      C    2   -0.01851      0.99952     2.00993    0.00906     3.01851
      C    3   -0.08625      0.99947     2.07801    0.00877     3.08625
      C    4   -0.00242      0.99951     1.99421    0.00870     3.00242
      C    5   -0.10436      0.99944     2.09382    0.01111     3.10436
      C    6   -0.06160      0.99938     2.04864    0.01358     3.06160
      C    7   -0.10438      0.99944     2.09485    0.01009     3.10438
      S    8    0.14613      4.99946     2.83484    0.01956     7.85387
      C    9    0.12509      0.99954     1.85545    0.01992     2.87491
      N   10   -0.18059      0.99967     2.66662    0.01430     3.68059
      N   11   -0.04905      0.99981     2.53006    0.01919     3.54905
      N   12   -0.01362      0.99978     2.49999    0.01385     3.51362
      N   13   -0.12392      0.99955     2.60455    0.01982     3.62392
      C   14    0.09346      0.99945     1.89353    0.01357     2.90654
      C   15   -0.07849      0.99952     2.07003    0.00895     3.07849
      C   16   -0.10302      0.99957     2.09336    0.01009     3.10302
      C   17   -0.06374      0.99957     2.05399    0.01018     3.06374
      C   18   -0.11194      0.99957     2.10209    0.01028     3.11194
      C   19   -0.08850      0.99952     2.08026    0.00872     3.08850
      C   20   -0.29367      0.99963     2.28816    0.00588     3.29367
      H   21    0.10020      0.00000     0.39891    0.00090     0.39980
      H   22    0.10221      0.00000     0.39695    0.00084     0.39779
      H   23    0.10144      0.00000     0.39782    0.00074     0.39856
      H   24    0.09293      0.00000     0.40581    0.00126     0.40707
      H   25    0.10460      0.00000     0.39434    0.00107     0.39540
      H   26    0.10387      0.00000     0.39503    0.00110     0.39613
      H   27    0.10327      0.00000     0.39513    0.00160     0.39673
      H   28    0.09718      0.00000     0.40192    0.00090     0.40282
      H   29    0.09460      0.00000     0.40456    0.00084     0.40540
      H   30    0.09617      0.00000     0.40306    0.00077     0.40383
      H   31    0.10252      0.00000     0.39652    0.00096     0.39748
      H   32    0.11242      0.00000     0.38639    0.00118     0.38758
      H   33    0.09922      0.00000     0.40004    0.00073     0.40078
      H   34    0.09880      0.00000     0.40046    0.00074     0.40120
 =======================================================================
   * Total *    0.00000     23.99102    49.75508    0.25390    74.00000

 Normal termination of Gaussian 16 at Sun Dec 13 19:14:50 2020.
