 Gaussian 16, Revision A.03,

 -----------------------------------------------------------
 # opt freq B3LYP/6-31G(d) empiricaldispersion=gd3bj scf=xqc
 -----------------------------------------------------------

 -------------------------------
 CID_117295951_JID_5870_neutraal
 -------------------------------
 Symbolic Z-matrix:
 Charge =  0 Multiplicity = 1

 SCF Done:  E(RB3LYP) =  -672.744675251     A.U. after   15 cycles
 SCF Done:  E(RB3LYP) =  -672.748606432     A.U. after   13 cycles
 SCF Done:  E(RB3LYP) =  -672.748470545     A.U. after   13 cycles
 SCF Done:  E(RB3LYP) =  -672.749381950     A.U. after   12 cycles
 SCF Done:  E(RB3LYP) =  -672.749848137     A.U. after   12 cycles
 SCF Done:  E(RB3LYP) =  -672.749930423     A.U. after   11 cycles
 SCF Done:  E(RB3LYP) =  -672.749954813     A.U. after   12 cycles
 SCF Done:  E(RB3LYP) =  -672.749998477     A.U. after   10 cycles
 SCF Done:  E(RB3LYP) =  -672.750048691     A.U. after   11 cycles
 SCF Done:  E(RB3LYP) =  -672.750103407     A.U. after   12 cycles
 SCF Done:  E(RB3LYP) =  -672.750475777     A.U. after   10 cycles
 SCF Done:  E(RB3LYP) =  -672.750478735     A.U. after   10 cycles
 SCF Done:  E(RB3LYP) =  -672.750479622     A.U. after   11 cycles
 SCF Done:  E(RB3LYP) =  -672.750480082     A.U. after   11 cycles
 SCF Done:  E(RB3LYP) =  -672.750481131     A.U. after   10 cycles
 SCF Done:  E(RB3LYP) =  -672.750481154     A.U. after    7 cycles
 Optimization completed.
    -- Stationary point found.
 Normal termination of Gaussian 16 at Thu Dec 10 17:33:57 2020.

 --------------------------------------------------------------------
 #N Geom=AllCheck Guess=TCheck SCRF=Check GenChk RB3LYP/6-31G(d) Freq
 --------------------------------------------------------------------

 Structure from the checkpoint file:  "JID_5870.chk"
 -------------------------------
 CID_117295951_JID_5870_neutraal
 -------------------------------
 Charge =  0 Multiplicity = 1

 SCF Done:  E(RB3LYP) =  -672.750481154     A.U. after    1 cycles

  Exact polarizability: 186.910   3.487 130.901 -21.279   3.453  99.615
 Approx polarizability: 249.308  -6.671 228.056 -42.131  12.994 144.139

                      1                      2                      3
                      A                      A                      A
 Frequencies --     22.2711                36.2321                52.4767
 Red. masses --      4.2609                 3.6730                 5.2888
 Frc consts  --      0.0012                 0.0028                 0.0086
 IR Inten    --      1.9709                 0.8034                 1.5026

                      4                      5                      6
                      A                      A                      A
 Frequencies --     69.2748                89.9756               106.8891
 Red. masses --      3.5317                 3.1405                 2.6699
 Frc consts  --      0.0100                 0.0150                 0.0180
 IR Inten    --      1.9682                 4.8436                 4.7492

                      7                      8                      9
                      A                      A                      A
 Frequencies --    122.3719               142.2084               175.1201
 Red. masses --      3.1721                 3.5136                 1.3386
 Frc consts  --      0.0280                 0.0419                 0.0242
 IR Inten    --      2.6536                 2.0114                 5.3252

                     10                     11                     12
                      A                      A                      A
 Frequencies --    205.4753               223.6962               289.5006
 Red. masses --      3.2803                 2.5485                 3.4180
 Frc consts  --      0.0816                 0.0751                 0.1688
 IR Inten    --      0.0890                15.4399                22.7104

                     13                     14                     15
                      A                      A                      A
 Frequencies --    303.0761               333.3783               353.7991
 Red. masses --      1.3694                 3.8060                 2.8294
 Frc consts  --      0.0741                 0.2492                 0.2087
 IR Inten    --     63.8527                 8.6422                 6.1705

                     16                     17                     18
                      A                      A                      A
 Frequencies --    417.8515               425.1365               431.8269
 Red. masses --      2.9566                 2.3002                 2.7074
 Frc consts  --      0.3041                 0.2449                 0.2975
 IR Inten    --      0.7501                 2.7990                 4.1421

                     19                     20                     21
                      A                      A                      A
 Frequencies --    453.9560               475.6986               562.4835
 Red. masses --      3.7290                 2.3507                 2.9577
 Frc consts  --      0.4528                 0.3134                 0.5513
 IR Inten    --      3.3535                 4.7324                13.3843

                     22                     23                     24
                      A                      A                      A
 Frequencies --    570.2954               653.4869               661.5189
 Red. masses --      3.7652                 6.4906                 3.3083
 Frc consts  --      0.7215                 1.6331                 0.8530
 IR Inten    --     23.0046                 0.1696                 5.9553

                     25                     26                     27
                      A                      A                      A
 Frequencies --    724.3239               777.6394               803.8181
 Red. masses --      3.2618                 2.8426                 4.1260
 Frc consts  --      1.0083                 1.0128                 1.5707
 IR Inten    --     10.4240                10.1993                 2.9483

                     28                     29                     30
                      A                      A                      A
 Frequencies --    843.4279               859.5620               867.4015
 Red. masses --      1.6391                 1.7122                 1.4976
 Frc consts  --      0.6870                 0.7454                 0.6639
 IR Inten    --     12.8887                 4.8739                12.6489

                     31                     32                     33
                      A                      A                      A
 Frequencies --    882.3894               888.8164               913.1824
 Red. masses --      1.6058                 1.8375                 2.1057
 Frc consts  --      0.7366                 0.8553                 1.0346
 IR Inten    --     89.4316                 9.1865                16.2951

                     34                     35                     36
                      A                      A                      A
 Frequencies --    966.7476               973.4543               993.5174
 Red. masses --      2.0856                 1.4829                 1.3897
 Frc consts  --      1.1484                 0.8279                 0.8082
 IR Inten    --      2.4527                 2.6572                 2.2347

                     37                     38                     39
                      A                      A                      A
 Frequencies --   1000.6166              1025.5101              1045.0382
 Red. masses --      2.8540                 2.6300                 2.5526
 Frc consts  --      1.6836                 1.6296                 1.6425
 IR Inten    --     11.5235                32.4347                 2.0108

                     40                     41                     42
                      A                      A                      A
 Frequencies --   1067.4485              1087.6949              1121.5931
 Red. masses --      1.7663                 2.4844                 2.3113
 Frc consts  --      1.1858                 1.7317                 1.7130
 IR Inten    --     14.6343                 9.5949                11.4052

                     43                     44                     45
                      A                      A                      A
 Frequencies --   1148.6637              1157.4856              1177.6635
 Red. masses --      1.5511                 2.6319                 1.2170
 Frc consts  --      1.2058                 2.0776                 0.9944
 IR Inten    --     39.3011                86.2768                 7.2065

                     46                     47                     48
                      A                      A                      A
 Frequencies --   1191.2534              1209.3189              1210.5099
 Red. masses --      1.2570                 1.5218                 1.3865
 Frc consts  --      1.0510                 1.3113                 1.1970
 IR Inten    --      1.8909                82.1909                42.2716

                     49                     50                     51
                      A                      A                      A
 Frequencies --   1224.2811              1241.9334              1257.8990
 Red. masses --      1.1680                 2.3861                 1.5731
 Frc consts  --      1.0315                 2.1684                 1.4665
 IR Inten    --      5.3186                 1.5437                15.3037

                     52                     53                     54
                      A                      A                      A
 Frequencies --   1304.7419              1312.1478              1348.6341
 Red. masses --      2.0370                 1.3345                 1.6042
 Frc consts  --      2.0431                 1.3537                 1.7191
 IR Inten    --    143.5412                 3.8264                 8.6577

                     55                     56                     57
                      A                      A                      A
 Frequencies --   1355.6073              1370.2538              1372.6743
 Red. masses --      1.4248                 1.4603                 2.2900
 Frc consts  --      1.5426                 1.6154                 2.5422
 IR Inten    --     17.8979                16.5489                19.9472

                     58                     59                     60
                      A                      A                      A
 Frequencies --   1384.2553              1420.6551              1435.8494
 Red. masses --      1.4857                 1.2586                 1.3792
 Frc consts  --      1.6773                 1.4967                 1.6753
 IR Inten    --      3.6041                24.6239                14.2946

                     61                     62                     63
                      A                      A                      A
 Frequencies --   1463.2917              1502.6137              1509.3931
 Red. masses --      2.6415                 1.1310                 1.1389
 Frc consts  --      3.3324                 1.5045                 1.5288
 IR Inten    --     18.3950                 1.8513                12.8748

                     64                     65                     66
                      A                      A                      A
 Frequencies --   1511.5472              1518.5149              1533.4480
 Red. masses --      1.1105                 1.0550                 1.0832
 Frc consts  --      1.4949                 1.4333                 1.5007
 IR Inten    --      5.3327                 1.4083                 2.8928

                     67                     68                     69
                      A                      A                      A
 Frequencies --   1539.7096              1541.0103              1559.7114
 Red. masses --      1.0799                 1.0869                 2.3072
 Frc consts  --      1.5084                 1.5208                 3.3069
 IR Inten    --      2.7153                 1.7085                 1.5429

                     70                     71                     72
                      A                      A                      A
 Frequencies --   1622.5423              1667.8547              1701.4692
 Red. masses --      6.1186                 5.6178                 1.0873
 Frc consts  --      9.4907                 9.2073                 1.8546
 IR Inten    --     11.3806                70.6078                33.6699

                     73                     74                     75
                      A                      A                      A
 Frequencies --   1759.9739              2987.6012              3003.4724
 Red. masses --     11.1190                 1.0716                 1.0428
 Frc consts  --     20.2923                 5.6355                 5.5423
 IR Inten    --    164.9268                64.0664                48.8256

                     76                     77                     78
                      A                      A                      A
 Frequencies --   3022.5045              3049.0923              3070.6348
 Red. masses --      1.0575                 1.0637                 1.0987
 Frc consts  --      5.6921                 5.8264                 6.1038
 IR Inten    --     65.6782                18.9835                94.6727

                     79                     80                     81
                      A                      A                      A
 Frequencies --   3070.7500              3078.3291              3089.6524
 Red. masses --      1.1020                 1.0739                 1.0768
 Frc consts  --      6.1224                 5.9956                 6.0563
 IR Inten    --     27.5155                12.4642                39.3934

                     82                     83                     84
                      A                      A                      A
 Frequencies --   3099.4728              3136.2603              3136.4777
 Red. masses --      1.1030                 1.1052                 1.0999
 Frc consts  --      6.2429                 6.4049                 6.3750
 IR Inten    --     23.8581                17.5936                30.7673

                     85                     86                     87
                      A                      A                      A
 Frequencies --   3178.3148              3202.2212              3224.7517
 Red. masses --      1.0893                 1.0893                 1.0917
 Frc consts  --      6.4835                 6.5811                 6.6888
 IR Inten    --     17.4591                 8.1851                 3.7983

                     88                     89                     90
                      A                      A                      A
 Frequencies --   3228.7115              3468.3188              3552.5197
 Red. masses --      1.0925                 1.0501                 1.0924
 Frc consts  --      6.7103                 7.4428                 8.1230
 IR Inten    --      1.7460                 0.5431                 0.2591

 - Thermochemistry -
 -------------------
 Temperature   298.150 Kelvin.  Pressure   1.00000 Atm.
 Atom     1 has atomic number  6 and mass  12.00000

 Molecular mass:   207.12593 amu.
 Principal axes and moments of inertia in atomic units:
                           1         2         3
     Eigenvalues --  1526.096446379.207026695.56306
           X            0.99986   0.01636   0.00448
           Y           -0.01617   0.99903  -0.04091
           Z           -0.00515   0.04083   0.99915
 This molecule is an asymmetric top.
 Rotational symmetry number  1.
 Warning -- assumption of classical behavior for rotation
           may cause significant error
 Rotational temperatures (Kelvin)      0.05676     0.01358     0.01294
 Rotational constants (GHZ):           1.18259     0.28291     0.26954
 Zero-point vibrational energy     724782.5 (Joules/Mol)
                                  173.22718 (Kcal/Mol)
 Warning -- explicit consideration of  22 degrees of freedom as
           vibrations may cause significant error
 Vibrational temperatures:     32.04    52.13    75.50    99.67   129.45
          (Kelvin)            153.79   176.07   204.61   251.96   295.63
                              321.85   416.53   436.06   479.66   509.04
                              601.20   611.68   621.30   653.14   684.42
                              809.29   820.53   940.22   951.78  1042.14
                             1118.85  1156.51  1213.50  1236.72  1248.00
                             1269.56  1278.81  1313.87  1390.93  1400.58
                             1429.45  1439.66  1475.48  1503.58  1535.82
                             1564.95  1613.72  1652.67  1665.36  1694.40
                             1713.95  1739.94  1741.65  1761.47  1786.87
                             1809.84  1877.23  1887.89  1940.38  1950.42
                             1971.49  1974.97  1991.63  2044.01  2065.87
                             2105.35  2161.93  2171.68  2174.78  2184.80
                             2206.29  2215.30  2217.17  2244.08  2334.48
                             2399.67  2448.03  2532.21  4298.49  4321.33
                             4348.71  4386.96  4417.96  4418.12  4429.03
                             4445.32  4459.45  4512.38  4512.69  4572.89
                             4607.28  4639.70  4645.40  4990.14  5111.28

 Zero-point correction=                           0.276055 (Hartree/Particle)
 Thermal correction to Energy=                    0.291542
 Thermal correction to Enthalpy=                  0.292486
 Thermal correction to Gibbs Free Energy=         0.231367
 Sum of electronic and zero-point Energies=           -672.474426
 Sum of electronic and thermal Energies=              -672.458940
 Sum of electronic and thermal Enthalpies=            -672.457995
 Sum of electronic and thermal Free Energies=         -672.519114

                     E (Thermal)             CV                S
                      KCal/Mol        Cal/Mol-Kelvin    Cal/Mol-Kelvin
 Total                  182.945             56.754            128.636
 Electronic               0.000              0.000              0.000
 Translational            0.889              2.981             41.888
 Rotational               0.889              2.981             32.544
 Vibrational            181.168             50.793             54.203
 Vibration     1          0.593              1.985              6.421
 Vibration     2          0.594              1.982              5.455
 Vibration     3          0.596              1.977              4.722
 Vibration     4          0.598              1.969              4.174
 Vibration     5          0.602              1.956              3.661
 Vibration     6          0.606              1.944              3.325
 Vibration     7          0.610              1.930              3.063
 Vibration     8          0.616              1.911              2.774
 Vibration     9          0.627              1.873              2.380
 Vibration    10          0.640              1.832              2.084
 Vibration    11          0.649              1.805              1.929
 Vibration    12          0.686              1.693              1.477
 Vibration    13          0.695              1.668              1.400
 Vibration    14          0.715              1.609              1.244
 Vibration    15          0.730              1.567              1.149
 Vibration    16          0.781              1.431              0.899
 Vibration    17          0.787              1.416              0.875
 Vibration    18          0.793              1.401              0.853
 Vibration    19          0.812              1.352              0.784
 Vibration    20          0.832              1.304              0.722
 Vibration    21          0.918              1.112              0.519
 Vibration    22          0.926              1.096              0.504

 Optimization completed.
    -- Stationary point found.
 Normal termination of Gaussian 16 at Thu Dec 10 17:43:55 2020.

 ----------------------------------------------------------------------
 # B3LYP/6-311++G(d,p) empiricaldispersion=gd3bj scf=xqc pop=npa geom=c
 heck
 ----------------------------------------------------------------------

 ---------------------------------------
 CID_117295951_JID_5870_Energie_neutraal
 ---------------------------------------
 Structure from the checkpoint file:  "JID_5870.chk"
 Charge =  0 Multiplicity = 1

 SCF Done:  E(RB3LYP) =  -672.946296714     A.U. after   15 cycles
 Normal termination of Gaussian 16 at Thu Dec 10 17:47:43 2020.

 ----------------------------------------------------------------------
 # B3LYP/6-311++G(d,p) empiricaldispersion=gd3bj scf=xqc pop=npa geom=c
 heck
 ----------------------------------------------------------------------

 -------------------------------------
 CID_117295951_JID_5870_Energie_kation
 -------------------------------------
 Structure from the checkpoint file:  "JID_5870.chk"
 Charge =  1 Multiplicity = 2

 SCF Done:  E(UB3LYP) =  -672.637206300     A.U. after   31 cycles
 Normal termination of Gaussian 16 at Thu Dec 10 17:59:33 2020.
 Gaussian 16:  ES64L-G16RevA.03 25-Dec-2016

 ----------------------------------------------------------------------
 # B3LYP/6-311++G(d,p) empiricaldispersion=gd3bj scf=xqc pop=npa geom=c
 heck
 ----------------------------------------------------------------------

 ------------------------------------
 CID_117295951_JID_5870_Energie_anion
 ------------------------------------
 Structure from the checkpoint file:  "JID_5870.chk"
 Charge = -1 Multiplicity = 2

                         Standard orientation:
 ---------------------------------------------------------------------
 Center     Atomic      Atomic             Coordinates (Angstroms)
 Number     Number       Type             X           Y           Z
 ---------------------------------------------------------------------
      1          6           0        3.187527   -0.965895    1.807104
      2          8           0        3.768975   -1.123892    0.525392
      3          6           0        4.034207    0.094590   -0.150686
      4          6           0        3.060026    0.308436   -1.321857
      5          6           0        1.626317    0.406424   -0.868341
      6          6           0        1.062367    1.645007   -0.525772
      7          6           0       -0.235878    1.726497   -0.041965
      8          6           0       -1.008738    0.565878    0.127300
      9          6           0       -0.451203   -0.675156   -0.218238
     10          6           0        0.847160   -0.746909   -0.717510
     11          6           0       -2.397651    0.721244    0.653897
     12          8           0       -2.899006    1.832707    0.772149
     13          6           0       -3.221615   -0.506372    1.024952
     14          6           0       -4.162359   -0.924876   -0.119565
     15          7           0       -3.411956   -1.487469   -1.247405
     16          1           0        3.009762   -1.971538    2.197433
     17          1           0        2.231440   -0.427969    1.764642
     18          1           0        3.864415   -0.433888    2.493491
     19          1           0        3.980564    0.946293    0.542305
     20          1           0        5.059389    0.044426   -0.539823
     21          1           0        3.357547    1.221033   -1.854210
     22          1           0        3.178392   -0.530110   -2.017156
     23          1           0        1.652973    2.550671   -0.644222
     24          1           0       -0.682168    2.680967    0.216190
     25          1           0       -1.042707   -1.580281   -0.139591
     26          1           0        1.273584   -1.710844   -0.978108
     27          1           0       -2.598393   -1.357160    1.311809
     28          1           0       -3.833147   -0.213013    1.883794
     29          1           0       -4.831558   -1.707540    0.254655
     30          1           0       -4.789409   -0.055484   -0.378757
     31          1           0       -4.061701   -1.855574   -1.939901
     32          1           0       -2.886001   -0.751435   -1.716959
 ---------------------------------------------------------------------

 SCF Done:  E(UB3LYP) =  -672.956972519     A.U. after   27 cycles

 The electronic state is 2-A.
 Alpha  occ. eigenvalues --  -19.01906 -18.92232 -14.18085 -10.10967 -10.10834
 Alpha  occ. eigenvalues --  -10.07534 -10.06780 -10.05506 -10.03214 -10.03154
 Alpha  occ. eigenvalues --  -10.02965 -10.02802 -10.02448 -10.02040 -10.01764
 Alpha  occ. eigenvalues --   -0.93029  -0.86328  -0.76904  -0.71746  -0.66462
 Alpha  occ. eigenvalues --   -0.62441  -0.60794  -0.60244  -0.56603  -0.51358
 Alpha  occ. eigenvalues --   -0.49551  -0.46308  -0.45177  -0.39953  -0.38482
 Alpha  occ. eigenvalues --   -0.37984  -0.37819  -0.35908  -0.35360  -0.33734
 Alpha  occ. eigenvalues --   -0.32293  -0.31173  -0.29921  -0.29020  -0.27879
 Alpha  occ. eigenvalues --   -0.27423  -0.27069  -0.26637  -0.25812  -0.23564
 Alpha  occ. eigenvalues --   -0.23355  -0.22492  -0.21524  -0.20713  -0.19679
 Alpha  occ. eigenvalues --   -0.19476  -0.15444  -0.13170  -0.11822  -0.10813
 Alpha  occ. eigenvalues --   -0.08508   0.04247
 Alpha virt. eigenvalues --    0.07194   0.07839   0.08726   0.09708   0.09797
 Alpha virt. eigenvalues --    0.09976   0.11456   0.11666   0.11840   0.12088
 Alpha virt. eigenvalues --    0.12423   0.13010   0.13772   0.14015   0.14725

  Beta  occ. eigenvalues --  -19.01907 -18.91728 -14.18077 -10.10923 -10.10834
  Beta  occ. eigenvalues --  -10.07489 -10.06471 -10.05530 -10.03287 -10.03183
  Beta  occ. eigenvalues --  -10.02855 -10.02633 -10.02320 -10.01876 -10.01670
  Beta  occ. eigenvalues --   -0.93027  -0.85411  -0.76865  -0.71432  -0.66257
  Beta  occ. eigenvalues --   -0.62182  -0.60588  -0.60017  -0.56472  -0.51041
  Beta  occ. eigenvalues --   -0.49462  -0.46175  -0.44730  -0.39644  -0.38457
  Beta  occ. eigenvalues --   -0.37888  -0.37702  -0.35767  -0.35294  -0.33598
  Beta  occ. eigenvalues --   -0.32133  -0.31004  -0.29820  -0.28847  -0.27806
  Beta  occ. eigenvalues --   -0.27147  -0.26757  -0.26044  -0.25720  -0.23268
  Beta  occ. eigenvalues --   -0.23075  -0.21962  -0.21456  -0.20471  -0.19391
  Beta  occ. eigenvalues --   -0.17877  -0.15305  -0.13114  -0.11148  -0.09299
  Beta  occ. eigenvalues --   -0.08042
  Beta virt. eigenvalues --    0.07251   0.07615   0.08572   0.09535   0.09712
  Beta virt. eigenvalues --    0.09958   0.10815   0.11398   0.11666   0.11812
  Beta virt. eigenvalues --    0.12026   0.12526   0.12958   0.13699   0.14038

 Mulliken charges and spin densities:
               1          2
     1  C   -0.351634  -0.014934
     2  O   -0.136555   0.004717
     3  C   -0.036634  -0.298187
     4  C   -0.606369   0.062904
     5  C    0.885608   0.266500
     6  C   -0.473371  -0.081007
     7  C   -0.212619   0.133558
     8  C    0.558771   0.143164
     9  C   -0.535016   0.005441
    10  C   -0.440462  -0.128077
    11  C   -0.227596   0.019950
    12  O   -0.388883   0.182910
    13  C   -0.328956   0.253749
    14  C   -0.063345  -0.365287
    15  N   -0.436536   0.014270
    16  H    0.133083  -0.000708
    17  H    0.181525  -0.000791
    18  H    0.097419   0.008699
    19  H    0.115546  -0.008906
    20  H   -0.113147   0.251779
    21  H    0.013645   0.112807
    22  H    0.101912   0.066935
    23  H    0.102142   0.009769
    24  H    0.187519  -0.010339
    25  H    0.179940  -0.009028
    26  H    0.149338  -0.001609
    27  H    0.089343   0.042336
    28  H    0.072504   0.098769
    29  H   -0.089134   0.230803
    30  H    0.164408  -0.028438
    31  H    0.195476   0.031422
    32  H    0.212078   0.006829
 Sum of Mulliken charges =  -1.00000   1.00000

 Dipole moment (field-independent basis, Debye):
    X=              3.1889    Y=             -2.0432    Z=             -0.4483  Tot=              3.8138
 Quadrupole moment (field-independent basis, Debye-Ang):
   XX=           -146.7767   YY=           -115.1827   ZZ=           -101.4688
   XY=             11.9005   XZ=             11.5452   YZ=             -2.8932

 Summary of Natural Population Analysis:

                                       Natural Population
                Natural  -----------------------------------------------
    Atom  No    Charge         Core      Valence    Rydberg      Total
 -----------------------------------------------------------------------
      C    1   -0.09735      0.99962     2.08978    0.00796     3.09735
      O    2   -0.30514      0.99989     3.29522    0.01003     4.30514
      C    3   -0.00033      0.99958     1.98716    0.01359     3.00033
      C    4   -0.20993      0.99960     2.19966    0.01067     3.20993
      C    5    0.03108      0.99950     1.95827    0.01115     2.96892
      C    6   -0.12931      0.99952     2.12205    0.00774     3.12931
      C    7   -0.04675      0.99954     2.03861    0.00861     3.04675
      C    8   -0.06140      0.99947     2.05102    0.01091     3.06140
      C    9   -0.06884      0.99954     2.06063    0.00867     3.06884
      C   10   -0.12449      0.99952     2.11523    0.00973     3.12449
      C   11    0.30506      0.99962     1.67393    0.02138     2.69494
      O   12   -0.25982      0.99988     3.25367    0.00627     4.25982
      C   13   -0.23549      0.99960     2.22520    0.01069     3.23549
      C   14   -0.08289      0.99964     2.07154    0.01170     3.08289
      N   15   -0.42598      0.99977     2.91585    0.01035     3.92598
      H   16    0.08575      0.00000     0.41342    0.00084     0.41425
      H   17    0.09357      0.00000     0.40536    0.00107     0.40643
      H   18    0.07042      0.00000     0.42843    0.00115     0.42958
      H   19    0.07763      0.00000     0.42107    0.00131     0.42237
      H   20    0.08084      0.00000     0.41733    0.00183     0.41916
      H   21    0.09853      0.00000     0.40033    0.00114     0.40147
      H   22    0.10012      0.00000     0.39875    0.00113     0.39988
      H   23    0.08958      0.00000     0.40928    0.00114     0.41042
      H   24    0.10453      0.00000     0.39401    0.00146     0.39547
      H   25    0.10260      0.00000     0.39603    0.00137     0.39740
      H   26    0.09460      0.00000     0.40416    0.00125     0.40540
      H   27    0.09820      0.00000     0.40053    0.00127     0.40180
      H   28    0.10532      0.00000     0.39309    0.00159     0.39468
      H   29    0.08279      0.00000     0.41557    0.00164     0.41721
      H   30    0.08033      0.00000     0.41808    0.00159     0.41967
      H   31    0.16777      0.00000     0.33085    0.00138     0.33223
      H   32    0.17899      0.00000     0.31956    0.00145     0.32101
 =======================================================================
   * Total *    0.00000     14.99428    40.82367    0.18206    56.00000

 Normal termination of Gaussian 16 at Thu Dec 10 18:08:54 2020.
