 Gaussian 16, Revision A.03,

 -----------------------------------------------------------
 # opt freq B3LYP/6-31G(d) empiricaldispersion=gd3bj scf=xqc
 -----------------------------------------------------------

 ------------------------------
 CID_53787474_JID_5982_neutraal
 ------------------------------
 Symbolic Z-matrix:
 Charge =  0 Multiplicity = 1

 SCF Done:  E(RB3LYP) =  -817.645228866     A.U. after   14 cycles
 SCF Done:  E(RB3LYP) =  -817.649590666     A.U. after   12 cycles
 SCF Done:  E(RB3LYP) =  -817.649180988     A.U. after   12 cycles
 SCF Done:  E(RB3LYP) =  -817.650608208     A.U. after   12 cycles
 SCF Done:  E(RB3LYP) =  -817.650566367     A.U. after   12 cycles
 SCF Done:  E(RB3LYP) =  -817.650865858     A.U. after   11 cycles
 SCF Done:  E(RB3LYP) =  -817.650898979     A.U. after   10 cycles
 SCF Done:  E(RB3LYP) =  -817.650898504     A.U. after   11 cycles
 SCF Done:  E(RB3LYP) =  -817.650870408     A.U. after   11 cycles
 SCF Done:  E(RB3LYP) =  -817.650910436     A.U. after   11 cycles
 SCF Done:  E(RB3LYP) =  -817.650919472     A.U. after   10 cycles
 SCF Done:  E(RB3LYP) =  -817.650923590     A.U. after   10 cycles
 SCF Done:  E(RB3LYP) =  -817.650925409     A.U. after   10 cycles
 SCF Done:  E(RB3LYP) =  -817.650925863     A.U. after    8 cycles
 SCF Done:  E(RB3LYP) =  -817.650926010     A.U. after    8 cycles
 Optimization completed.
    -- Stationary point found.
 Normal termination of Gaussian 16 at Thu Dec 10 17:50:48 2020.

 --------------------------------------------------------------------
 #N Geom=AllCheck Guess=TCheck SCRF=Check GenChk RB3LYP/6-31G(d) Freq
 --------------------------------------------------------------------

 Structure from the checkpoint file:  "JID_5982.chk"
 ------------------------------
 CID_53787474_JID_5982_neutraal
 ------------------------------
 Charge =  0 Multiplicity = 1

 SCF Done:  E(RB3LYP) =  -817.650926010     A.U. after    1 cycles

  Exact polarizability: 108.121   0.999 105.758  -2.430   7.094  83.854
 Approx polarizability: 143.717   2.743 160.618  -1.548  18.266 136.898

                      1                      2                      3
                      A                      A                      A
 Frequencies --     31.4890                40.0616                63.8563
 Red. masses --     11.6539                10.0953                 7.5186
 Frc consts  --      0.0068                 0.0095                 0.0181
 IR Inten    --      1.6168                 0.3748                 1.6548

                      4                      5                      6
                      A                      A                      A
 Frequencies --     74.8563               110.4748               128.1608
 Red. masses --      6.9476                 7.2235                 7.8599
 Frc consts  --      0.0229                 0.0519                 0.0761
 IR Inten    --      0.4795                 0.3739                 1.2273

                      7                      8                      9
                      A                      A                      A
 Frequencies --    153.7985               182.9431               274.1437
 Red. masses --      7.0576                 5.3237                 4.5781
 Frc consts  --      0.0984                 0.1050                 0.2027
 IR Inten    --      0.2298                 1.3918                 4.0636

                     10                     11                     12
                      A                      A                      A
 Frequencies --    300.1851               341.8416               347.9627
 Red. masses --      6.7032                 4.1939                 2.9912
 Frc consts  --      0.3559                 0.2887                 0.2134
 IR Inten    --      1.4134                 2.5571                 6.7127

                     13                     14                     15
                      A                      A                      A
 Frequencies --    387.9955               433.7892               462.6875
 Red. masses --      3.1956                 3.6243                 3.5674
 Frc consts  --      0.2834                 0.4018                 0.4500
 IR Inten    --      2.4500                 5.6614                13.4814

                     16                     17                     18
                      A                      A                      A
 Frequencies --    487.6292               527.3362               549.6352
 Red. masses --      3.1140                 3.4628                 2.5632
 Frc consts  --      0.4363                 0.5673                 0.4562
 IR Inten    --     22.5433                 1.9961                15.2072

                     19                     20                     21
                      A                      A                      A
 Frequencies --    555.7765               586.2680               619.4816
 Red. masses --      2.7442                 3.3922                 2.7378
 Frc consts  --      0.4994                 0.6869                 0.6190
 IR Inten    --     59.4145                51.6066                61.5121

                     22                     23                     24
                      A                      A                      A
 Frequencies --    658.2516               675.5591               690.0867
 Red. masses --      1.7160                 1.5674                 1.5975
 Frc consts  --      0.4381                 0.4215                 0.4482
 IR Inten    --     34.0668                21.4385               166.7985

                     25                     26                     27
                      A                      A                      A
 Frequencies --    725.5574               739.9421               759.1785
 Red. masses --      3.0149                 3.2125                 3.2495
 Frc consts  --      0.9351                 1.0363                 1.1034
 IR Inten    --     37.7054                83.0153                31.2561

                     28                     29                     30
                      A                      A                      A
 Frequencies --    796.5676               835.8927               865.9221
 Red. masses --      2.7168                 2.7297                 3.2314
 Frc consts  --      1.0157                 1.1238                 1.4276
 IR Inten    --     31.9049                17.8114                11.0661

                     31                     32                     33
                      A                      A                      A
 Frequencies --    907.9028               934.6000               970.6945
 Red. masses --      2.5177                 3.0992                 2.3034
 Frc consts  --      1.2227                 1.5949                 1.2788
 IR Inten    --      5.3644                23.3004                 7.6437

                     34                     35                     36
                      A                      A                      A
 Frequencies --    990.5895              1067.3790              1069.7642
 Red. masses --      2.5094                 2.1374                 2.4666
 Frc consts  --      1.4508                 1.4348                 1.6631
 IR Inten    --      6.3163                30.7454                15.7133

                     37                     38                     39
                      A                      A                      A
 Frequencies --   1096.4055              1151.3446              1168.3043
 Red. masses --      1.6936                 2.1224                 2.8198
 Frc consts  --      1.1995                 1.6576                 2.2677
 IR Inten    --     20.9814               100.6629               177.6831

                     40                     41                     42
                      A                      A                      A
 Frequencies --   1178.8800              1192.4944              1209.6331
 Red. masses --      2.2685                 2.6511                 2.0417
 Frc consts  --      1.8575                 2.2212                 1.7601
 IR Inten    --    107.7017                59.3510               211.1403

                     43                     44                     45
                      A                      A                      A
 Frequencies --   1231.6957              1270.9700              1286.0266
 Red. masses --      1.2978                 1.5182                 1.3383
 Frc consts  --      1.1600                 1.4449                 1.3040
 IR Inten    --     63.0146                24.8486                 4.4584

                     46                     47                     48
                      A                      A                      A
 Frequencies --   1295.4414              1328.0772              1340.3303
 Red. masses --      1.3066                 1.3495                 1.5959
 Frc consts  --      1.2919                 1.4024                 1.6892
 IR Inten    --      7.9199                10.8307                 6.2159

                     49                     50                     51
                      A                      A                      A
 Frequencies --   1349.0687              1354.5612              1379.7379
 Red. masses --      1.5540                 1.4231                 2.1065
 Frc consts  --      1.6663                 1.5384                 2.3627
 IR Inten    --     13.2557                12.5803                30.5947

                     52                     53                     54
                      A                      A                      A
 Frequencies --   1394.3241              1409.0342              1420.9297
 Red. masses --      2.3102                 1.8499                 1.7345
 Frc consts  --      2.6462                 2.1640                 2.0633
 IR Inten    --     39.0307                 9.9638                13.6826

                     55                     56                     57
                      A                      A                      A
 Frequencies --   1422.2523              1514.4150              1520.5595
 Red. masses --      1.5354                 1.3019                 1.0945
 Frc consts  --      1.8299                 1.7593                 1.4909
 IR Inten    --     19.6559                 7.8308                 5.8852

                     58                     59                     60
                      A                      A                      A
 Frequencies --   1540.7662              1834.5557              1841.7056
 Red. masses --      1.0857                10.1721                10.1665
 Frc consts  --      1.5185                20.1708                20.3172
 IR Inten    --      6.9544               207.7683               312.9156

                     61                     62                     63
                      A                      A                      A
 Frequencies --   1848.8580              3000.1139              3005.1214
 Red. masses --      9.8910                 1.0763                 1.0767
 Frc consts  --     19.9203                 5.7079                 5.7289
 IR Inten    --    236.4334                11.2320                46.9828

                     64                     65                     66
                      A                      A                      A
 Frequencies --   3035.9374              3092.3599              3121.6745
 Red. masses --      1.0833                 1.0837                 1.0605
 Frc consts  --      5.8827                 6.1055                 6.0888
 IR Inten    --     19.1957                 4.0752                 9.0627

                     67                     68                     69
                      A                      A                      A
 Frequencies --   3132.7284              3170.5256              3521.5860
 Red. masses --      1.0915                 1.1054                 1.0741
 Frc consts  --      6.3114                 6.5468                 7.8481
 IR Inten    --     11.9412                 5.5988                 2.4155

                     70                     71                     72
                      A                      A                      A
 Frequencies --   3670.6133              3683.2358              3683.7655
 Red. masses --      1.0641                 1.0640                 1.0639
 Frc consts  --      8.4468                 8.5044                 8.5064
 IR Inten    --     45.1197                43.4389                65.3725

 - Thermochemistry -
 -------------------
 Temperature   298.150 Kelvin.  Pressure   1.00000 Atm.
 Atom     1 has atomic number  6 and mass  12.00000

 Molecular mass:   217.05864 amu.
 Principal axes and moments of inertia in atomic units:
                           1         2         3
     Eigenvalues --  2110.679033600.351684904.87763
           X            0.99999  -0.00441  -0.00238
           Y            0.00444   0.99993   0.01091
           Z            0.00233  -0.01092   0.99994
 This molecule is an asymmetric top.
 Rotational symmetry number  1.
 Warning -- assumption of classical behavior for rotation
           may cause significant error
 Rotational temperatures (Kelvin)      0.04104     0.02406     0.01766
 Rotational constants (GHZ):           0.85505     0.50127     0.36795
 Zero-point vibrational energy     538596.4 (Joules/Mol)
                                  128.72764 (Kcal/Mol)
 Warning -- explicit consideration of  21 degrees of freedom as
           vibrations may cause significant error
 Vibrational temperatures:     45.31    57.64    91.87   107.70   158.95
          (Kelvin)            184.39   221.28   263.21   394.43   431.90
                              491.83   500.64   558.24   624.13   665.70
                              701.59   758.72   790.80   799.64   843.51
                              891.30   947.08   971.98   992.88  1043.92
                             1064.61  1092.29  1146.08  1202.66  1245.87
                             1306.27  1344.68  1396.61  1425.24  1535.72
                             1539.15  1577.48  1656.53  1680.93  1696.15
                             1715.73  1740.39  1772.14  1828.64  1850.31
                             1863.85  1910.81  1928.44  1941.01  1948.91
                             1985.14  2006.12  2027.29  2044.40  2046.30
                             2178.91  2187.75  2216.82  2639.52  2649.80
                             2660.09  4316.49  4323.70  4368.04  4449.22
                             4491.39  4507.30  4561.68  5066.78  5281.19
                             5299.35  5300.12

 Zero-point correction=                           0.205141 (Hartree/Particle)
 Thermal correction to Energy=                    0.218870
 Thermal correction to Enthalpy=                  0.219814
 Thermal correction to Gibbs Free Energy=         0.163118
 Sum of electronic and zero-point Energies=           -817.445785
 Sum of electronic and thermal Energies=              -817.432056
 Sum of electronic and thermal Enthalpies=            -817.431112
 Sum of electronic and thermal Free Energies=         -817.487808

                     E (Thermal)             CV                S
                      KCal/Mol        Cal/Mol-Kelvin    Cal/Mol-Kelvin
 Total                  137.343             51.451            119.327
 Electronic               0.000              0.000              0.000
 Translational            0.889              2.981             42.028
 Rotational               0.889              2.981             31.989
 Vibrational            135.566             45.490             45.310
 Vibration     1          0.594              1.983              5.733
 Vibration     2          0.594              1.981              5.256
 Vibration     3          0.597              1.972              4.334
 Vibration     4          0.599              1.966              4.021
 Vibration     5          0.606              1.941              3.261
 Vibration     6          0.611              1.925              2.973
 Vibration     7          0.619              1.898              2.625
 Vibration     8          0.630              1.863              2.298
 Vibration     9          0.676              1.721              1.570
 Vibration    10          0.693              1.673              1.416
 Vibration    11          0.721              1.592              1.204
 Vibration    12          0.726              1.579              1.175
 Vibration    13          0.756              1.496              1.008
 Vibration    14          0.795              1.397              0.846
 Vibration    15          0.820              1.333              0.758
 Vibration    16          0.844              1.277              0.690
 Vibration    17          0.882              1.189              0.593
 Vibration    18          0.905              1.140              0.545
 Vibration    19          0.911              1.127              0.532
 Vibration    20          0.943              1.061              0.474
 Vibration    21          0.979              0.991              0.417

 Optimization completed.
    -- Stationary point found.
 Normal termination of Gaussian 16 at Thu Dec 10 18:01:38 2020.

 ----------------------------------------------------------------------
 # B3LYP/6-311++G(d,p) empiricaldispersion=gd3bj scf=xqc pop=npa geom=c
 heck
 ----------------------------------------------------------------------

 --------------------------------------
 CID_53787474_JID_5982_Energie_neutraal
 --------------------------------------
 Structure from the checkpoint file:  "JID_5982.chk"
 Charge =  0 Multiplicity = 1

 SCF Done:  E(RB3LYP) =  -817.920543096     A.U. after   14 cycles
 Normal termination of Gaussian 16 at Thu Dec 10 18:05:38 2020.

 ----------------------------------------------------------------------
 # B3LYP/6-311++G(d,p) empiricaldispersion=gd3bj scf=xqc pop=npa geom=c
 heck
 ----------------------------------------------------------------------

 ------------------------------------
 CID_53787474_JID_5982_Energie_kation
 ------------------------------------
 Structure from the checkpoint file:  "JID_5982.chk"
 Charge =  1 Multiplicity = 2

 SCF Done:  E(UB3LYP) =  -817.585715886     A.U. after   28 cycles
 Normal termination of Gaussian 16 at Thu Dec 10 18:13:16 2020.
 Gaussian 16:  ES64L-G16RevA.03 25-Dec-2016

 ----------------------------------------------------------------------
 # B3LYP/6-311++G(d,p) empiricaldispersion=gd3bj scf=xqc pop=npa geom=c
 heck
 ----------------------------------------------------------------------

 -----------------------------------
 CID_53787474_JID_5982_Energie_anion
 -----------------------------------
 Structure from the checkpoint file:  "JID_5982.chk"
 Charge = -1 Multiplicity = 2

                         Standard orientation:
 ---------------------------------------------------------------------
 Center     Atomic      Atomic             Coordinates (Angstroms)
 Number     Number       Type             X           Y           Z
 ---------------------------------------------------------------------
      1          6           0        0.444287    0.719638    0.943345
      2          6           0       -0.355695    0.696393   -0.367205
      3          6           0       -0.779230   -0.730300   -0.762322
      4          6           0        0.457476   -1.637856   -0.790338
      5          7           0        1.109717   -1.610149    0.523164
      6          6           0        1.603351   -0.289048    0.887722
      7          6           0        2.770919    0.158931   -0.005270
      8          8           0        3.440673   -0.587792   -0.685118
      9          8           0        3.024047    1.487255    0.079073
     10          6           0       -1.842963   -1.377050    0.115456
     11          8           0       -2.256427   -2.501049   -0.054695
     12          8           0       -2.309965   -0.579617    1.107428
     13          6           0       -1.536285    1.649147   -0.419487
     14          8           0       -2.488923    1.521444   -1.156565
     15          8           0       -1.393322    2.710216    0.407789
     16          1           0        0.828669    1.721770    1.134766
     17          1           0       -0.207703    0.441327    1.772973
     18          1           0        0.312323    1.048918   -1.169945
     19          1           0       -1.218501   -0.701879   -1.764931
     20          1           0        0.144802   -2.663661   -0.996440
     21          1           0        1.120726   -1.310203   -1.606993
     22          1           0        1.887585   -2.265389    0.518477
     23          1           0        2.033572   -0.355844    1.897046
     24          1           0        3.808519    1.650065   -0.479229
     25          1           0       -2.993320   -1.100918    1.569508
     26          1           0       -2.184508    3.264068    0.267919
 ---------------------------------------------------------------------

 SCF Done:  E(UB3LYP) =  -817.913997495     A.U. after   31 cycles

 The electronic state is 2-A.
 Alpha  occ. eigenvalues --  -19.08050 -19.07251 -19.07020 -19.02364 -19.01788
 Alpha  occ. eigenvalues --  -19.01683 -14.21103 -10.21661 -10.20912 -10.20284
 Alpha  occ. eigenvalues --  -10.12006 -10.10681 -10.10379 -10.10271 -10.07494
 Alpha  occ. eigenvalues --   -1.02159  -1.01323  -1.01149  -0.93131  -0.92409
 Alpha  occ. eigenvalues --   -0.92339  -0.83203  -0.72899  -0.68862  -0.61244
 Alpha  occ. eigenvalues --   -0.57234  -0.55623  -0.52269  -0.50050  -0.46701
 Alpha  occ. eigenvalues --   -0.43824  -0.41324  -0.40362  -0.39923  -0.39292
 Alpha  occ. eigenvalues --   -0.38765  -0.38158  -0.37104  -0.35398  -0.35167
 Alpha  occ. eigenvalues --   -0.33700  -0.32126  -0.32011  -0.31345  -0.30458
 Alpha  occ. eigenvalues --   -0.29436  -0.28483  -0.26492  -0.24834  -0.24247
 Alpha  occ. eigenvalues --   -0.23129  -0.22895  -0.22540  -0.19349  -0.18890
 Alpha  occ. eigenvalues --   -0.18535  -0.14778   0.04059
 Alpha virt. eigenvalues --    0.06221   0.06867   0.07481   0.07962   0.08558
 Alpha virt. eigenvalues --    0.09231   0.10008   0.10658   0.11330   0.11917
 Alpha virt. eigenvalues --    0.12308   0.13044   0.13548   0.15400   0.15560

  Beta  occ. eigenvalues --  -19.08020 -19.07205 -19.06954 -19.02356 -19.01746
  Beta  occ. eigenvalues --  -19.01661 -14.21090 -10.21659 -10.20884 -10.20228
  Beta  occ. eigenvalues --  -10.11989 -10.10674 -10.10374 -10.10251 -10.07473
  Beta  occ. eigenvalues --   -1.02124  -1.01248  -1.01033  -0.93101  -0.92347
  Beta  occ. eigenvalues --   -0.92241  -0.83181  -0.72863  -0.68812  -0.61153
  Beta  occ. eigenvalues --   -0.57186  -0.55499  -0.52192  -0.49951  -0.46628
  Beta  occ. eigenvalues --   -0.43758  -0.41274  -0.40291  -0.39886  -0.39236
  Beta  occ. eigenvalues --   -0.38710  -0.38095  -0.37017  -0.35351  -0.35099
  Beta  occ. eigenvalues --   -0.33593  -0.32076  -0.31977  -0.31292  -0.30407
  Beta  occ. eigenvalues --   -0.29393  -0.28432  -0.26451  -0.24788  -0.24212
  Beta  occ. eigenvalues --   -0.23081  -0.22739  -0.22473  -0.19314  -0.18826
  Beta  occ. eigenvalues --   -0.18486  -0.14719
  Beta virt. eigenvalues --    0.06567   0.07403   0.07590   0.08144   0.08731
  Beta virt. eigenvalues --    0.08910   0.09363   0.10649   0.10805   0.11530
  Beta virt. eigenvalues --    0.12068   0.12485   0.13359   0.13709   0.15440

 Mulliken charges and spin densities:
               1          2
     1  C    0.949910  -1.895075
     2  C    1.517948  -0.869559
     3  C   -0.747770   0.502655
     4  C    0.468594  -0.777449
     5  N   -0.143706   0.027804
     6  C   -0.246958   0.147230
     7  C    0.189407  -0.376678
     8  O   -0.259728   0.013146
     9  O   -0.168689   0.041202
    10  C   -0.450941   0.306856
    11  O   -0.283142   0.006135
    12  O   -0.164635   0.002140
    13  C   -0.382396   0.197527
    14  O   -0.298478   0.023625
    15  O   -0.188293   0.052911
    16  H    0.086711   0.159340
    17  H    0.206599   0.020492
    18  H   -0.219329   0.491702
    19  H    0.181813   0.084073
    20  H    0.176822   0.028258
    21  H    0.154527   0.012755
    22  H    0.181258   0.089878
    23  H   -0.677656   0.929822
    24  H   -0.442846   0.745793
    25  H   -0.062192   0.377260
    26  H   -0.376831   0.658159
 Sum of Mulliken charges =  -1.00000   1.00000

 Dipole moment (field-independent basis, Debye):
    X=             -1.6994    Y=             -3.4524    Z=             -0.9499  Tot=              3.9635
 Quadrupole moment (field-independent basis, Debye-Ang):
   XX=           -151.7407   YY=           -133.2079   ZZ=           -113.7952
   XY=             -4.1964   XZ=             -1.2928   YZ=              0.4879

 Summary of Natural Population Analysis:

                                       Natural Population
                Natural  -----------------------------------------------
    Atom  No    Charge         Core      Valence    Rydberg      Total
 -----------------------------------------------------------------------
      C    1   -0.19459      0.99959     2.18395    0.01105     3.19459
      C    2   -0.15877      0.99952     2.14592    0.01333     3.15877
      C    3   -0.15790      0.99952     2.14673    0.01165     3.15790
      C    4   -0.08512      0.99960     2.07553    0.00999     3.08512
      N    5   -0.33928      0.99974     2.82855    0.01100     3.83928
      C    6   -0.05542      0.99955     2.04068    0.01520     3.05542
      C    7    0.40866      0.99969     1.56542    0.02622     2.59134
      O    8   -0.31220      0.99987     3.30549    0.00684     4.31220
      O    9   -0.34364      0.99988     3.33656    0.00720     4.34364
      C   10    0.41966      0.99968     1.55342    0.02724     2.58034
      O   11   -0.31040      0.99987     3.30453    0.00600     4.31040
      O   12   -0.34353      0.99987     3.33655    0.00710     4.34353
      C   13    0.42206      0.99967     1.55238    0.02589     2.57794
      O   14   -0.31192      0.99987     3.30610    0.00596     4.31192
      O   15   -0.34047      0.99987     3.33400    0.00660     4.34047
      H   16    0.11972      0.00000     0.37805    0.00223     0.38028
      H   17    0.11190      0.00000     0.38602    0.00209     0.38810
      H   18    0.12013      0.00000     0.37801    0.00186     0.37987
      H   19    0.12606      0.00000     0.37295    0.00098     0.37394
      H   20    0.10595      0.00000     0.39296    0.00109     0.39405
      H   21    0.08973      0.00000     0.40880    0.00147     0.41027
      H   22    0.18278      0.00000     0.31488    0.00235     0.31722
      H   23    0.11762      0.00000     0.37987    0.00251     0.38238
      H   24    0.24416      0.00000     0.23940    0.01644     0.25584
      H   25    0.24190      0.00000     0.25330    0.00481     0.25810
      H   26    0.24295      0.00000     0.24714    0.00991     0.25705
 =======================================================================
   * Total *   -0.00000     14.99580    41.76719    0.23701    57.00000

 Normal termination of Gaussian 16 at Thu Dec 10 18:21:00 2020.
