 Gaussian 16, Revision A.03,

 -----------------------------------------------------------
 # opt freq B3LYP/6-31G(d) empiricaldispersion=gd3bj scf=xqc
 -----------------------------------------------------------

 ------------------------------
 CID_63557376_JID_7594_neutraal
 ------------------------------
 Symbolic Z-matrix:
 Charge =  0 Multiplicity = 1

 SCF Done:  E(RB3LYP) =  -786.084232355     A.U. after   15 cycles
 SCF Done:  E(RB3LYP) =  -786.089630185     A.U. after   13 cycles
 SCF Done:  E(RB3LYP) =  -786.089505159     A.U. after   13 cycles
 SCF Done:  E(RB3LYP) =  -786.090992929     A.U. after   12 cycles
 SCF Done:  E(RB3LYP) =  -786.090870055     A.U. after   12 cycles
 SCF Done:  E(RB3LYP) =  -786.091211182     A.U. after   12 cycles
 SCF Done:  E(RB3LYP) =  -786.091251854     A.U. after   11 cycles
 SCF Done:  E(RB3LYP) =  -786.091268697     A.U. after   11 cycles
 SCF Done:  E(RB3LYP) =  -786.091274802     A.U. after    9 cycles
 SCF Done:  E(RB3LYP) =  -786.091278043     A.U. after   10 cycles
 SCF Done:  E(RB3LYP) =  -786.091293916     A.U. after   10 cycles
 SCF Done:  E(RB3LYP) =  -786.091294170     A.U. after   10 cycles
 SCF Done:  E(RB3LYP) =  -786.091293883     A.U. after   10 cycles
 SCF Done:  E(RB3LYP) =  -786.091294364     A.U. after   10 cycles
 SCF Done:  E(RB3LYP) =  -786.091294475     A.U. after    9 cycles
 Optimization completed.
    -- Stationary point found.
 Normal termination of Gaussian 16 at Fri Dec 11 12:59:50 2020.

 --------------------------------------------------------------------
 #N Geom=AllCheck Guess=TCheck SCRF=Check GenChk RB3LYP/6-31G(d) Freq
 --------------------------------------------------------------------

 Structure from the checkpoint file:  "JID_7594.chk"
 ------------------------------
 CID_63557376_JID_7594_neutraal
 ------------------------------
 Charge =  0 Multiplicity = 1

 SCF Done:  E(RB3LYP) =  -786.091294476     A.U. after    1 cycles

  Exact polarizability: 139.183  24.401 148.787   5.786  -4.341 133.519
 Approx polarizability: 179.574  41.480 224.814  17.592 -13.250 237.321

                      1                      2                      3
                      A                      A                      A
 Frequencies --     17.0299                31.3795                50.2034
 Red. masses --      2.3774                 5.0452                 5.1596
 Frc consts  --      0.0004                 0.0029                 0.0077
 IR Inten    --      1.9414                 0.8017                 1.2512

                      4                      5                      6
                      A                      A                      A
 Frequencies --     53.4481                66.0466                80.7793
 Red. masses --      2.6136                 4.5724                 5.0363
 Frc consts  --      0.0044                 0.0118                 0.0194
 IR Inten    --      0.4969                 2.3360                 0.0820

                      7                      8                      9
                      A                      A                      A
 Frequencies --    101.9816               122.7127               149.2547
 Red. masses --      5.5374                 4.7172                 5.7447
 Frc consts  --      0.0339                 0.0419                 0.0754
 IR Inten    --      2.7438                 1.5071                 0.5293

                     10                     11                     12
                      A                      A                      A
 Frequencies --    200.3639               266.2635               278.6109
 Red. masses --      3.2993                 3.2262                 3.1075
 Frc consts  --      0.0780                 0.1348                 0.1421
 IR Inten    --      2.4375                 1.2382                 0.7241

                     13                     14                     15
                      A                      A                      A
 Frequencies --    291.3389               344.7495               427.2432
 Red. masses --      3.6372                 3.2050                 3.0322
 Frc consts  --      0.1819                 0.2244                 0.3261
 IR Inten    --      0.7288                 1.4751                 0.2703

                     16                     17                     18
                      A                      A                      A
 Frequencies --    432.8345               456.3759               472.4101
 Red. masses --      2.6687                 3.3788                 2.8152
 Frc consts  --      0.2946                 0.4146                 0.3702
 IR Inten    --      2.9167                 0.4541                 1.6568

                     19                     20                     21
                      A                      A                      A
 Frequencies --    517.6609               550.8053               581.0558
 Red. masses --      4.1527                 2.9396                 2.9798
 Frc consts  --      0.6556                 0.5255                 0.5927
 IR Inten    --      7.8970                32.6889                19.7512

                     22                     23                     24
                      A                      A                      A
 Frequencies --    622.5489               631.4445               658.1183
 Red. masses --      1.8487                 5.0195                 3.2922
 Frc consts  --      0.4221                 1.1792                 0.8401
 IR Inten    --     67.1430                 1.5673                 3.0733

                     25                     26                     27
                      A                      A                      A
 Frequencies --    685.7718               716.9838               731.6075
 Red. masses --      4.9680                 1.7568                 2.2995
 Frc consts  --      1.3765                 0.5321                 0.7252
 IR Inten    --      5.7460                58.5563                55.8641

                     28                     29                     30
                      A                      A                      A
 Frequencies --    769.5081               798.5660               834.1198
 Red. masses --      3.5835                 2.2650                 1.9526
 Frc consts  --      1.2502                 0.8510                 0.8004
 IR Inten    --     15.9023                13.1710                 4.4228

                     31                     32                     33
                      A                      A                      A
 Frequencies --    844.3547               858.3029               900.8985
 Red. masses --      1.7956                 1.2443                 2.8200
 Frc consts  --      0.7542                 0.5401                 1.3485
 IR Inten    --      3.3259                 0.5330                 6.6074

                     34                     35                     36
                      A                      A                      A
 Frequencies --    922.6559               925.1117               944.8308
 Red. masses --      2.3068                 2.4262                 1.9352
 Frc consts  --      1.1570                 1.2234                 1.0179
 IR Inten    --     14.8172                 9.8597                 1.7525

                     37                     38                     39
                      A                      A                      A
 Frequencies --    971.7267               975.0980               992.6097
 Red. masses --      1.3394                 1.2714                 1.2420
 Frc consts  --      0.7452                 0.7122                 0.7210
 IR Inten    --      0.1925                 2.9715                 0.0814

                     40                     41                     42
                      A                      A                      A
 Frequencies --   1002.6840              1021.2029              1024.9839
 Red. masses --      2.6060                 2.3227                 5.5360
 Frc consts  --      1.5437                 1.4271                 3.4267
 IR Inten    --     17.2829                15.7615                 0.8139

                     43                     44                     45
                      A                      A                      A
 Frequencies --   1052.3004              1061.1127              1088.8360
 Red. masses --      2.9647                 2.1670                 3.0792
 Frc consts  --      1.9342                 1.4376                 2.1509
 IR Inten    --      0.5624                 2.5701                38.0144

                     46                     47                     48
                      A                      A                      A
 Frequencies --   1103.2828              1110.9546              1125.4882
 Red. masses --      2.9951                 1.6125                 5.0166
 Frc consts  --      2.1480                 1.1726                 3.7441
 IR Inten    --      3.5430                 6.3586                69.4658

                     49                     50                     51
                      A                      A                      A
 Frequencies --   1148.4996              1171.6901              1191.8586
 Red. masses --      2.2647                 2.0059                 1.1427
 Frc consts  --      1.7601                 1.6225                 0.9564
 IR Inten    --    139.2535                50.7346                 4.3330

                     52                     53                     54
                      A                      A                      A
 Frequencies --   1196.5473              1208.3080              1225.3107
 Red. masses --      2.4774                 1.1429                 1.3357
 Frc consts  --      2.0898                 0.9831                 1.1816
 IR Inten    --     53.4523                 3.2182                 8.4042

                     55                     56                     57
                      A                      A                      A
 Frequencies --   1240.0319              1251.4318              1254.0123
 Red. masses --      1.2016                 1.3876                 1.7276
 Frc consts  --      1.0886                 1.2803                 1.6007
 IR Inten    --      4.1046                70.0571                 7.6166

                     58                     59                     60
                      A                      A                      A
 Frequencies --   1279.8523              1311.4408              1317.0363
 Red. masses --      1.3733                 1.3957                 1.4228
 Frc consts  --      1.3253                 1.4143                 1.4541
 IR Inten    --      7.1686                 8.7808                13.7225

                     61                     62                     63
                      A                      A                      A
 Frequencies --   1336.6764              1340.4891              1355.6792
 Red. masses --      1.8171                 1.5999                 1.4018
 Frc consts  --      1.9129                 1.6939                 1.5179
 IR Inten    --      0.4558                 2.6114                36.9257

                     64                     65                     66
                      A                      A                      A
 Frequencies --   1363.7708              1378.8535              1398.6829
 Red. masses --      2.1278                 1.2824                 1.3409
 Frc consts  --      2.3316                 1.4365                 1.5455
 IR Inten    --      3.7530                 6.7925                40.8590

                     67                     68                     69
                      A                      A                      A
 Frequencies --   1420.2716              1422.3917              1452.1911
 Red. masses --      1.4033                 1.9514                 1.4045
 Frc consts  --      1.6678                 2.3261                 1.7451
 IR Inten    --      6.2111                43.1800                 3.7116

                     70                     71                     72
                      A                      A                      A
 Frequencies --   1494.9100              1497.6753              1525.4551
 Red. masses --      1.2343                 1.9548                 1.0934
 Frc consts  --      1.6252                 2.5834                 1.4992
 IR Inten    --      9.6182                 5.5347                 2.1904

                     73                     74                     75
                      A                      A                      A
 Frequencies --   1540.9526              1547.8118              1549.3878
 Red. masses --      1.2073                 1.8469                 1.0997
 Frc consts  --      1.6890                 2.6069                 1.5554
 IR Inten    --      8.9920                28.7693                 4.9466

                     76                     77                     78
                      A                      A                      A
 Frequencies --   1564.6708              1641.1596              1661.3556
 Red. masses --      1.0995                 5.5429                 5.6449
 Frc consts  --      1.5860                 8.7960                 9.1798
 IR Inten    --      0.6137                 3.7510                14.0712

                     79                     80                     81
                      A                      A                      A
 Frequencies --   1838.5225              2998.5103              3019.7274
 Red. masses --      9.4317                 1.0705                 1.0678
 Frc consts  --     18.7835                 5.6707                 5.7371
 IR Inten    --    193.5159                31.6708                53.2870

                     82                     83                     84
                      A                      A                      A
 Frequencies --   3034.7074              3052.9592              3067.9433
 Red. masses --      1.0631                 1.0840                 1.0680
 Frc consts  --      5.7685                 5.9530                 5.9228
 IR Inten    --     73.9303                29.6799                 7.1368

                     85                     86                     87
                      A                      A                      A
 Frequencies --   3071.5868              3080.5456              3087.3018
 Red. masses --      1.1028                 1.0622                 1.0880
 Frc consts  --      6.1301                 5.9388                 6.1098
 IR Inten    --     29.8383                15.4256                46.4407

                     88                     89                     90
                      A                      A                      A
 Frequencies --   3114.0866              3127.9858              3145.2055
 Red. masses --      1.0973                 1.1065                 1.0981
 Frc consts  --      6.2698                 6.3788                 6.4000
 IR Inten    --     36.0220                41.6686                 7.4606

                     91                     92                     93
                      A                      A                      A
 Frequencies --   3184.2992              3194.0655              3204.8126
 Red. masses --      1.0850                 1.0890                 1.0927
 Frc consts  --      6.4822                 6.5456                 6.6124
 IR Inten    --      0.1819                10.4084                31.7531

                     94                     95                     96
                      A                      A                      A
 Frequencies --   3213.7923              3223.4817              3682.8653
 Red. masses --      1.0960                 1.0935                 1.0637
 Frc consts  --      6.6694                 6.6946                 8.5006
 IR Inten    --     15.8309                 3.1304                36.6427

 - Thermochemistry -
 -------------------
 Temperature   298.150 Kelvin.  Pressure   1.00000 Atm.
 Atom     1 has atomic number  6 and mass  12.00000

 Molecular mass:   235.12084 amu.
 Principal axes and moments of inertia in atomic units:
                           1         2         3
     Eigenvalues --  2498.382935146.223096289.66493
           X            0.99981   0.01765  -0.00869
           Y           -0.01762   0.99984   0.00332
           Z            0.00875  -0.00317   0.99996
 This molecule is an asymmetric top.
 Rotational symmetry number  1.
 Warning -- assumption of classical behavior for rotation
           may cause significant error
 Rotational temperatures (Kelvin)      0.03467     0.01683     0.01377
 Rotational constants (GHZ):           0.72236     0.35069     0.28694
 Zero-point vibrational energy     756628.8 (Joules/Mol)
                                  180.83862 (Kcal/Mol)
 Warning -- explicit consideration of  21 degrees of freedom as
           vibrations may cause significant error
 Vibrational temperatures:     24.50    45.15    72.23    76.90    95.03
          (Kelvin)            116.22   146.73   176.56   214.74   288.28
                              383.09   400.86   419.17   496.02   614.71
                              622.75   656.62   679.69   744.80   792.49
                              836.01   895.71   908.51   946.89   986.67
                             1031.58  1052.62  1107.15  1148.96  1200.11
                             1214.84  1234.91  1296.19  1327.50  1331.03
                             1359.40  1398.10  1402.95  1428.14  1442.64
                             1469.28  1474.72  1514.03  1526.70  1566.59
                             1587.38  1598.42  1619.33  1652.43  1685.80
                             1714.82  1721.56  1738.49  1762.95  1784.13
                             1800.53  1804.24  1841.42  1886.87  1894.92
                             1923.18  1928.66  1950.52  1962.16  1983.86
                             2012.39  2043.45  2046.50  2089.38  2150.84
                             2154.82  2194.79  2217.09  2226.96  2229.22
                             2251.21  2361.26  2390.32  2645.22  4314.19
                             4344.71  4366.27  4392.53  4414.09  4419.33
                             4432.22  4441.94  4480.48  4500.47  4525.25
                             4581.50  4595.55  4611.01  4623.93  4637.87
                             5298.82

 Zero-point correction=                           0.288185 (Hartree/Particle)
 Thermal correction to Energy=                    0.303987
 Thermal correction to Enthalpy=                  0.304931
 Thermal correction to Gibbs Free Energy=         0.241972
 Sum of electronic and zero-point Energies=           -785.803110
 Sum of electronic and thermal Energies=              -785.787308
 Sum of electronic and thermal Enthalpies=            -785.786363
 Sum of electronic and thermal Free Energies=         -785.849323

                     E (Thermal)             CV                S
                      KCal/Mol        Cal/Mol-Kelvin    Cal/Mol-Kelvin
 Total                  190.755             59.147            132.509
 Electronic               0.000              0.000              0.000
 Translational            0.889              2.981             42.266
 Rotational               0.889              2.981             32.758
 Vibrational            188.977             53.185             57.484
 Vibration     1          0.593              1.986              6.953
 Vibration     2          0.594              1.983              5.740
 Vibration     3          0.595              1.978              4.809
 Vibration     4          0.596              1.976              4.686
 Vibration     5          0.597              1.970              4.268
 Vibration     6          0.600              1.962              3.872
 Vibration     7          0.604              1.948              3.416
 Vibration     8          0.610              1.930              3.057
 Vibration     9          0.618              1.903              2.682
 Vibration    10          0.638              1.839              2.130
 Vibration    11          0.672              1.735              1.620
 Vibration    12          0.679              1.713              1.542
 Vibration    13          0.687              1.690              1.466
 Vibration    14          0.723              1.586              1.190
 Vibration    15          0.789              1.411              0.868
 Vibration    16          0.794              1.399              0.849
 Vibration    17          0.815              1.347              0.777
 Vibration    18          0.829              1.311              0.731
 Vibration    19          0.873              1.211              0.615
 Vibration    20          0.906              1.138              0.543
 Vibration    21          0.938              1.072              0.483

                           ! Non-Optimized Parameters !
 Normal termination of Gaussian 16 at Fri Dec 11 13:15:16 2020.

 ----------------------------------------------------------------------
 # B3LYP/6-311++G(d,p) empiricaldispersion=gd3bj scf=xqc pop=npa geom=c
 heck
 ----------------------------------------------------------------------

 --------------------------------------
 CID_63557376_JID_7594_Energie_neutraal
 --------------------------------------
 Structure from the checkpoint file:  "JID_7594.chk"
 Charge =  0 Multiplicity = 1

 SCF Done:  E(RB3LYP) =  -786.318755291     A.U. after   16 cycles
 Normal termination of Gaussian 16 at Fri Dec 11 13:23:02 2020.

 ----------------------------------------------------------------------
 # B3LYP/6-311++G(d,p) empiricaldispersion=gd3bj scf=xqc pop=npa geom=c
 heck
 ----------------------------------------------------------------------

 ------------------------------------
 CID_63557376_JID_7594_Energie_kation
 ------------------------------------
 Structure from the checkpoint file:  "JID_7594.chk"
 Charge =  1 Multiplicity = 2

 SCF Done:  E(UB3LYP) =  -786.029032452     A.U. after   24 cycles
 Normal termination of Gaussian 16 at Fri Dec 11 13:39:53 2020.
 Gaussian 16:  ES64L-G16RevA.03 25-Dec-2016

 ----------------------------------------------------------------------
 # B3LYP/6-311++G(d,p) empiricaldispersion=gd3bj scf=xqc pop=npa geom=c
 heck
 ----------------------------------------------------------------------

 -----------------------------------
 CID_63557376_JID_7594_Energie_anion
 -----------------------------------
 Structure from the checkpoint file:  "JID_7594.chk"
 Charge = -1 Multiplicity = 2

                         Standard orientation:
 ---------------------------------------------------------------------
 Center     Atomic      Atomic             Coordinates (Angstroms)
 Number     Number       Type             X           Y           Z
 ---------------------------------------------------------------------
      1          6           0       -2.440582   -0.648832    1.126472
      2          6           0       -3.899329   -0.207354    0.911437
      3          8           0       -4.012676    0.232851   -0.452448
      4          6           0       -2.712145    0.323859   -1.016630
      5          6           0       -1.911514   -0.783300   -0.320821
      6          7           0       -0.465640   -0.740345   -0.543123
      7          6           0        0.219510   -1.968714   -0.139957
      8          6           0        1.618267   -2.080611   -0.767008
      9          6           0        2.677175   -1.334450    0.016161
     10          8           0        2.890475   -1.481810    1.200854
     11          8           0        3.393200   -0.487185   -0.756444
     12          6           0        0.196103    0.482271   -0.182236
     13          6           0        0.394726    1.445572   -1.178554
     14          6           0        1.047799    2.642309   -0.891339
     15          6           0        1.529105    2.884148    0.396971
     16          6           0        1.344199    1.925956    1.393947
     17          6           0        0.673437    0.735782    1.110667
     18          1           0       -1.872640    0.127339    1.648831
     19          1           0       -2.358300   -1.575576    1.701650
     20          1           0       -4.609416   -1.030662    1.052410
     21          1           0       -4.186420    0.607247    1.589716
     22          1           0       -2.263547    1.310453   -0.827768
     23          1           0       -2.795274    0.178404   -2.097407
     24          1           0       -2.256015   -1.739978   -0.731946
     25          1           0        0.310287   -2.096887    0.950899
     26          1           0       -0.390956   -2.800132   -0.507501
     27          1           0        1.918140   -3.135371   -0.753873
     28          1           0        1.592239   -1.740602   -1.804262
     29          1           0        4.021523   -0.042105   -0.156844
     30          1           0        0.040877    1.228565   -2.181568
     31          1           0        1.195443    3.378469   -1.676462
     32          1           0        2.049053    3.811392    0.620663
     33          1           0        1.720788    2.102490    2.397571
     34          1           0        0.555193   -0.011295    1.887402
 ---------------------------------------------------------------------

 SCF Done:  E(UB3LYP) =  -786.307105692     A.U. after   33 cycles
 SCF Done:  E(UB3LYP) =  -786.307105692     a.u. after    1 cycles

 The electronic state is 2-A.
 Alpha  occ. eigenvalues --  -19.07389 -19.03011 -19.01495 -14.22002 -10.20687
 Alpha  occ. eigenvalues --  -10.12578 -10.11952 -10.11323 -10.11157 -10.10792
 Alpha  occ. eigenvalues --  -10.08741 -10.08338 -10.08282 -10.08156 -10.08055
 Alpha  occ. eigenvalues --  -10.07970 -10.07649  -1.01314  -0.94722  -0.92270
 Alpha  occ. eigenvalues --   -0.84618  -0.75774  -0.69830  -0.67515  -0.65676
 Alpha  occ. eigenvalues --   -0.65148  -0.63325  -0.56739  -0.52499  -0.52159
 Alpha  occ. eigenvalues --   -0.50298  -0.49622  -0.47528  -0.42902  -0.41963
 Alpha  occ. eigenvalues --   -0.41034  -0.40662  -0.39038  -0.37930  -0.36971
 Alpha  occ. eigenvalues --   -0.36608  -0.35517  -0.34767  -0.33508  -0.33114
 Alpha  occ. eigenvalues --   -0.32579  -0.31217  -0.30541  -0.29325  -0.28564
 Alpha  occ. eigenvalues --   -0.27974  -0.27394  -0.26246  -0.26049  -0.25634
 Alpha  occ. eigenvalues --   -0.24171  -0.22923  -0.22803  -0.18669  -0.17465
 Alpha  occ. eigenvalues --   -0.16341  -0.15764  -0.12515   0.04115
 Alpha virt. eigenvalues --    0.05819   0.06561   0.07075   0.07306   0.07659
 Alpha virt. eigenvalues --    0.08097   0.08646   0.08854   0.09035   0.10127
 Alpha virt. eigenvalues --    0.10383   0.10678   0.10800   0.11909   0.11978

  Beta  occ. eigenvalues --  -19.07360 -19.03011 -19.01476 -14.22000 -10.20647
  Beta  occ. eigenvalues --  -10.12566 -10.11944 -10.11310 -10.11143 -10.10766
  Beta  occ. eigenvalues --  -10.08721 -10.08329 -10.08268 -10.08131 -10.08047
  Beta  occ. eigenvalues --  -10.07965 -10.07633  -1.01253  -0.94717  -0.92224
  Beta  occ. eigenvalues --   -0.84596  -0.75744  -0.69788  -0.67474  -0.65644
  Beta  occ. eigenvalues --   -0.65119  -0.63281  -0.56667  -0.52458  -0.52126
  Beta  occ. eigenvalues --   -0.50261  -0.49563  -0.47479  -0.42863  -0.41933
  Beta  occ. eigenvalues --   -0.40996  -0.40603  -0.39002  -0.37882  -0.36905
  Beta  occ. eigenvalues --   -0.36562  -0.35479  -0.34738  -0.33474  -0.33089
  Beta  occ. eigenvalues --   -0.32551  -0.31182  -0.30501  -0.29283  -0.28523
  Beta  occ. eigenvalues --   -0.27937  -0.27348  -0.26210  -0.26006  -0.25605
  Beta  occ. eigenvalues --   -0.24144  -0.22886  -0.22739  -0.18641  -0.17435
  Beta  occ. eigenvalues --   -0.16292  -0.15734  -0.12485
  Beta virt. eigenvalues --    0.06249   0.06863   0.07019   0.07391   0.07665
  Beta virt. eigenvalues --    0.07869   0.08661   0.09032   0.09275   0.09385
  Beta virt. eigenvalues --    0.10394   0.10628   0.10959   0.11314   0.11955

 Mulliken charges and spin densities:
               1          2
     1  C    0.800669  -0.772178
     2  C   -0.227843  -0.293282
     3  O   -0.148945   0.013288
     4  C   -0.112863  -0.433699
     5  C   -0.923479   0.833613
     6  N    0.631483  -0.104674
     7  C   -0.039502  -0.046131
     8  C    0.994058  -1.287837
     9  C    0.015364  -0.243620
    10  O   -0.259669   0.048773
    11  O   -0.060699   0.016938
    12  C   -0.696920   0.381082
    13  C   -0.423851   0.507960
    14  C    0.211781  -0.563216
    15  C    1.732208  -2.038880
    16  C   -0.248473  -0.321853
    17  C   -0.678107   0.647317
    18  H    0.146715  -0.012288
    19  H   -0.157377   0.313266
    20  H   -0.075952   0.242946
    21  H    0.021751   0.122227
    22  H    0.210279  -0.037226
    23  H    0.021571   0.186866
    24  H   -0.072053   0.258934
    25  H    0.300273  -0.137822
    26  H   -0.749679   0.916895
    27  H   -0.328870   0.540969
    28  H    0.213009  -0.007918
    29  H   -0.084825   0.366644
    30  H   -0.009557   0.166602
    31  H   -0.427959   0.612342
    32  H   -0.426031   0.594045
    33  H   -0.269744   0.445519
    34  H    0.123238   0.084398
 Sum of Mulliken charges =  -1.00000   1.00000

 Dipole moment (field-independent basis, Debye):
    X=             -1.7033    Y=              1.0375    Z=              0.1536  Tot=              2.0003
 Quadrupole moment (field-independent basis, Debye-Ang):
   XX=           -168.3181   YY=           -165.1851   ZZ=           -133.1511
   XY=             -7.8762   XZ=             -4.4157   YZ=              0.3289

 Summary of Natural Population Analysis:

                                       Natural Population
                Natural  -----------------------------------------------
    Atom  No    Charge         Core      Valence    Rydberg      Total
 -----------------------------------------------------------------------
      C    1   -0.21983      0.99961     2.21198    0.00824     3.21983
      C    2   -0.00756      0.99961     1.99785    0.01010     3.00756
      O    3   -0.30370      0.99990     3.29539    0.00841     4.30370
      C    4   -0.00959      0.99956     1.99842    0.01160     3.00959
      C    5   -0.00844      0.99956     1.99555    0.01334     3.00844
      N    6   -0.28604      0.99967     2.77069    0.01569     3.78604
      C    7   -0.07767      0.99960     2.06614    0.01193     3.07767
      C    8   -0.24239      0.99956     2.23396    0.00887     3.24239
      C    9    0.41054      0.99972     1.56330    0.02644     2.58946
      O   10   -0.31259      0.99987     3.30669    0.00604     4.31259
      O   11   -0.34068      0.99987     3.33422    0.00659     4.34068
      C   12    0.07721      0.99945     1.90857    0.01476     2.92279
      C   13   -0.09962      0.99949     2.08933    0.01079     3.09962
      C   14   -0.09906      0.99956     2.08899    0.01052     3.09906
      C   15   -0.10079      0.99956     2.09083    0.01041     3.10079
      C   16   -0.09886      0.99956     2.08864    0.01066     3.09886
      C   17   -0.11242      0.99949     2.10308    0.00985     3.11242
      H   18    0.10279      0.00000     0.39558    0.00163     0.39721
      H   19    0.10591      0.00000     0.39283    0.00127     0.39409
      H   20    0.08459      0.00000     0.41384    0.00156     0.41541
      H   21    0.08062      0.00000     0.41797    0.00141     0.41938
      H   22    0.08356      0.00000     0.41486    0.00158     0.41644
      H   23    0.09135      0.00000     0.40718    0.00148     0.40865
      H   24    0.09925      0.00000     0.39890    0.00185     0.40075
      H   25    0.08918      0.00000     0.40867    0.00215     0.41082
      H   26    0.10273      0.00000     0.39481    0.00246     0.39727
      H   27    0.11938      0.00000     0.37888    0.00175     0.38062
      H   28    0.11223      0.00000     0.38607    0.00170     0.38777
      H   29    0.24085      0.00000     0.25517    0.00398     0.25915
      H   30    0.10455      0.00000     0.39354    0.00191     0.39545
      H   31    0.10192      0.00000     0.39698    0.00110     0.39808
      H   32    0.10253      0.00000     0.39594    0.00153     0.39747
      H   33    0.10185      0.00000     0.39717    0.00098     0.39815
      H   34    0.10823      0.00000     0.39008    0.00170     0.39177
 =======================================================================
   * Total *    0.00000     16.99364    45.78207    0.22429    63.00000

 Normal termination of Gaussian 16 at Fri Dec 11 14:02:53 2020.
