 Gaussian 16, Revision A.03,

 -----------------------------------------------------------
 # opt freq B3LYP/6-31G(d) empiricaldispersion=gd3bj scf=xqc
 -----------------------------------------------------------

 ------------------------------
 CID_23088725_JID_3612_neutraal
 ------------------------------
 Symbolic Z-matrix:
 Charge =  0 Multiplicity = 1

 SCF Done:  E(RB3LYP) =  -643.554569797     A.U. after   15 cycles
 SCF Done:  E(RB3LYP) =  -643.559928463     A.U. after   16 cycles
 SCF Done:  E(RB3LYP) =  -643.559694326     A.U. after   16 cycles
 SCF Done:  E(RB3LYP) =  -643.558870843     A.U. after   14 cycles
 SCF Done:  E(RB3LYP) =  -643.558989651     A.U. after   13 cycles
 SCF Done:  E(RB3LYP) =  -643.560311322     A.U. after   10 cycles
 SCF Done:  E(RB3LYP) =  -643.560857141     A.U. after   14 cycles
 SCF Done:  E(RB3LYP) =  -643.561089957     A.U. after   13 cycles
 SCF Done:  E(RB3LYP) =  -643.561307274     A.U. after   13 cycles
 SCF Done:  E(RB3LYP) =  -643.561461976     A.U. after   12 cycles
 SCF Done:  E(RB3LYP) =  -643.561644361     A.U. after   10 cycles
 SCF Done:  E(RB3LYP) =  -643.561645458     A.U. after   10 cycles
 SCF Done:  E(RB3LYP) =  -643.561646559     A.U. after   10 cycles
 SCF Done:  E(RB3LYP) =  -643.561647672     A.U. after   10 cycles
 SCF Done:  E(RB3LYP) =  -643.561647894     A.U. after    8 cycles
 SCF Done:  E(RB3LYP) =  -643.561647930     A.U. after    8 cycles
 Optimization completed.
    -- Stationary point found.
 Normal termination of Gaussian 16 at Wed Dec  9 23:49:14 2020.

 --------------------------------------------------------------------
 #N Geom=AllCheck Guess=TCheck SCRF=Check GenChk RB3LYP/6-31G(d) Freq
 --------------------------------------------------------------------

 Structure from the checkpoint file:  "JID_3612.chk"
 ------------------------------
 CID_23088725_JID_3612_neutraal
 ------------------------------
 Charge =  0 Multiplicity = 1

 SCF Done:  E(RB3LYP) =  -643.561647930     A.U. after    1 cycles

  Exact polarizability: 152.958  15.002  99.513   0.403  -0.219  53.829
 Approx polarizability: 225.352  31.400 181.138  -1.287   0.560  91.171

                      1                      2                      3
                      A                      A                      A
 Frequencies --     18.7493                53.8526                97.5475
 Red. masses --      6.5532                10.1024                 1.3576
 Frc consts  --      0.0014                 0.0173                 0.0076
 IR Inten    --      3.9299                 1.3062                 1.0964

                      4                      5                      6
                      A                      A                      A
 Frequencies --    113.7506               128.4316               179.3352
 Red. masses --      2.9641                 3.1512                11.4438
 Frc consts  --      0.0226                 0.0306                 0.2168
 IR Inten    --      0.1708                 6.2135                 5.3959

                      7                      8                      9
                      A                      A                      A
 Frequencies --    218.7611               252.1570               295.2878
 Red. masses --      6.4582                 7.8491                 7.5441
 Frc consts  --      0.1821                 0.2940                 0.3876
 IR Inten    --      2.3090                 3.8008                 2.7289

                     10                     11                     12
                      A                      A                      A
 Frequencies --    317.2738               399.8409               444.7193
 Red. masses --      4.4796                 5.4630                 5.9982
 Frc consts  --      0.2657                 0.5146                 0.6989
 IR Inten    --      0.0904                 5.6371                 1.5113

                     13                     14                     15
                      A                      A                      A
 Frequencies --    497.3975               541.2650               547.9324
 Red. masses --      6.2114                 6.7647                 6.1263
 Frc consts  --      0.9054                 1.1677                 1.0837
 IR Inten    --      0.9093                 6.8922                 4.7152

                     16                     17                     18
                      A                      A                      A
 Frequencies --    584.8177               592.1479               648.2129
 Red. masses --      3.7197                 4.3544                 6.3564
 Frc consts  --      0.7495                 0.8996                 1.5736
 IR Inten    --      3.9819                 6.0476                 9.9875

                     19                     20                     21
                      A                      A                      A
 Frequencies --    654.1766               734.3671               768.9552
 Red. masses --      7.0349                 7.7586                 5.1656
 Frc consts  --      1.7738                 2.4652                 1.7996
 IR Inten    --      6.4420                14.8938                 4.6434

                     22                     23                     24
                      A                      A                      A
 Frequencies --    823.8639               859.7887               886.5105
 Red. masses --      1.4218                 5.5679                 6.3295
 Frc consts  --      0.5686                 2.4251                 2.9308
 IR Inten    --     39.5798                61.4024                 2.8782

                     25                     26                     27
                      A                      A                      A
 Frequencies --    932.1183               951.4840               994.6526
 Red. masses --     11.8078                 1.3636                 1.3330
 Frc consts  --      6.0445                 0.7273                 0.7770
 IR Inten    --      2.7817                 0.4003                 0.9506

                     28                     29                     30
                      A                      A                      A
 Frequencies --   1006.6976              1075.8718              1086.7249
 Red. masses --      2.5236                 1.6624                 2.3387
 Frc consts  --      1.5069                 1.1337                 1.6273
 IR Inten    --     19.9106                12.5774                 0.1851

                     31                     32                     33
                      A                      A                      A
 Frequencies --   1139.4238              1193.0966              1210.9854
 Red. masses --      1.7994                 2.7094                 2.4263
 Frc consts  --      1.3764                 2.2723                 2.0964
 IR Inten    --     32.1837               258.7668                 7.5153

                     34                     35                     36
                      A                      A                      A
 Frequencies --   1255.0512              1305.1139              1329.6534
 Red. masses --      3.0090                 2.2330                 8.2788
 Frc consts  --      2.7925                 2.2409                 8.6237
 IR Inten    --     55.4399                22.4855                15.5750

                     37                     38                     39
                      A                      A                      A
 Frequencies --   1418.1071              1479.9442              1485.0037
 Red. masses --      1.2524                 2.8689                 2.2369
 Frc consts  --      1.4839                 3.7021                 2.9064
 IR Inten    --     37.7792                74.7566                54.8787

                     40                     41                     42
                      A                      A                      A
 Frequencies --   1500.1154              1503.7216              1614.0283
 Red. masses --      1.0556                 1.0483                 6.2323
 Frc consts  --      1.3996                 1.3967                 9.5657
 IR Inten    --      6.2298                 9.0545                 8.0237

                     43                     44                     45
                      A                      A                      A
 Frequencies --   1638.2661              1904.0239              2357.5128
 Red. masses --      6.1679                12.2267                12.6847
 Frc consts  --      9.7534                26.1160                41.5372
 IR Inten    --      7.6279               240.9552                 9.7817

                     46                     47                     48
                      A                      A                      A
 Frequencies --   3078.2577              3153.9675              3181.4917
 Red. masses --      1.0353                 1.1000                 1.1054
 Frc consts  --      5.7802                 6.4471                 6.5922
 IR Inten    --      2.0727                 2.2610                 3.1969

                     49                     50                     51
                      A                      A                      A
 Frequencies --   3195.8783              3218.6366              3233.1990
 Red. masses --      1.0895                 1.0913                 1.0963
 Frc consts  --      6.5562                 6.6608                 6.7519
 IR Inten    --     10.2893                10.2751                 2.7772

 - Thermochemistry -
 -------------------
 Temperature   298.150 Kelvin.  Pressure   1.00000 Atm.
 Atom     1 has atomic number  6 and mass  12.00000

 Molecular mass:   178.03784 amu.
 Principal axes and moments of inertia in atomic units:
                           1         2         3
     Eigenvalues --  1043.035933148.098033884.10304
           X            0.99979   0.01782   0.01014
           Y           -0.01783   0.99984   0.00109
           Z           -0.01012  -0.00127   0.99995
 This molecule is an asymmetric top.
 Rotational symmetry number  1.
 Warning -- assumption of classical behavior for rotation
           may cause significant error
 Rotational temperatures (Kelvin)      0.08304     0.02751     0.02230
 Rotational constants (GHZ):           1.73028     0.57328     0.46465
 Zero-point vibrational energy     347528.2 (Joules/Mol)
                                   83.06122 (Kcal/Mol)
 Warning -- explicit consideration of  17 degrees of freedom as
           vibrations may cause significant error
 Vibrational temperatures:     26.98    77.48   140.35   163.66   184.78
          (Kelvin)            258.02   314.75   362.80   424.85   456.49
                              575.28   639.85   715.64   778.76   788.35
                              841.42   851.97   932.63   941.21  1056.59
                             1106.35  1185.36  1237.04  1275.49  1341.11
                             1368.97  1431.08  1448.41  1547.94  1563.55
                             1639.38  1716.60  1742.34  1805.74  1877.77
                             1913.07  2040.34  2129.31  2136.59  2158.33
                             2163.52  2322.23  2357.10  2739.47  3391.94
                             4428.93  4537.86  4577.46  4598.16  4630.90
                             4651.85

 Zero-point correction=                           0.132366 (Hartree/Particle)
 Thermal correction to Energy=                    0.144004
 Thermal correction to Enthalpy=                  0.144948
 Thermal correction to Gibbs Free Energy=         0.092994
 Sum of electronic and zero-point Energies=           -643.429281
 Sum of electronic and thermal Energies=              -643.417644
 Sum of electronic and thermal Enthalpies=            -643.416700
 Sum of electronic and thermal Free Energies=         -643.468654

                     E (Thermal)             CV                S
                      KCal/Mol        Cal/Mol-Kelvin    Cal/Mol-Kelvin
 Total                   90.364             41.889            109.347
 Electronic               0.000              0.000              0.000
 Translational            0.889              2.981             41.437
 Rotational               0.889              2.981             30.923
 Vibrational             88.586             35.927             36.987
 Vibration     1          0.593              1.986              6.762
 Vibration     2          0.596              1.976              4.671
 Vibration     3          0.603              1.951              3.503
 Vibration     4          0.607              1.938              3.204
 Vibration     5          0.611              1.925              2.969
 Vibration     6          0.629              1.868              2.335
 Vibration     7          0.647              1.812              1.969
 Vibration     8          0.664              1.759              1.715
 Vibration     9          0.690              1.683              1.443
 Vibration    10          0.704              1.641              1.324
 Vibration    11          0.766              1.470              0.963
 Vibration    12          0.804              1.373              0.812
 Vibration    13          0.853              1.256              0.665
 Vibration    14          0.896              1.159              0.563
 Vibration    15          0.903              1.144              0.548
 Vibration    16          0.942              1.064              0.477
 Vibration    17          0.950              1.049              0.463

 Optimization completed.
    -- Stationary point found.
 Normal termination of Gaussian 16 at Wed Dec  9 23:53:28 2020.

 ----------------------------------------------------------------------
 # B3LYP/6-311++G(d,p) empiricaldispersion=gd3bj scf=xqc pop=npa geom=c
 heck
 ----------------------------------------------------------------------

 --------------------------------------
 CID_23088725_JID_3612_Energie_neutraal
 --------------------------------------
 Structure from the checkpoint file:  "JID_3612.chk"
 Charge =  0 Multiplicity = 1

 SCF Done:  E(RB3LYP) =  -643.739427343     A.U. after   16 cycles
 Normal termination of Gaussian 16 at Wed Dec  9 23:55:19 2020.

 ----------------------------------------------------------------------
 # B3LYP/6-311++G(d,p) empiricaldispersion=gd3bj scf=xqc pop=npa geom=c
 heck
 ----------------------------------------------------------------------

 ------------------------------------
 CID_23088725_JID_3612_Energie_kation
 ------------------------------------
 Structure from the checkpoint file:  "JID_3612.chk"
 Charge =  1 Multiplicity = 2

 SCF Done:  E(UB3LYP) =  -643.390405859     A.U. after   27 cycles
 Normal termination of Gaussian 16 at Wed Dec  9 23:59:50 2020.
 Gaussian 16:  ES64L-G16RevA.03 25-Dec-2016

 ----------------------------------------------------------------------
 # B3LYP/6-311++G(d,p) empiricaldispersion=gd3bj scf=xqc pop=npa geom=c
 heck
 ----------------------------------------------------------------------

 -----------------------------------
 CID_23088725_JID_3612_Energie_anion
 -----------------------------------
 Structure from the checkpoint file:  "JID_3612.chk"
 Charge = -1 Multiplicity = 2

                         Standard orientation:
 ---------------------------------------------------------------------
 Center     Atomic      Atomic             Coordinates (Angstroms)
 Number     Number       Type             X           Y           Z
 ---------------------------------------------------------------------
      1          6           0        3.493968    0.275052    0.634355
      2          6           0        2.447805   -0.489558   -0.132586
      3          8           0        2.480773   -0.868743   -1.266052
      4          8           0        1.358191   -0.669841    0.719840
      5          8           0        0.303072   -1.389856    0.027589
      6          6           0       -0.858161   -0.668904    0.055407
      7          6           0       -0.987338    0.731475   -0.030054
      8          7           0       -2.187537    1.338920   -0.058892
      9          6           0       -3.284806    0.588791   -0.027034
     10          6           0       -3.252157   -0.808267    0.046101
     11          6           0       -2.020808   -1.443562    0.101075
     12          6           0        0.142195    1.620229   -0.105114
     13          7           0        1.027709    2.368213   -0.186014
     14          1           0        4.472443    0.045555    0.209327
     15          1           0        3.472882    0.037232    1.700157
     16          1           0        3.284332    1.342716    0.509019
     17          1           0       -4.230581    1.123339   -0.061627
     18          1           0       -4.173137   -1.381288    0.076624
     19          1           0       -1.927618   -2.521496    0.176927
 ---------------------------------------------------------------------

 SCF Done:  E(UB3LYP) =  -643.765902819     A.U. after   27 cycles

 The electronic state is 2-A.
 Alpha  occ. eigenvalues --  -19.07702 -19.06735 -19.00240 -14.15676 -14.14379
 Alpha  occ. eigenvalues --  -10.19035 -10.09925 -10.07315 -10.06445 -10.06090
 Alpha  occ. eigenvalues --  -10.04774 -10.04293 -10.02665  -1.03399  -0.94286
 Alpha  occ. eigenvalues --   -0.83988  -0.79880  -0.74560  -0.66164  -0.64109
 Alpha  occ. eigenvalues --   -0.61955  -0.52372  -0.49376  -0.46371  -0.41579
 Alpha  occ. eigenvalues --   -0.38995  -0.38310  -0.37535  -0.34647  -0.33688
 Alpha  occ. eigenvalues --   -0.32299  -0.31071  -0.28998  -0.28032  -0.27089
 Alpha  occ. eigenvalues --   -0.26206  -0.25265  -0.22947  -0.21381  -0.20255
 Alpha  occ. eigenvalues --   -0.19780  -0.17378  -0.17004  -0.14458  -0.12071
 Alpha  occ. eigenvalues --   -0.10521   0.03780
 Alpha virt. eigenvalues --    0.08432   0.09017   0.09842   0.10859   0.11244
 Alpha virt. eigenvalues --    0.11660   0.12330   0.13317   0.13903   0.15196
 Alpha virt. eigenvalues --    0.16334   0.16622   0.17534   0.17797   0.18375

  Beta  occ. eigenvalues --  -19.07376 -19.06527 -19.00242 -14.15331 -14.14059
  Beta  occ. eigenvalues --  -10.19045 -10.09854 -10.07302 -10.06197 -10.06057
  Beta  occ. eigenvalues --  -10.04793 -10.04258 -10.02277  -1.02809  -0.94204
  Beta  occ. eigenvalues --   -0.83539  -0.79252  -0.74089  -0.65706  -0.63816
  Beta  occ. eigenvalues --   -0.61424  -0.51490  -0.49177  -0.46007  -0.41265
  Beta  occ. eigenvalues --   -0.38550  -0.38240  -0.37321  -0.34501  -0.33512
  Beta  occ. eigenvalues --   -0.32132  -0.30982  -0.28684  -0.26945  -0.26939
  Beta  occ. eigenvalues --   -0.26035  -0.24724  -0.22409  -0.20877  -0.19625
  Beta  occ. eigenvalues --   -0.18776  -0.17078  -0.16898  -0.12711  -0.11540
  Beta  occ. eigenvalues --   -0.09148
  Beta virt. eigenvalues --    0.08387   0.08993   0.10204   0.10719   0.10922
  Beta virt. eigenvalues --    0.11426   0.11639   0.12336   0.13555   0.14444
  Beta virt. eigenvalues --    0.15215   0.16475   0.16618   0.17663   0.17811

 Mulliken charges and spin densities:
               1          2
     1  C   -0.411169  -0.028067
     2  C    0.081006  -0.004116
     3  O   -0.249335  -0.000772
     4  O    0.016369   0.080751
     5  O   -0.123812   0.065613
     6  C   -0.204758   0.072751
     7  C    0.970838   0.292644
     8  N   -0.024912   0.156755
     9  C   -0.159247  -0.078775
    10  C   -0.059122   0.316906
    11  C   -0.377779  -0.002581
    12  C   -0.965291  -0.071265
    13  N   -0.357543   0.177293
    14  H    0.113646   0.023576
    15  H    0.146686   0.007065
    16  H    0.196345   0.011781
    17  H    0.140649   0.005662
    18  H    0.111325  -0.021188
    19  H    0.156104  -0.004035
 Sum of Mulliken charges =  -1.00000   1.00000

 Dipole moment (field-independent basis, Debye):
    X=              1.3460    Y=             -3.7437    Z=              2.2316  Tot=              4.5614
 Quadrupole moment (field-independent basis, Debye-Ang):
   XX=            -92.8870   YY=            -97.8971   ZZ=            -84.7273
   XY=              1.5909   XZ=              5.9169   YZ=             -0.8919

 Summary of Natural Population Analysis:

                                       Natural Population
                Natural  -----------------------------------------------
    Atom  No    Charge         Core      Valence    Rydberg      Total
 -----------------------------------------------------------------------
      C    1   -0.34115      0.99960     2.33666    0.00488     3.34115
      C    2    0.40250      0.99974     1.57238    0.02537     2.59750
      O    3   -0.28880      0.99986     3.28287    0.00608     4.28880
      O    4   -0.12730      0.99988     3.11910    0.00832     4.12730
      O    5   -0.12040      0.99985     3.11112    0.00942     4.12040
      C    6    0.16532      0.99935     1.82197    0.01336     2.83468
      C    7    0.06256      0.99939     1.92389    0.01416     2.93744
      N    8   -0.16874      0.99969     2.65725    0.01180     3.66874
      C    9   -0.01368      0.99960     1.99977    0.01431     3.01368
      C   10   -0.05188      0.99957     2.04349    0.00882     3.05188
      C   11   -0.11035      0.99952     2.10187    0.00896     3.11035
      C   12    0.15011      0.99964     1.83080    0.01944     2.84989
      N   13   -0.17063      0.99978     2.65980    0.01106     3.67063
      H   14    0.10488      0.00000     0.39424    0.00089     0.39512
      H   15    0.10817      0.00000     0.39078    0.00105     0.39183
      H   16    0.13173      0.00000     0.36670    0.00157     0.36827
      H   17    0.08050      0.00000     0.41813    0.00136     0.41950
      H   18    0.08838      0.00000     0.41040    0.00122     0.41162
      H   19    0.09878      0.00000     0.40016    0.00106     0.40122
 =======================================================================
   * Total *    0.00000     12.99548    32.84137    0.16314    46.00000

 Normal termination of Gaussian 16 at Thu Dec 10 00:04:18 2020.
