 Gaussian 16, Revision A.03,

 -----------------------------------------------------------
 # opt freq B3LYP/6-31G(d) empiricaldispersion=gd3bj scf=xqc
 -----------------------------------------------------------

 ------------------------------
 CID_142119032_JID_478_neutraal
 ------------------------------
 Symbolic Z-matrix:
 Charge =  0 Multiplicity = 1

 SCF Done:  E(RB3LYP) =  -428.835787433     A.U. after   12 cycles
 SCF Done:  E(RB3LYP) =  -428.838791664     A.U. after   10 cycles
 SCF Done:  E(RB3LYP) =  -428.839306368     A.U. after   10 cycles
 SCF Done:  E(RB3LYP) =  -428.839715118     A.U. after    9 cycles
 SCF Done:  E(RB3LYP) =  -428.839982003     A.U. after    9 cycles
 SCF Done:  E(RB3LYP) =  -428.840401874     A.U. after   10 cycles
 SCF Done:  E(RB3LYP) =  -428.840589775     A.U. after    9 cycles
 SCF Done:  E(RB3LYP) =  -428.840672992     A.U. after    8 cycles
 SCF Done:  E(RB3LYP) =  -428.840776963     A.U. after    9 cycles
 SCF Done:  E(RB3LYP) =  -428.840830980     A.U. after    9 cycles
 SCF Done:  E(RB3LYP) =  -428.841933876     A.U. after    6 cycles
 SCF Done:  E(RB3LYP) =  -428.841934345     A.U. after    7 cycles
 SCF Done:  E(RB3LYP) =  -428.841934555     A.U. after    6 cycles
 SCF Done:  E(RB3LYP) =  -428.841934779     A.U. after    6 cycles
 SCF Done:  E(RB3LYP) =  -428.841934938     A.U. after    7 cycles
 SCF Done:  E(RB3LYP) =  -428.841935064     A.U. after    6 cycles
 Optimization completed.
    -- Stationary point found.

 1\1\GINC-NODE204\FOpt\RB3LYP\6-31G(d)\C8H24N2\VSC10255\08-Dec-2020\0\\
 # opt freq B3LYP/6-31G(d) empiricaldispersion=gd3bj scf=xqc\\CID_14211
 9032_JID_478_neutraal\\0,1\C,0.7957169505,0.0225006834,0.44992949\C,0.
 3757965986,1.3904597871,-0.0921639237\C,0.7032017501,1.5607509575,-1.5
 778157606\C,-3.1762904215,-0.3020663389,-0.1576728994\C,-2.9277457848,
 0.0554553378,-1.6252976404\C,-2.2153210375,-1.0609268452,-2.3928531063
 \C,4.9872980071,1.9329750638,0.2512805081\C,3.8505653768,2.6557448611,
 0.9831456904\N,3.2609740769,3.6908719574,0.126436362\N,4.6245981003,1.

 Normal termination of Gaussian 16 at Tue Dec  8 11:06:48 2020.

 --------------------------------------------------------------------
 #N Geom=AllCheck Guess=TCheck SCRF=Check GenChk RB3LYP/6-31G(d) Freq
 --------------------------------------------------------------------

 Structure from the checkpoint file:  "JID_478.chk"
 ------------------------------
 CID_142119032_JID_478_neutraal
 ------------------------------
 Charge =  0 Multiplicity = 1

 SCF Done:  E(RB3LYP) =  -428.841935064     A.U. after    1 cycles

  Exact polarizability: 120.531  -1.810  99.034   1.907  -1.149  97.860
 Approx polarizability: 141.509  -2.919 133.717   1.011   0.076 135.564

                      1                      2                      3
                      A                      A                      A
 Frequencies --     21.9233                24.7456                28.9725
 Red. masses --      3.7936                 3.4836                 3.0401
 Frc consts  --      0.0011                 0.0013                 0.0015
 IR Inten    --      0.2771                 0.3636                 0.1094

                      4                      5                      6
                      A                      A                      A
 Frequencies --     49.7856                53.6945                55.6571
 Red. masses --      3.1951                 2.7510                 3.0658
 Frc consts  --      0.0047                 0.0047                 0.0056
 IR Inten    --      0.2297                 0.1946                 0.0771

                      7                      8                      9
                      A                      A                      A
 Frequencies --     65.4541                73.8258                79.5509
 Red. masses --      2.8189                 2.3295                 2.4707
 Frc consts  --      0.0071                 0.0075                 0.0092
 IR Inten    --      1.0962                 2.0153                 0.7398

                     10                     11                     12
                      A                      A                      A
 Frequencies --     89.7365               102.0461               134.1584
 Red. masses --      1.6301                 3.5733                 1.4250
 Frc consts  --      0.0077                 0.0219                 0.0151
 IR Inten    --      0.0284                 1.1045                 0.6851

                     13                     14                     15
                      A                      A                      A
 Frequencies --    161.2564               228.7238               235.6112
 Red. masses --      2.3201                 1.0408                 1.0653
 Frc consts  --      0.0355                 0.0321                 0.0348
 IR Inten    --      9.8743                 0.0095                19.5093

                     16                     17                     18
                      A                      A                      A
 Frequencies --    246.8059               278.0062               288.2832
 Red. masses --      1.0957                 1.1514                 1.1735
 Frc consts  --      0.0393                 0.0524                 0.0575
 IR Inten    --     23.0464                 0.0262                 0.7349

                     19                     20                     21
                      A                      A                      A
 Frequencies --    327.0544               368.1011               370.4928
 Red. masses --      1.8858                 1.6183                 2.0526
 Frc consts  --      0.1188                 0.1292                 0.1660
 IR Inten    --      7.3450                25.1206                 0.9513

                     22                     23                     24
                      A                      A                      A
 Frequencies --    378.6242               499.8338               756.6928
 Red. masses --      1.4726                 1.9219                 1.0774
 Frc consts  --      0.1244                 0.2829                 0.3635
 IR Inten    --     30.4974                13.6159                26.9555

                     25                     26                     27
                      A                      A                      A
 Frequencies --    763.7219               824.5116               844.0612
 Red. masses --      1.0734                 1.4833                 1.8487
 Frc consts  --      0.3689                 0.5941                 0.7760
 IR Inten    --      2.7063                62.9303                38.7361

                     28                     29                     30
                      A                      A                      A
 Frequencies --    864.6742               883.1444               883.5534
 Red. masses --      1.3201                 2.5437                 2.5544
 Frc consts  --      0.5815                 1.1689                 1.1749
 IR Inten    --    127.6607                 0.4235                 0.3734

                     31                     32                     33
                      A                      A                      A
 Frequencies --    914.2059               920.0483               921.4112
 Red. masses --      1.3123                 1.1075                 1.1665
 Frc consts  --      0.6462                 0.5524                 0.5835
 IR Inten    --    107.4029                 5.9272                39.1765

                     34                     35                     36
                      A                      A                      A
 Frequencies --    940.6763               941.4216              1018.2684
 Red. masses --      1.1997                 1.1989                 1.6799
 Frc consts  --      0.6255                 0.6260                 1.0263
 IR Inten    --      0.4200                 1.7730                20.5670

                     37                     38                     39
                      A                      A                      A
 Frequencies --   1069.8441              1070.0438              1074.9187
 Red. masses --      2.4040                 2.4150                 1.5902
 Frc consts  --      1.6212                 1.6292                 1.0825
 IR Inten    --      0.2226                 0.1006                 3.0507

                     40                     41                     42
                      A                      A                      A
 Frequencies --   1122.1250              1191.5617              1192.0161
 Red. masses --      2.8179                 1.7791                 1.7772
 Frc consts  --      2.0905                 1.4883                 1.4878
 IR Inten    --     14.2229                 1.1306                 0.6340

                     43                     44                     45
                      A                      A                      A
 Frequencies --   1199.9965              1218.5161              1229.0047
 Red. masses --      1.3784                 1.5062                 1.6596
 Frc consts  --      1.1695                 1.3176                 1.4769
 IR Inten    --      9.7213                 4.5949                 0.7658

                     46                     47                     48
                      A                      A                      A
 Frequencies --   1230.1287              1331.2435              1333.0259
 Red. masses --      1.6573                 1.1247                 1.1235
 Frc consts  --      1.4776                 1.1744                 1.1763
 IR Inten    --      0.0265                 0.1471                 0.5605

                     49                     50                     51
                      A                      A                      A
 Frequencies --   1359.1126              1385.8733              1388.0907
 Red. masses --      1.2055                 1.4033                 1.3862
 Frc consts  --      1.3120                 1.5879                 1.5737
 IR Inten    --      5.7525                 3.0609                 1.0850

                     52                     53                     54
                      A                      A                      A
 Frequencies --   1403.3385              1406.9743              1432.7479
 Red. masses --      1.2439                 1.2382                 1.2988
 Frc consts  --      1.4433                 1.4442                 1.5709
 IR Inten    --      4.7980                 6.4976                 7.2696

                     55                     56                     57
                      A                      A                      A
 Frequencies --   1433.6647              1440.9914              1446.8554
 Red. masses --      1.2940                 1.4021                 1.2326
 Frc consts  --      1.5670                 1.7153                 1.5203
 IR Inten    --      3.1819                 5.7250                 2.0035

                     58                     59                     60
                      A                      A                      A
 Frequencies --   1451.6646              1506.4118              1515.6865
 Red. masses --      1.2316                 1.0915                 1.0511
 Frc consts  --      1.5292                 1.4593                 1.4227
 IR Inten    --      5.4819                 1.0545                 0.4144

                     61                     62                     63
                      A                      A                      A
 Frequencies --   1517.8811              1519.4563              1522.0029
 Red. masses --      1.0398                 1.0410                 1.0510
 Frc consts  --      1.4115                 1.4160                 1.4345
 IR Inten    --      0.3582                 0.2241                 1.5692

                     64                     65                     66
                      A                      A                      A
 Frequencies --   1527.0541              1530.4708              1532.5250
 Red. masses --      1.0525                 1.0538                 1.0715
 Frc consts  --      1.4460                 1.4543                 1.4827
 IR Inten    --      1.1631                 0.2489                 1.7451

                     67                     68                     69
                      A                      A                      A
 Frequencies --   1537.3774              1537.9807              1543.5531
 Red. masses --      1.0490                 1.0459                 1.0784
 Frc consts  --      1.4608                 1.4577                 1.5138
 IR Inten    --      8.2125                 7.8694                 7.0175

                     70                     71                     72
                      A                      A                      A
 Frequencies --   1545.2794              1688.9450              1699.1716
 Red. masses --      1.0737                 1.0885                 1.0913
 Frc consts  --      1.5105                 1.8294                 1.8564
 IR Inten    --      3.3714                47.8959                11.8365

                     73                     74                     75
                      A                      A                      A
 Frequencies --   2950.4143              3039.4069              3040.2883
 Red. masses --      1.0724                 1.0581                 1.0354
 Frc consts  --      5.4999                 5.7590                 5.6388
 IR Inten    --     82.1409                 9.3151                30.7695

                     76                     77                     78
                      A                      A                      A
 Frequencies --   3040.6303              3044.5482              3045.3452
 Red. masses --      1.0383                 1.0373                 1.0369
 Frc consts  --      5.6559                 5.6650                 5.6655
 IR Inten    --     27.4286                18.6337                15.9047

                     79                     80                     81
                      A                      A                      A
 Frequencies --   3048.4669              3049.1612              3064.8601
 Red. masses --      1.0595                 1.0641                 1.1018
 Frc consts  --      5.8010                 5.8288                 6.0978
 IR Inten    --     29.0122                32.5802                11.5673

                     82                     83                     84
                      A                      A                      A
 Frequencies --   3069.8879              3074.1637              3100.7921
 Red. masses --      1.0869                 1.1003                 1.1012
 Frc consts  --      6.0349                 6.1265                 6.2384
 IR Inten    --     74.3122                 1.2904                27.3671

                     85                     86                     87
                      A                      A                      A
 Frequencies --   3101.6803              3102.2137              3109.4540
 Red. masses --      1.1033                 1.1022                 1.1022
 Frc consts  --      6.2537                 6.2497                 6.2788
 IR Inten    --     24.5150                 5.4698               154.4562

                     88                     89                     90
                      A                      A                      A
 Frequencies --   3110.2988              3112.7656              3113.8426
 Red. masses --      1.1023                 1.1016                 1.1018
 Frc consts  --      6.2828                 6.2889                 6.2945
 IR Inten    --     43.7810                73.8484                63.8131

                     91                     92                     93
                      A                      A                      A
 Frequencies --   3114.6357              3120.7948              3465.6679
 Red. masses --      1.1022                 1.1017                 1.0484
 Frc consts  --      6.2997                 6.3220                 7.4188
 IR Inten    --     45.2843                34.9765                 5.2962

                     94                     95                     96
                      A                      A                      A
 Frequencies --   3482.2788              3558.6383              3564.0332
 Red. masses --      1.0499                 1.0932                 1.0916
 Frc consts  --      7.5010                 8.1565                 8.1696
 IR Inten    --      0.9043                 0.2015                 0.4825

 - Thermochemistry -
 -------------------
 Temperature   298.150 Kelvin.  Pressure   1.00000 Atm.
 Atom     1 has atomic number  6 and mass  12.00000

 Molecular mass:   148.19395 amu.
 Principal axes and moments of inertia in atomic units:
                           1         2         3
     Eigenvalues --   889.860665739.970885908.57730
           X            0.99999  -0.00326   0.00104
           Y            0.00331   0.99836  -0.05708
           Z           -0.00085   0.05708   0.99837
 This molecule is an asymmetric top.
 Rotational symmetry number  1.
 Warning -- assumption of classical behavior for rotation
           may cause significant error
 Rotational temperatures (Kelvin)      0.09733     0.01509     0.01466
 Rotational constants (GHZ):           2.02812     0.31442     0.30544
 Zero-point vibrational energy     845152.9 (Joules/Mol)
                                  201.99640 (Kcal/Mol)
 Warning -- explicit consideration of  23 degrees of freedom as
           vibrations may cause significant error
 Vibrational temperatures:     31.54    35.60    41.69    71.63    77.25
          (Kelvin)             80.08    94.17   106.22   114.46   129.11
                              146.82   193.02   232.01   329.08   338.99
                              355.10   399.99   414.78   470.56   529.62
                              533.06   544.76   719.15  1088.71  1098.83
                             1186.29  1214.42  1244.07  1270.65  1271.24
                             1315.34  1323.74  1325.71  1353.42  1354.50
                             1465.06  1539.27  1539.55  1546.57  1614.49
                             1714.39  1715.05  1726.53  1753.17  1768.26
                             1769.88  1915.36  1917.93  1955.46  1993.96
                             1997.15  2019.09  2024.32  2061.40  2062.72
                             2073.27  2081.70  2088.62  2167.39  2180.73
                             2183.89  2186.16  2189.82  2197.09  2202.01
                             2204.96  2211.94  2212.81  2220.83  2223.31
                             2430.02  2444.73  4244.99  4373.03  4374.30
                             4374.79  4380.43  4381.57  4386.06  4387.06
                             4409.65  4416.88  4423.04  4461.35  4462.63
                             4463.39  4473.81  4475.03  4478.58  4480.13
                             4481.27  4490.13  4986.32  5010.22  5120.09
                             5127.85

 Zero-point correction=                           0.321902 (Hartree/Particle)
 Thermal correction to Energy=                    0.340173
 Thermal correction to Enthalpy=                  0.341118
 Thermal correction to Gibbs Free Energy=         0.271460
 Sum of electronic and zero-point Energies=           -428.520033
 Sum of electronic and thermal Energies=              -428.501762
 Sum of electronic and thermal Enthalpies=            -428.500817
 Sum of electronic and thermal Free Energies=         -428.570475

                     E (Thermal)             CV                S
                      KCal/Mol        Cal/Mol-Kelvin    Cal/Mol-Kelvin
 Total                  213.462             59.117            146.606
 Electronic               0.000              0.000              0.000
 Translational            0.889              2.981             40.891
 Rotational               0.889              2.981             31.779
 Vibrational            211.685             53.156             73.937
 Vibration     1          0.593              1.985              6.452
 Vibration     2          0.593              1.985              6.212
 Vibration     3          0.593              1.984              5.899
 Vibration     4          0.595              1.978              4.826
 Vibration     5          0.596              1.976              4.676
 Vibration     6          0.596              1.975              4.606
 Vibration     7          0.597              1.971              4.286
 Vibration     8          0.599              1.966              4.049
 Vibration     9          0.600              1.963              3.902
 Vibration    10          0.602              1.956              3.666
 Vibration    11          0.604              1.948              3.415
 Vibration    12          0.613              1.919              2.886
 Vibration    13          0.622              1.890              2.535
 Vibration    14          0.651              1.797              1.889
 Vibration    15          0.655              1.786              1.836
 Vibration    16          0.661              1.768              1.753
 Vibration    17          0.679              1.714              1.546
 Vibration    18          0.685              1.695              1.484
 Vibration    19          0.711              1.621              1.275
 Vibration    20          0.741              1.538              1.088
 Vibration    21          0.742              1.533              1.078
 Vibration    22          0.749              1.516              1.045
 Vibration    23          0.855              1.250              0.659

                           ! Non-Optimized Parameters !

 1\1\GINC-NODE204\Freq\RB3LYP\6-31G(d)\C8H24N2\VSC10255\08-Dec-2020\0\\
 #N Geom=AllCheck Guess=TCheck SCRF=Check GenChk RB3LYP/6-31G(d) Freq\\
 CID_142119032_JID_478_neutraal\\0,1\C,0.7957169505,0.0225006834,0.4499
 2949\C,0.3757965986,1.3904597871,-0.0921639237\C,0.7032017501,1.560750
 9575,-1.5778157606\C,-3.1762904215,-0.3020663389,-0.1576728994\C,-2.92
 77457848,0.0554553378,-1.6252976404\C,-2.2153210375,-1.0609268452,-2.3
 928531063\C,4.9872980071,1.9329750638,0.2512805081\C,3.8505653768,2.65
 57448611,0.9831456904\N,3.2609740769,3.6908719574,0.126436362\N,4.6245

 Normal termination of Gaussian 16 at Tue Dec  8 11:12:32 2020.

 ----------------------------------------------------------------------
 # B3LYP/6-311++G(d,p) empiricaldispersion=gd3bj scf=xqc pop=npa geom=c
 heck
 ----------------------------------------------------------------------

 --------------------------------------
 CID_142119032_JID_478_Energie_neutraal
 --------------------------------------
 Structure from the checkpoint file:  "JID_478.chk"
 Charge =  0 Multiplicity = 1

 SCF Done:  E(RB3LYP) =  -428.987443240     A.U. after   12 cycles
 Normal termination of Gaussian 16 at Tue Dec  8 11:15:49 2020.

 ----------------------------------------------------------------------
 # B3LYP/6-311++G(d,p) empiricaldispersion=gd3bj scf=xqc pop=npa geom=c
 heck
 ----------------------------------------------------------------------

 ------------------------------------
 CID_142119032_JID_478_Energie_kation
 ------------------------------------
 Structure from the checkpoint file:  "JID_478.chk"
 Charge =  1 Multiplicity = 2

 SCF Done:  E(UB3LYP) =  -428.666353329     A.U. after   21 cycles
 Normal termination of Gaussian 16 at Tue Dec  8 11:23:21 2020.
 Gaussian 16:  ES64L-G16RevA.03 25-Dec-2016

 -----------------------------------
 CID_142119032_JID_478_Energie_anion
 -----------------------------------
 Structure from the checkpoint file:  "JID_478.chk"
 Charge = -1 Multiplicity = 2

                         Standard orientation:
 ---------------------------------------------------------------------
 Center     Atomic      Atomic             Coordinates (Angstroms)
 Number     Number       Type             X           Y           Z
 ---------------------------------------------------------------------
      1          6           0        0.382873    0.222163   -1.384285
      2          6           0        0.370083    0.700448    0.069191
      3          6           0        0.294357   -0.456316    1.068949
      4          6           0        4.236598    1.072608   -0.561537
      5          6           0        4.160933    0.059166    0.583334
      6          6           0        4.066398   -1.386001    0.087800
      7          6           0       -4.095193   -0.472489   -0.533927
      8          6           0       -3.463583    0.893580   -0.242195
      9          7           0       -3.140021    1.018813    1.183527
     10          7           0       -3.273309   -1.646677   -0.230822
     11          1           0       -0.525639   -0.346060   -1.620109
     12          1           0        1.240245   -0.433539   -1.576943
     13          1           0        0.438897    1.062321   -2.085319
     14          1           0        1.269709    1.296483    0.266349
     15          1           0       -0.483916    1.371934    0.225389
     16          1           0        1.152773   -1.129090    0.962552
     17          1           0        0.278677   -0.097106    2.104462
     18          1           0       -0.610046   -1.056382    0.906467
     19          1           0        5.116806    0.890731   -1.190236
     20          1           0        4.300509    2.100348   -0.186384
     21          1           0        3.352192    1.005875   -1.206433
     22          1           0        5.043930    0.167541    1.226974
     23          1           0        3.293189    0.285478    1.216603
     24          1           0        4.941548   -1.653373   -0.516886
     25          1           0        4.005944   -2.095360    0.921006
     26          1           0        3.178026   -1.530575   -0.539277
     27          1           0       -4.370539   -0.517645   -1.595355
     28          1           0       -5.019603   -0.561593    0.047561
     29          1           0       -2.594546    1.038378   -0.911011
     30          1           0       -4.189421    1.677665   -0.492001
     31          1           0       -2.849613    1.971528    1.393696
     32          1           0       -2.339554    0.430179    1.404908
     33          1           0       -2.378221   -1.595620   -0.715570
     34          1           0       -3.072831   -1.686022    0.766644
 ---------------------------------------------------------------------

 SCF Done:  E(UB3LYP) =  -428.974369986     A.U. after   25 cycles

 The electronic state is 2-A.
 Alpha  occ. eigenvalues --  -14.20142 -14.19649 -10.09652 -10.09364 -10.06981
 Alpha  occ. eigenvalues --  -10.06820 -10.06327 -10.06327 -10.06247 -10.06088
 Alpha  occ. eigenvalues --   -0.80410  -0.76881  -0.68882  -0.68463  -0.61317
 Alpha  occ. eigenvalues --   -0.58878  -0.58659  -0.50382  -0.49212  -0.49021
 Alpha  occ. eigenvalues --   -0.41253  -0.39955  -0.37476  -0.35673  -0.34881
 Alpha  occ. eigenvalues --   -0.34635  -0.34409  -0.34240  -0.30732  -0.30505
 Alpha  occ. eigenvalues --   -0.29386  -0.29064  -0.28595  -0.27388  -0.26300
 Alpha  occ. eigenvalues --   -0.24648  -0.24601  -0.24596  -0.24255  -0.23820
 Alpha  occ. eigenvalues --   -0.23110  -0.15932  -0.14387   0.04294
 Alpha virt. eigenvalues --    0.06142   0.07199   0.07385   0.07928   0.08569
 Alpha virt. eigenvalues --    0.08787   0.09826   0.10280   0.10374   0.10770
 Alpha virt. eigenvalues --    0.11204   0.11640   0.12489   0.13479   0.13612

  Beta  occ. eigenvalues --  -14.20121 -14.19612 -10.09643 -10.09340 -10.06961
  Beta  occ. eigenvalues --  -10.06797 -10.06300 -10.06299 -10.06219 -10.06060
  Beta  occ. eigenvalues --   -0.80365  -0.76826  -0.68843  -0.68425  -0.61252
  Beta  occ. eigenvalues --   -0.58817  -0.58598  -0.50316  -0.49123  -0.48932
  Beta  occ. eigenvalues --   -0.41219  -0.39909  -0.37448  -0.35633  -0.34839
  Beta  occ. eigenvalues --   -0.34594  -0.34358  -0.34186  -0.30692  -0.30463
  Beta  occ. eigenvalues --   -0.29358  -0.29021  -0.28568  -0.27345  -0.26277
  Beta  occ. eigenvalues --   -0.24596  -0.24558  -0.24544  -0.24192  -0.23793
  Beta  occ. eigenvalues --   -0.23084  -0.15890  -0.14350
  Beta virt. eigenvalues --    0.06357   0.06955   0.07734   0.07923   0.08368
  Beta virt. eigenvalues --    0.08949   0.09090   0.10206   0.10655   0.10762
  Beta virt. eigenvalues --    0.10967   0.11467   0.12025   0.12695   0.13689

 Mulliken charges and spin densities:
               1          2
     1  C    0.624316  -1.187686
     2  C   -0.376592   0.513233
     3  C    0.075270  -0.710066
     4  C    0.613873  -1.156314
     5  C   -0.619895   0.587532
     6  C    0.521581  -1.025428
     7  C    0.200167  -0.598441
     8  C    0.095747  -0.466021
     9  N   -0.300193  -0.049361
    10  N   -0.318638  -0.045720
    11  H   -0.132123   0.240510
    12  H    0.106673   0.020612
    13  H   -0.290971   0.431310
    14  H   -0.066703   0.204155
    15  H    0.022241   0.150746
    16  H    0.128793   0.024961
    17  H   -0.366965   0.518889
    18  H    0.026050   0.060833
    19  H   -0.087774   0.206563
    20  H   -0.258435   0.391720
    21  H   -0.030150   0.182850
    22  H   -0.291429   0.446323
    23  H    0.064526   0.061920
    24  H   -0.115649   0.237467
    25  H   -0.196592   0.325772
    26  H   -0.060421   0.194082
    27  H   -0.055494   0.204280
    28  H    0.089656   0.075023
    29  H   -0.006070   0.121603
    30  H   -0.385642   0.546490
    31  H   -0.207291   0.455041
    32  H    0.379042  -0.175162
    33  H    0.151137   0.052705
    34  H    0.067957   0.159577
 Sum of Mulliken charges =  -1.00000   1.00000

 Dipole moment (field-independent basis, Debye):
    X=             -1.2764    Y=             -1.9874    Z=             -0.8718  Tot=              2.5178
 Quadrupole moment (field-independent basis, Debye-Ang):
   XX=           -166.7139   YY=           -113.2220   ZZ=           -106.0083
   XY=              1.7067   XZ=              0.2527   YZ=             -1.1973

 Summary of Natural Population Analysis:

                                       Natural Population
                Natural  -----------------------------------------------
    Atom  No    Charge         Core      Valence    Rydberg      Total
 -----------------------------------------------------------------------
      C    1   -0.28621      0.99966     2.27932    0.00722     3.28621
      C    2   -0.19703      0.99965     2.18961    0.00777     3.19703
      C    3   -0.29026      0.99966     2.28340    0.00720     3.29026
      C    4   -0.28453      0.99967     2.28017    0.00470     3.28453
      C    5   -0.19349      0.99966     2.18626    0.00757     3.19349
      C    6   -0.28420      0.99967     2.27995    0.00458     3.28420
      C    7   -0.09204      0.99964     2.08146    0.01094     3.09204
      C    8   -0.10016      0.99964     2.08890    0.01162     3.10016
      N    9   -0.42763      0.99977     2.91660    0.01126     3.92763
      N   10   -0.42140      0.99978     2.91246    0.00916     3.92140
      H   11    0.09120      0.00000     0.40732    0.00147     0.40880
      H   12    0.09529      0.00000     0.40352    0.00119     0.40471
      H   13    0.10093      0.00000     0.39801    0.00107     0.39907
      H   14    0.09587      0.00000     0.40245    0.00169     0.40413
      H   15    0.09452      0.00000     0.40347    0.00200     0.40548
      H   16    0.09908      0.00000     0.39977    0.00115     0.40092
      H   17    0.10040      0.00000     0.39833    0.00127     0.39960
      H   18    0.08995      0.00000     0.40856    0.00150     0.41005
      H   19    0.09392      0.00000     0.40485    0.00123     0.40608
      H   20    0.09878      0.00000     0.39983    0.00140     0.40122
      H   21    0.09723      0.00000     0.40150    0.00127     0.40277
      H   22    0.09168      0.00000     0.40698    0.00134     0.40832
      H   23    0.09479      0.00000     0.40362    0.00159     0.40521
      H   24    0.09447      0.00000     0.40431    0.00122     0.40553
      H   25    0.09810      0.00000     0.40066    0.00124     0.40190
      H   26    0.09517      0.00000     0.40351    0.00132     0.40483
      H   27    0.08838      0.00000     0.41052    0.00110     0.41162
      H   28    0.09043      0.00000     0.40829    0.00128     0.40957
      H   29    0.07840      0.00000     0.41943    0.00218     0.42160
      H   30    0.09140      0.00000     0.40710    0.00150     0.40860
      H   31    0.17960      0.00000     0.31778    0.00262     0.32040
      H   32    0.17296      0.00000     0.32416    0.00289     0.32704
      H   33    0.17176      0.00000     0.32568    0.00256     0.32824
      H   34    0.17266      0.00000     0.32499    0.00234     0.32734
 =======================================================================
   * Total *   -0.00000      9.99681    32.88275    0.12044    43.00000

 Normal termination of Gaussian 16 at Tue Dec  8 11:33:52 2020.
