 Gaussian 16, Revision A.03,

 -----------------------------------------------------------
 # opt freq B3LYP/6-31G(d) empiricaldispersion=gd3bj scf=xqc
 -----------------------------------------------------------

 -------------------------------
 CID_114132454_JID_7716_neutraal
 -------------------------------
 Symbolic Z-matrix:
 Charge =  0 Multiplicity = 1

 SCF Done:  E(RB3LYP) =  -1166.98495817     A.U. after   14 cycles
 SCF Done:  E(RB3LYP) =  -1166.98972280     A.U. after   12 cycles
 SCF Done:  E(RB3LYP) =  -1166.99082890     A.U. after   11 cycles
 SCF Done:  E(RB3LYP) =  -1166.99123224     A.U. after   12 cycles
 SCF Done:  E(RB3LYP) =  -1166.99131439     A.U. after   11 cycles
 SCF Done:  E(RB3LYP) =  -1166.99137658     A.U. after   11 cycles
 SCF Done:  E(RB3LYP) =  -1166.99144710     A.U. after   11 cycles
 SCF Done:  E(RB3LYP) =  -1166.99146944     A.U. after   11 cycles
 SCF Done:  E(RB3LYP) =  -1166.99153651     A.U. after   11 cycles
 SCF Done:  E(RB3LYP) =  -1166.99171278     A.U. after   14 cycles
 SCF Done:  E(RB3LYP) =  -1166.99183751     A.U. after   10 cycles
 SCF Done:  E(RB3LYP) =  -1166.99184749     A.U. after   11 cycles
 SCF Done:  E(RB3LYP) =  -1166.99184729     A.U. after    9 cycles
 SCF Done:  E(RB3LYP) =  -1166.99184859     A.U. after    9 cycles
 SCF Done:  E(RB3LYP) =  -1166.99184870     A.U. after    7 cycles
 SCF Done:  E(RB3LYP) =  -1166.99184872     A.U. after    7 cycles
 Optimization completed.
    -- Stationary point found.
 Normal termination of Gaussian 16 at Fri Dec 11 13:14:37 2020.

 --------------------------------------------------------------------
 #N Geom=AllCheck Guess=TCheck SCRF=Check GenChk RB3LYP/6-31G(d) Freq
 --------------------------------------------------------------------

 Structure from the checkpoint file:  "JID_7716.chk"
 -------------------------------
 CID_114132454_JID_7716_neutraal
 -------------------------------
 Charge =  0 Multiplicity = 1

 SCF Done:  E(RB3LYP) =  -1166.99184872     A.U. after    1 cycles

  Exact polarizability: 180.671  -2.813 138.157   1.308  -1.399 139.065
 Approx polarizability: 212.248  -1.826 205.337   0.956   0.076 221.083

                      1                      2                      3
                      A                      A                      A
 Frequencies --     13.3734                30.1057                33.1137
 Red. masses --      3.9506                 4.5841                 2.9097
 Frc consts  --      0.0004                 0.0024                 0.0019
 IR Inten    --      0.0786                 0.7211                 0.2905

                      4                      5                      6
                      A                      A                      A
 Frequencies --     59.0200                68.8851                79.5726
 Red. masses --      3.8886                 3.6997                 3.1727
 Frc consts  --      0.0080                 0.0103                 0.0118
 IR Inten    --      0.7351                 0.3710                 2.6201

                      7                      8                      9
                      A                      A                      A
 Frequencies --     89.3088               141.6606               187.6414
 Red. masses --      3.6925                 3.1411                 3.6526
 Frc consts  --      0.0174                 0.0371                 0.0758
 IR Inten    --      0.5996                 6.2326                 3.2862

                     10                     11                     12
                      A                      A                      A
 Frequencies --    192.6091               214.1210               218.4463
 Red. masses --      2.7933                 3.8546                 1.5882
 Frc consts  --      0.0611                 0.1041                 0.0447
 IR Inten    --      1.7636                 1.0405                 0.6947

                     13                     14                     15
                      A                      A                      A
 Frequencies --    242.0088               265.9869               273.1374
 Red. masses --      1.1876                 2.9499                 1.5635
 Frc consts  --      0.0410                 0.1230                 0.0687
 IR Inten    --      0.0853                 3.9816                84.3975

                     16                     17                     18
                      A                      A                      A
 Frequencies --    280.7109               289.3319               302.9537
 Red. masses --      1.8660                 1.7987                 2.3985
 Frc consts  --      0.0866                 0.0887                 0.1297
 IR Inten    --      1.7968                 0.3208                36.9667

                     19                     20                     21
                      A                      A                      A
 Frequencies --    314.7532               354.6743               373.0926
 Red. masses --      2.2209                 4.0148                 3.4340
 Frc consts  --      0.1296                 0.2976                 0.2816
 IR Inten    --      6.3667                 6.0385                 2.1802

                     22                     23                     24
                      A                      A                      A
 Frequencies --    380.6428               415.3840               427.2319
 Red. masses --      2.2211                 2.8438                 1.9369
 Frc consts  --      0.1896                 0.2891                 0.2083
 IR Inten    --      1.6393                 5.8879                 0.1102

                     25                     26                     27
                      A                      A                      A
 Frequencies --    451.4550               481.0943               486.3381
 Red. masses --      2.5561                 3.6605                 3.6747
 Frc consts  --      0.3069                 0.4992                 0.5121
 IR Inten    --     15.3744                 9.0816                 9.4706

                     28                     29                     30
                      A                      A                      A
 Frequencies --    533.4269               541.4232               569.3014
 Red. masses --      2.8627                 4.5166                 4.3793
 Frc consts  --      0.4799                 0.7801                 0.8363
 IR Inten    --      1.5644                33.8882                26.3624

                     31                     32                     33
                      A                      A                      A
 Frequencies --    627.5250               643.9553               728.3233
 Red. masses --      2.3188                 3.6079                 2.6693
 Frc consts  --      0.5380                 0.8815                 0.8342
 IR Inten    --    135.0776                44.0603                27.0074

                     34                     35                     36
                      A                      A                      A
 Frequencies --    766.7350               806.9188               842.5737
 Red. masses --      2.0642                 2.8084                 1.7658
 Frc consts  --      0.7150                 1.0774                 0.7386
 IR Inten    --     37.1266                 1.5715                57.8628

                     37                     38                     39
                      A                      A                      A
 Frequencies --    888.7821               889.4077               894.3476
 Red. masses --      2.0972                 1.4752                 2.1332
 Frc consts  --      0.9761                 0.6876                 1.0053
 IR Inten    --      6.4359                47.7336                65.0821

                     40                     41                     42
                      A                      A                      A
 Frequencies --    909.4076               930.3169               937.7418
 Red. masses --      2.1982                 2.1619                 2.5679
 Frc consts  --      1.0711                 1.1024                 1.3304
 IR Inten    --     19.3828                 5.2193               108.1222

                     43                     44                     45
                      A                      A                      A
 Frequencies --    943.6319               978.5343               980.8965
 Red. masses --      1.1806                 1.4186                 1.7843
 Frc consts  --      0.6194                 0.8003                 1.0115
 IR Inten    --      1.7899                 0.9681                 3.2260

                     46                     47                     48
                      A                      A                      A
 Frequencies --   1014.5033              1029.4044              1030.3330
 Red. masses --      1.8404                 1.6446                 1.6796
 Frc consts  --      1.1160                 1.0268                 1.0505
 IR Inten    --     20.0492                15.4620                 7.8948

                     49                     50                     51
                      A                      A                      A
 Frequencies --   1051.5563              1074.6841              1083.1940
 Red. masses --      2.3894                 1.9989                 4.5613
 Frc consts  --      1.5567                 1.3602                 3.1532
 IR Inten    --     62.1539                30.7111               104.3741

                     52                     53                     54
                      A                      A                      A
 Frequencies --   1097.3797              1110.0252              1129.2673
 Red. masses --      3.6416                 1.5272                 7.8267
 Frc consts  --      2.5838                 1.1087                 5.8806
 IR Inten    --     23.8815                 6.4824               149.3944

                     55                     56                     57
                      A                      A                      A
 Frequencies --   1141.5674              1163.2599              1169.8992
 Red. masses --      2.7426                 1.9563                 1.4478
 Frc consts  --      2.1058                 1.5597                 1.1675
 IR Inten    --     13.6950                 8.8570                18.9446

                     58                     59                     60
                      A                      A                      A
 Frequencies --   1173.9270              1205.1169              1209.6872
 Red. masses --      2.0270                 1.6052                 1.7408
 Frc consts  --      1.6459                 1.3735                 1.5009
 IR Inten    --      4.8009                20.1311                 7.1361

                     61                     62                     63
                      A                      A                      A
 Frequencies --   1239.8132              1258.4039              1266.8596
 Red. masses --      1.5202                 1.2159                 1.6099
 Frc consts  --      1.3768                 1.1344                 1.5223
 IR Inten    --     17.1445                 8.4815                 3.9181

                     64                     65                     66
                      A                      A                      A
 Frequencies --   1296.7137              1298.5910              1341.4820
 Red. masses --      1.3762                 1.2303                 1.3661
 Frc consts  --      1.3634                 1.2223                 1.4485
 IR Inten    --     17.7974                 6.6344                12.4406

                     67                     68                     69
                      A                      A                      A
 Frequencies --   1345.5474              1350.5307              1358.6569
 Red. masses --      3.1522                 1.3531                 1.3976
 Frc consts  --      3.3625                 1.4541                 1.5200
 IR Inten    --     98.5568                 6.8002                29.5328

                     70                     71                     72
                      A                      A                      A
 Frequencies --   1376.3939              1382.5139              1383.2752
 Red. masses --      1.3101                 1.4094                 1.4394
 Frc consts  --      1.4624                 1.5871                 1.6227
 IR Inten    --      6.7103                 1.1190                 6.4809

                     73                     74                     75
                      A                      A                      A
 Frequencies --   1400.1717              1405.4751              1408.8096
 Red. masses --      1.4494                 1.2517                 1.2723
 Frc consts  --      1.6742                 1.4568                 1.4878
 IR Inten    --      9.3935                 5.1676                15.6276

                     76                     77                     78
                      A                      A                      A
 Frequencies --   1415.9006              1416.9706              1426.1545
 Red. masses --      1.4815                 1.3509                 1.3620
 Frc consts  --      1.7500                 1.5981                 1.6322
 IR Inten    --      0.4321                10.9127                 0.9639

                     79                     80                     81
                      A                      A                      A
 Frequencies --   1432.1728              1443.0216              1452.6150
 Red. masses --      1.2640                 1.3337                 1.2390
 Frc consts  --      1.5276                 1.6362                 1.5403
 IR Inten    --      5.2493                14.1249                 4.2349

                     82                     83                     84
                      A                      A                      A
 Frequencies --   1458.5750              1503.6496              1512.6277
 Red. masses --      1.3146                 1.0899                 1.0858
 Frc consts  --      1.6477                 1.4519                 1.4638
 IR Inten    --     66.4954                 2.1846                 2.2039

                     85                     86                     87
                      A                      A                      A
 Frequencies --   1517.7750              1525.1969              1525.6640
 Red. masses --      1.0451                 1.0556                 1.0910
 Frc consts  --      1.4185                 1.4468                 1.4962
 IR Inten    --      1.3915                 3.6260                12.4355

                     88                     89                     90
                      A                      A                      A
 Frequencies --   1526.6273              1534.7161              1537.9079
 Red. masses --      1.0837                 1.0526                 1.0601
 Frc consts  --      1.4880                 1.4607                 1.4773
 IR Inten    --      0.6666                 6.6373                 7.4913

                     91                     92                     93
                      A                      A                      A
 Frequencies --   1540.2348              1543.2831              1551.3413
 Red. masses --      1.0842                 1.0930                 1.0680
 Frc consts  --      1.5154                 1.5338                 1.5144
 IR Inten    --     11.1070                 3.1192                13.4453

                     94                     95                     96
                      A                      A                      A
 Frequencies --   2983.8287              2995.7021              3006.1836
 Red. masses --      1.0723                 1.0721                 1.0824
 Frc consts  --      5.6248                 5.6685                 5.7633
 IR Inten    --     33.5955                34.7671                21.6502

                     97                     98                     99
                      A                      A                      A
 Frequencies --   3034.4380              3037.2192              3040.1452
 Red. masses --      1.0583                 1.0695                 1.0369
 Frc consts  --      5.7415                 5.8126                 5.6462
 IR Inten    --     17.4536                22.3982                36.6025

                    100                    101                    102
                      A                      A                      A
 Frequencies --   3045.3901              3046.7717              3055.1165
 Red. masses --      1.0395                 1.0630                 1.0725
 Frc consts  --      5.6801                 5.8140                 5.8981
 IR Inten    --     18.9067                 9.5573                10.4787

                    103                    104                    105
                      A                      A                      A
 Frequencies --   3057.2447              3058.1152              3081.9118
 Red. masses --      1.0695                 1.0717                 1.0973
 Frc consts  --      5.8897                 5.9054                 6.1408
 IR Inten    --     61.8865                17.0015                42.1356

                    106                    107                    108
                      A                      A                      A
 Frequencies --   3086.0482              3096.3677              3103.2948
 Red. masses --      1.0952                 1.1039                 1.1050
 Frc consts  --      6.1456                 6.2358                 6.2697
 IR Inten    --     42.7543                55.5508                26.9176

                    109                    110                    111
                      A                      A                      A
 Frequencies --   3104.6553              3109.8798              3114.2535
 Red. masses --      1.1013                 1.1007                 1.1025
 Frc consts  --      6.2543                 6.2722                 6.2997
 IR Inten    --     14.9116                58.3336                15.0638

                    112                    113                    114
                      A                      A                      A
 Frequencies --   3117.4267              3128.0861              3139.3795
 Red. masses --      1.1016                 1.0975                 1.0905
 Frc consts  --      6.3078                 6.3274                 6.3324
 IR Inten    --     65.9148                19.1350                 6.1248

                    115                    116                    117
                      A                      A                      A
 Frequencies --   3152.3313              3541.2700              3763.3668
 Red. masses --      1.0915                 1.0745                 1.0665
 Frc consts  --      6.3905                 7.9392                 8.8993
 IR Inten    --      5.0828                22.7274                11.6884

 - Thermochemistry -
 -------------------
 Temperature   298.150 Kelvin.  Pressure   1.00000 Atm.
 Atom     1 has atomic number  6 and mass  12.00000

 Molecular mass:   264.15076 amu.
 Principal axes and moments of inertia in atomic units:
                           1         2         3
     Eigenvalues --  2184.980689582.04462**********
           X            0.99998   0.00383   0.00550
           Y           -0.00361   0.99924  -0.03881
           Z           -0.00565   0.03879   0.99923
 This molecule is an asymmetric top.
 Rotational symmetry number  1.
 Warning -- assumption of classical behavior for rotation
           may cause significant error
 Rotational temperatures (Kelvin)      0.03964     0.00904     0.00861
 Rotational constants (GHZ):           0.82598     0.18835     0.17943
 Zero-point vibrational energy     954858.1 (Joules/Mol)
                                  228.21656 (Kcal/Mol)
 Warning -- explicit consideration of  30 degrees of freedom as
           vibrations may cause significant error
 Vibrational temperatures:     19.24    43.32    47.64    84.92    99.11
          (Kelvin)            114.49   128.50   203.82   269.97   277.12
                              308.07   314.30   348.20   382.70   392.98
                              403.88   416.28   435.88   452.86   510.30
                              536.80   547.66   597.64   614.69   649.54
                              692.19   699.73   767.48   778.99   819.10
                              902.87   926.51  1047.89  1103.16  1160.98
                             1212.28  1278.76  1279.66  1286.77  1308.43
                             1338.52  1349.20  1357.68  1407.89  1411.29
                             1459.64  1481.08  1482.42  1512.96  1546.23
                             1558.47  1578.88  1597.08  1624.76  1642.46
                             1673.67  1683.22  1689.02  1733.89  1740.47
                             1783.81  1810.56  1822.73  1865.68  1868.38
                             1930.09  1935.94  1943.11  1954.80  1980.32
                             1989.13  1990.22  2014.53  2022.17  2026.96
                             2037.17  2038.70  2051.92  2060.58  2076.19
                             2089.99  2098.56  2163.42  2176.33  2183.74
                             2194.42  2195.09  2196.48  2208.11  2212.71
                             2216.05  2220.44  2232.03  4293.06  4310.15
                             4325.23  4365.88  4369.88  4374.09  4381.64
                             4383.62  4395.63  4398.69  4399.95  4434.18
                             4440.14  4454.98  4464.95  4466.91  4474.42
                             4480.72  4485.28  4500.62  4516.87  4535.50
                             5095.10  5414.65

 Zero-point correction=                           0.363686 (Hartree/Particle)
 Thermal correction to Energy=                    0.382890
 Thermal correction to Enthalpy=                  0.383834
 Thermal correction to Gibbs Free Energy=         0.314192
 Sum of electronic and zero-point Energies=          -1166.628162
 Sum of electronic and thermal Energies=             -1166.608959
 Sum of electronic and thermal Enthalpies=           -1166.608015
 Sum of electronic and thermal Free Energies=        -1166.677657

                     E (Thermal)             CV                S
                      KCal/Mol        Cal/Mol-Kelvin    Cal/Mol-Kelvin
 Total                  240.267             72.074            146.574
 Electronic               0.000              0.000              0.000
 Translational            0.889              2.981             42.613
 Rotational               0.889              2.981             33.709
 Vibrational            238.489             66.113             70.252
 Vibration     1          0.593              1.987              7.434
 Vibration     2          0.594              1.984              5.822
 Vibration     3          0.594              1.983              5.634
 Vibration     4          0.596              1.974              4.490
 Vibration     5          0.598              1.969              4.185
 Vibration     6          0.600              1.963              3.901
 Vibration     7          0.602              1.957              3.675
 Vibration     8          0.615              1.912              2.781
 Vibration     9          0.632              1.857              2.251
 Vibration    10          0.635              1.850              2.203
 Vibration    11          0.644              1.819              2.008
 Vibration    12          0.646              1.813              1.972
 Vibration    13          0.658              1.776              1.788
 Vibration    14          0.672              1.735              1.622
 Vibration    15          0.676              1.723              1.576
 Vibration    16          0.680              1.709              1.529
 Vibration    17          0.686              1.694              1.478
 Vibration    18          0.694              1.668              1.401
 Vibration    19          0.702              1.645              1.337
 Vibration    20          0.731              1.566              1.145
 Vibration    21          0.745              1.527              1.067
 Vibration    22          0.750              1.511              1.037
 Vibration    23          0.779              1.437              0.908
 Vibration    24          0.789              1.411              0.868
 Vibration    25          0.810              1.358              0.791
 Vibration    26          0.837              1.292              0.707
 Vibration    27          0.842              1.280              0.693
 Vibration    28          0.888              1.176              0.580
 Vibration    29          0.897              1.158              0.562
 Vibration    30          0.925              1.098              0.506

                           ! Non-Optimized Parameters !
 Normal termination of Gaussian 16 at Fri Dec 11 13:31:24 2020.

 ----------------------------------------------------------------------
 # B3LYP/6-311++G(d,p) empiricaldispersion=gd3bj scf=xqc pop=npa geom=c
 heck
 ----------------------------------------------------------------------

 ---------------------------------------
 CID_114132454_JID_7716_Energie_neutraal
 ---------------------------------------
 Structure from the checkpoint file:  "JID_7716.chk"
 Charge =  0 Multiplicity = 1

 SCF Done:  E(RB3LYP) =  -1167.25244859     A.U. after   14 cycles
 Normal termination of Gaussian 16 at Fri Dec 11 13:38:34 2020.

 ----------------------------------------------------------------------
 # B3LYP/6-311++G(d,p) empiricaldispersion=gd3bj scf=xqc pop=npa geom=c
 heck
 ----------------------------------------------------------------------

 -------------------------------------
 CID_114132454_JID_7716_Energie_kation
 -------------------------------------
 Structure from the checkpoint file:  "JID_7716.chk"
 Charge =  1 Multiplicity = 2

 SCF Done:  E(UB3LYP) =  -1166.92790993     A.U. after   24 cycles
 Normal termination of Gaussian 16 at Fri Dec 11 13:55:30 2020.
 Gaussian 16:  ES64L-G16RevA.03 25-Dec-2016

 ----------------------------------------------------------------------
 # B3LYP/6-311++G(d,p) empiricaldispersion=gd3bj scf=xqc pop=npa geom=c
 heck
 ----------------------------------------------------------------------

 ------------------------------------
 CID_114132454_JID_7716_Energie_anion
 ------------------------------------
 Structure from the checkpoint file:  "JID_7716.chk"
 Charge = -1 Multiplicity = 2

                         Standard orientation:
 ---------------------------------------------------------------------
 Center     Atomic      Atomic             Coordinates (Angstroms)
 Number     Number       Type             X           Y           Z
 ---------------------------------------------------------------------
      1          6           0       -4.996080    0.621416   -0.128089
      2          6           0       -4.279175   -0.708235    0.140415
      3          6           0       -5.280566   -1.869058    0.176521
      4          6           0       -3.175517   -1.000270   -0.893326
      5          6           0       -2.109258    0.084488   -1.047616
      6          7           0       -1.419389    0.301262    0.237125
      7         16           0       -0.091072    1.359603    0.248828
      8          8           0       -0.006953    2.044390   -1.039255
      9          8           0       -0.185445    2.081696    1.515918
     10          7           0        1.256433    0.366217    0.348006
     11          6           0        1.362882   -0.413904    1.593689
     12          6           0        2.792666   -0.938401    1.732201
     13          6           0        3.204895   -1.744313    0.494306
     14          6           0        2.985490   -0.949850   -0.804246
     15          6           0        1.543027   -0.430555   -0.859354
     16          6           0        3.982232    0.207004   -0.983051
     17          8           0        5.337849   -0.229792   -0.967315
     18          1           0       -5.444695    0.625221   -1.129617
     19          1           0       -4.318990    1.480577   -0.065041
     20          1           0       -5.800441    0.782793    0.597971
     21          1           0       -3.811265   -0.652328    1.135261
     22          1           0       -5.794916   -1.967303   -0.787950
     23          1           0       -4.780019   -2.821164    0.387196
     24          1           0       -6.043434   -1.710124    0.946785
     25          1           0       -2.681454   -1.944172   -0.630654
     26          1           0       -3.643125   -1.146271   -1.877188
     27          1           0       -1.361806   -0.240067   -1.774992
     28          1           0       -2.542568    1.014840   -1.433951
     29          1           0       -2.046227    0.610693    0.975941
     30          1           0        0.646056   -1.251452    1.575101
     31          1           0        1.105921    0.242106    2.426017
     32          1           0        2.857797   -1.559727    2.632997
     33          1           0        3.465329   -0.085135    1.881315
     34          1           0        4.250812   -2.064503    0.562602
     35          1           0        2.604026   -2.662878    0.451058
     36          1           0        3.124549   -1.630776   -1.653700
     37          1           0        1.395996    0.211626   -1.729657
     38          1           0        0.843649   -1.280830   -0.927638
     39          1           0        3.824923    0.663269   -1.966070
     40          1           0        3.802318    0.988726   -0.233925
     41          1           0        5.598235   -0.349410   -0.042498
 ---------------------------------------------------------------------

 SCF Done:  E(UB3LYP) =  -1167.24541373     A.U. after   29 cycles

 The electronic state is 2-A.
 Alpha  occ. eigenvalues --  -88.99041 -19.03658 -19.03600 -19.03518 -14.25923
 Alpha  occ. eigenvalues --  -14.25557 -10.12673 -10.12430 -10.12272 -10.11697
 Alpha  occ. eigenvalues --  -10.09553 -10.09211 -10.08678 -10.08477 -10.08059
 Alpha  occ. eigenvalues --  -10.07873 -10.07478  -8.05025  -6.01270  -6.01259
 Alpha  occ. eigenvalues --   -6.01219  -1.04630  -0.93702  -0.93231  -0.86212
 Alpha  occ. eigenvalues --   -0.83822  -0.73195  -0.72370  -0.68847  -0.65618
 Alpha  occ. eigenvalues --   -0.60554  -0.60110  -0.59959  -0.55361  -0.54194
 Alpha  occ. eigenvalues --   -0.52144  -0.48069  -0.47310  -0.45878  -0.42981
 Alpha  occ. eigenvalues --   -0.42389  -0.41398  -0.39496  -0.38533  -0.37923
 Alpha  occ. eigenvalues --   -0.37228  -0.36839  -0.36316  -0.35683  -0.34094
 Alpha  occ. eigenvalues --   -0.33495  -0.32252  -0.31722  -0.31219  -0.30930
 Alpha  occ. eigenvalues --   -0.30316  -0.28992  -0.28699  -0.26785  -0.26354
 Alpha  occ. eigenvalues --   -0.25826  -0.25467  -0.25299  -0.24843  -0.24275
 Alpha  occ. eigenvalues --   -0.23918  -0.23397  -0.23245  -0.22507  -0.19984
 Alpha  occ. eigenvalues --   -0.18864  -0.16841   0.03595
 Alpha virt. eigenvalues --    0.05079   0.06319   0.06740   0.07284   0.07750
 Alpha virt. eigenvalues --    0.08100   0.08892   0.09505   0.09599   0.10040
 Alpha virt. eigenvalues --    0.10345   0.10750   0.10937   0.11853   0.12026

  Beta  occ. eigenvalues --  -88.99035 -19.03630 -19.03593 -19.03514 -14.25917
  Beta  occ. eigenvalues --  -14.25539 -10.12664 -10.12420 -10.12260 -10.11686
  Beta  occ. eigenvalues --  -10.09542 -10.09207 -10.08656 -10.08451 -10.08031
  Beta  occ. eigenvalues --  -10.07847 -10.07447  -8.05017  -6.01265  -6.01251
  Beta  occ. eigenvalues --   -6.01213  -1.04611  -0.93643  -0.93215  -0.86194
  Beta  occ. eigenvalues --   -0.83796  -0.73162  -0.72336  -0.68814  -0.65580
  Beta  occ. eigenvalues --   -0.60500  -0.60068  -0.59911  -0.55309  -0.54141
  Beta  occ. eigenvalues --   -0.52111  -0.48015  -0.47258  -0.45830  -0.42960
  Beta  occ. eigenvalues --   -0.42339  -0.41373  -0.39471  -0.38500  -0.37894
  Beta  occ. eigenvalues --   -0.37194  -0.36806  -0.36288  -0.35649  -0.34052
  Beta  occ. eigenvalues --   -0.33460  -0.32223  -0.31694  -0.31188  -0.30899
  Beta  occ. eigenvalues --   -0.30288  -0.28960  -0.28663  -0.26770  -0.26323
  Beta  occ. eigenvalues --   -0.25792  -0.25431  -0.25257  -0.24804  -0.24243
  Beta  occ. eigenvalues --   -0.23898  -0.23367  -0.23216  -0.22495  -0.19958
  Beta  occ. eigenvalues --   -0.18839  -0.16811
  Beta virt. eigenvalues --    0.05578   0.06087   0.06863   0.07257   0.07522
  Beta virt. eigenvalues --    0.08142   0.08393   0.09309   0.09781   0.09971
  Beta virt. eigenvalues --    0.10201   0.10441   0.10962   0.11182   0.12055

 Mulliken charges and spin densities:
               1          2
     1  C    0.509266  -1.152464
     2  C   -1.250425   1.788964
     3  C    0.467124  -1.073379
     4  C    0.879349  -1.518803
     5  C   -0.481502   0.057788
     6  N   -0.293280   0.065771
     7  S    0.598341  -0.131859
     8  O   -0.159906   0.007223
     9  O   -0.219519  -0.004752
    10  N    0.188274   0.044887
    11  C   -0.351767  -0.026214
    12  C    0.296865  -0.639932
    13  C    0.283798  -0.888654
    14  C   -0.997649   1.285222
    15  C   -0.099932  -0.626859
    16  C    0.466044  -0.998605
    17  O   -0.254216   0.011214
    18  H   -0.074875   0.223113
    19  H    0.116382   0.029266
    20  H   -0.116729   0.258637
    21  H   -0.053444   0.182164
    22  H   -0.047948   0.178525
    23  H   -0.229903   0.371601
    24  H   -0.186440   0.330245
    25  H   -0.051290   0.224232
    26  H   -0.090985   0.246222
    27  H   -0.030532   0.188623
    28  H    0.191197   0.001103
    29  H    0.210153   0.104686
    30  H    0.164920   0.031840
    31  H    0.079838   0.118942
    32  H   -0.452642   0.647471
    33  H    0.028856   0.107143
    34  H   -0.227647   0.403603
    35  H   -0.218957   0.346903
    36  H   -0.108054   0.313194
    37  H    0.160665   0.057725
    38  H    0.038420   0.128293
    39  H    0.198366  -0.019080
    40  H    0.115660   0.071879
    41  H    0.004123   0.254121
 Sum of Mulliken charges =  -1.00000   1.00000

 Dipole moment (field-independent basis, Debye):
    X=             -0.8081    Y=              2.7176    Z=             -1.4308  Tot=              3.1758
 Quadrupole moment (field-independent basis, Debye-Ang):
   XX=           -227.1277   YY=           -166.1294   ZZ=           -150.7521
   XY=              0.4618   XZ=              1.5623   YZ=              2.8782

 Summary of Natural Population Analysis:

                                       Natural Population
                Natural  -----------------------------------------------
    Atom  No    Charge         Core      Valence    Rydberg      Total
 -----------------------------------------------------------------------
      C    1   -0.28696      0.99965     2.28208    0.00523     3.28696
      C    2   -0.11888      0.99962     2.10872    0.01055     3.11888
      C    3   -0.28010      0.99965     2.27526    0.00519     3.28010
      C    4   -0.19188      0.99960     2.18206    0.01021     3.19188
      C    5   -0.09178      0.99961     2.07975    0.01242     3.09178
      N    6   -0.43828      0.99975     2.92724    0.01129     3.93828
      S    7    1.17653      4.99929     1.72063    0.10355     6.82347
      O    8   -0.45989      0.99990     3.45509    0.00490     4.45989
      O    9   -0.46193      0.99990     3.45691    0.00512     4.46193
      N   10   -0.36939      0.99970     2.85641    0.01328     3.86939
      C   11   -0.09127      0.99960     2.07991    0.01176     3.09127
      C   12   -0.19581      0.99962     2.18620    0.00998     3.19581
      C   13   -0.19429      0.99961     2.18425    0.01043     3.19429
      C   14   -0.12729      0.99958     2.11493    0.01278     3.12729
      C   15   -0.09236      0.99958     2.08020    0.01257     3.09236
      C   16   -0.00933      0.99955     1.99781    0.01197     3.00933
      O   17   -0.36926      0.99990     3.36308    0.00629     4.36926
      H   18    0.09738      0.00000     0.40165    0.00097     0.40262
      H   19    0.09793      0.00000     0.40103    0.00103     0.40207
      H   20    0.10147      0.00000     0.39756    0.00097     0.39853
      H   21    0.09097      0.00000     0.40709    0.00195     0.40903
      H   22    0.09588      0.00000     0.40296    0.00116     0.40412
      H   23    0.10170      0.00000     0.39701    0.00129     0.39830
      H   24    0.09939      0.00000     0.39950    0.00111     0.40061
      H   25    0.10445      0.00000     0.39404    0.00151     0.39555
      H   26    0.09978      0.00000     0.39918    0.00104     0.40022
      H   27    0.10191      0.00000     0.39695    0.00113     0.39809
      H   28    0.09211      0.00000     0.40652    0.00137     0.40789
      H   29    0.19711      0.00000     0.30051    0.00238     0.30289
      H   30    0.09238      0.00000     0.40593    0.00169     0.40762
      H   31    0.11175      0.00000     0.38705    0.00120     0.38825
      H   32    0.10626      0.00000     0.39234    0.00140     0.39374
      H   33    0.09632      0.00000     0.40228    0.00140     0.40368
      H   34    0.10423      0.00000     0.39407    0.00169     0.39577
      H   35    0.10182      0.00000     0.39653    0.00165     0.39818
      H   36    0.10469      0.00000     0.39429    0.00102     0.39531
      H   37    0.11175      0.00000     0.38697    0.00128     0.38825
      H   38    0.09400      0.00000     0.40451    0.00149     0.40600
      H   39    0.08562      0.00000     0.41322    0.00116     0.41438
      H   40    0.08380      0.00000     0.41468    0.00152     0.41620
      H   41    0.22947      0.00000     0.26714    0.00339     0.27053
 =======================================================================
   * Total *   -0.00000     20.99412    50.71356    0.29232    72.00000

 Normal termination of Gaussian 16 at Fri Dec 11 14:14:48 2020.
