 Gaussian 16, Revision A.03,

 -----------------------------------------------------------
 # opt freq B3LYP/6-31G(d) empiricaldispersion=gd3bj scf=xqc
 -----------------------------------------------------------

 -----------------------------
 CID_2838507_JID_1463_neutraal
 -----------------------------
 Symbolic Z-matrix:
 Charge =  0 Multiplicity = 1

 SCF Done:  E(RB3LYP) =  -554.971308128     A.U. after   14 cycles
 SCF Done:  E(RB3LYP) =  -554.966021498     A.U. after   14 cycles
 SCF Done:  E(RB3LYP) =  -554.977082139     A.U. after   13 cycles
 SCF Done:  E(RB3LYP) =  -554.978990680     A.U. after   13 cycles
 SCF Done:  E(RB3LYP) =  -554.979468922     A.U. after   13 cycles
 SCF Done:  E(RB3LYP) =  -554.980347778     A.U. after   12 cycles
 SCF Done:  E(RB3LYP) =  -554.980505718     A.U. after   12 cycles
 SCF Done:  E(RB3LYP) =  -554.980780772     A.U. after   11 cycles
 SCF Done:  E(RB3LYP) =  -554.980819931     A.U. after   10 cycles
 SCF Done:  E(RB3LYP) =  -554.980819852     A.U. after   11 cycles
 SCF Done:  E(RB3LYP) =  -554.980829557     A.U. after    9 cycles
 SCF Done:  E(RB3LYP) =  -554.980829789     A.U. after    8 cycles
 SCF Done:  E(RB3LYP) =  -554.980829758     A.U. after    8 cycles
 SCF Done:  E(RB3LYP) =  -554.980829748     A.U. after    7 cycles
 Optimization completed.
    -- Stationary point found.
 Normal termination of Gaussian 16 at Tue Dec  8 20:08:21 2020.

 --------------------------------------------------------------------
 #N Geom=AllCheck Guess=TCheck SCRF=Check GenChk RB3LYP/6-31G(d) Freq
 --------------------------------------------------------------------

 Structure from the checkpoint file:  "JID_1463.chk"
 -----------------------------
 CID_2838507_JID_1463_neutraal
 -----------------------------
 Charge =  0 Multiplicity = 1

 SCF Done:  E(RB3LYP) =  -554.980829748     A.U. after    1 cycles

  Exact polarizability:  97.131   1.728  80.474   3.742   1.729  83.493
 Approx polarizability: 130.897   4.115 114.316  10.219   1.282 130.440

                      1                      2                      3
                      A                      A                      A
 Frequencies --     32.0634                53.9039               131.9583
 Red. masses --      6.1558                 5.3318                 4.1899
 Frc consts  --      0.0037                 0.0091                 0.0430
 IR Inten    --      2.0718                 0.2067                 4.0934

                      4                      5                      6
                      A                      A                      A
 Frequencies --    205.8299               210.7736               216.3458
 Red. masses --      2.6607                 1.5219                 2.9626
 Frc consts  --      0.0664                 0.0398                 0.0817
 IR Inten    --      3.4424                 0.6219                 0.5445

                      7                      8                      9
                      A                      A                      A
 Frequencies --    237.0616               260.3202               278.9717
 Red. masses --      2.9427                 1.2163                 2.3674
 Frc consts  --      0.0974                 0.0486                 0.1086
 IR Inten    --      3.4624                 0.3621                 1.6395

                     10                     11                     12
                      A                      A                      A
 Frequencies --    295.7371               341.3929               377.0446
 Red. masses --      2.7735                 2.4773                 2.5814
 Frc consts  --      0.1429                 0.1701                 0.2162
 IR Inten    --      2.2595                 2.6327                 0.7687

                     13                     14                     15
                      A                      A                      A
 Frequencies --    409.4525               459.6913               520.3469
 Red. masses --      3.0554                 3.7806                 3.6352
 Frc consts  --      0.3018                 0.4707                 0.5799
 IR Inten    --      2.0777                 5.9726                30.4577

                     16                     17                     18
                      A                      A                      A
 Frequencies --    540.6868               559.0558               577.4248
 Red. masses --      3.0367                 1.1852                 3.4237
 Frc consts  --      0.5230                 0.2183                 0.6726
 IR Inten    --     43.8265               116.5890                15.0340

                     19                     20                     21
                      A                      A                      A
 Frequencies --    639.8213               679.9715               755.5036
 Red. masses --      3.2135                 1.3782                 3.2274
 Frc consts  --      0.7751                 0.3754                 1.0854
 IR Inten    --     23.5513                75.4516                46.1100

                     22                     23                     24
                      A                      A                      A
 Frequencies --    809.0282               844.9258               892.6332
 Red. masses --      3.3389                 3.0233                 1.8884
 Frc consts  --      1.2876                 1.2717                 0.8865
 IR Inten    --     22.3992                 6.0128                 2.6837

                     25                     26                     27
                      A                      A                      A
 Frequencies --    951.4967               964.1581               971.8933
 Red. masses --      2.7703                 1.7159                 1.8357
 Frc consts  --      1.4777                 0.9398                 1.0216
 IR Inten    --      6.1720                 1.2212                22.4706

                     28                     29                     30
                      A                      A                      A
 Frequencies --   1005.8641              1022.1714              1045.9949
 Red. masses --      1.5928                 1.8683                 1.3853
 Frc consts  --      0.9495                 1.1501                 0.8930
 IR Inten    --      9.3930                39.2768                10.3773

                     31                     32                     33
                      A                      A                      A
 Frequencies --   1103.7000              1114.0804              1134.2079
 Red. masses --      1.6350                 3.8220                 1.3699
 Frc consts  --      1.1735                 2.7949                 1.0383
 IR Inten    --      7.9925                75.4592                 1.9379

                     34                     35                     36
                      A                      A                      A
 Frequencies --   1154.7663              1188.9533              1209.2346
 Red. masses --      1.6142                 1.4981                 2.0239
 Frc consts  --      1.2682                 1.2478                 1.7437
 IR Inten    --     23.5259                28.2183               166.2784

                     37                     38                     39
                      A                      A                      A
 Frequencies --   1217.9628              1271.2993              1306.7061
 Red. masses --      2.6729                 2.3900                 1.5377
 Frc consts  --      2.3362                 2.2759                 1.5469
 IR Inten    --      2.6758                11.6225                31.0347

                     40                     41                     42
                      A                      A                      A
 Frequencies --   1344.2157              1377.1882              1410.9214
 Red. masses --      2.4960                 1.4015                 2.7287
 Frc consts  --      2.6572                 1.5661                 3.2005
 IR Inten    --     52.5693                13.3113                23.8385

                     43                     44                     45
                      A                      A                      A
 Frequencies --   1420.8631              1425.7052              1452.3305
 Red. masses --      1.2792                 1.2626                 1.2562
 Frc consts  --      1.5216                 1.5121                 1.5611
 IR Inten    --      2.0057                 3.3798                 6.0773

                     46                     47                     48
                      A                      A                      A
 Frequencies --   1466.0148              1511.9426              1514.7105
 Red. masses --      1.1701                 1.0587                 1.0468
 Frc consts  --      1.4817                 1.4259                 1.4151
 IR Inten    --     37.4019                 1.4437                 0.4881

                     49                     50                     51
                      A                      A                      A
 Frequencies --   1523.4175              1530.6277              1539.9020
 Red. masses --      1.0753                 1.0565                 1.0692
 Frc consts  --      1.4703                 1.4583                 1.4938
 IR Inten    --      2.3261                 3.8286                 6.3536

                     52                     53                     54
                      A                      A                      A
 Frequencies --   1546.8047              1848.1045              3002.7275
 Red. masses --      1.1753                 9.7021                 1.0697
 Frc consts  --      1.6568                19.5241                 5.6826
 IR Inten    --      8.0145               279.0369                48.5645

                     55                     56                     57
                      A                      A                      A
 Frequencies --   3052.1490              3067.9087              3093.0613
 Red. masses --      1.0370                 1.0374                 1.0935
 Frc consts  --      5.6919                 5.7527                 6.1639
 IR Inten    --     25.3508                13.0904                27.9139

                     58                     59                     60
                      A                      A                      A
 Frequencies --   3106.9459              3117.8639              3133.5782
 Red. masses --      1.0502                 1.1008                 1.1028
 Frc consts  --      5.9731                 6.3049                 6.3803
 IR Inten    --     28.6766                39.2763                16.2685

                     61                     62                     63
                      A                      A                      A
 Frequencies --   3145.7539              3147.1030              3160.4946
 Red. masses --      1.1008                 1.0897                 1.1002
 Frc consts  --      6.4182                 6.3588                 6.4748
 IR Inten    --     37.1523                 6.1826                12.9533

                     64                     65                     66
                      A                      A                      A
 Frequencies --   3181.7781              3660.3017              3733.4577
 Red. masses --      1.1189                 1.0641                 1.0657
 Frc consts  --      6.6742                 8.3997                 8.7520
 IR Inten    --     25.4822                69.5799               165.2786

 - Thermochemistry -
 -------------------
 Temperature   298.150 Kelvin.  Pressure   1.00000 Atm.
 Atom     1 has atomic number  6 and mass  12.00000

 Molecular mass:   159.08954 amu.
 Principal axes and moments of inertia in atomic units:
                           1         2         3
     Eigenvalues --  1129.304552039.433852240.66375
           X            0.99982   0.00646  -0.01791
           Y           -0.00581   0.99932   0.03649
           Z            0.01813  -0.03638   0.99917
 This molecule is an asymmetric top.
 Rotational symmetry number  1.
 Warning -- assumption of classical behavior for rotation
           may cause significant error
 Rotational temperatures (Kelvin)      0.07670     0.04247     0.03866
 Rotational constants (GHZ):           1.59810     0.88492     0.80545
 Zero-point vibrational energy     535378.6 (Joules/Mol)
                                  127.95855 (Kcal/Mol)
 Warning -- explicit consideration of  18 degrees of freedom as
           vibrations may cause significant error
 Vibrational temperatures:     46.13    77.56   189.86   296.14   303.26
          (Kelvin)            311.27   341.08   374.54   401.38   425.50
                              491.19   542.48   589.11   661.39   748.66
                              777.93   804.36   830.79   920.56   978.33
                             1087.00  1164.01  1215.66  1284.30  1368.99
                             1387.21  1398.34  1447.21  1470.68  1504.95
                             1587.98  1602.91  1631.87  1661.45  1710.64
                             1739.82  1752.38  1829.12  1880.06  1934.03
                             1981.47  2030.00  2044.31  2051.27  2089.58
                             2109.27  2175.35  2179.33  2191.86  2202.23
                             2215.58  2225.51  2659.01  4320.26  4391.36
                             4414.04  4450.23  4470.20  4485.91  4508.52
                             4526.04  4527.98  4547.25  4577.87  5266.36
                             5371.61

 Zero-point correction=                           0.203915 (Hartree/Particle)
 Thermal correction to Energy=                    0.215643
 Thermal correction to Enthalpy=                  0.216587
 Thermal correction to Gibbs Free Energy=         0.166331
 Sum of electronic and zero-point Energies=           -554.776915
 Sum of electronic and thermal Energies=              -554.765187
 Sum of electronic and thermal Enthalpies=            -554.764242
 Sum of electronic and thermal Free Energies=         -554.814499

                     E (Thermal)             CV                S
                      KCal/Mol        Cal/Mol-Kelvin    Cal/Mol-Kelvin
 Total                  135.318             44.376            105.774
 Electronic               0.000              0.000              0.000
 Translational            0.889              2.981             41.102
 Rotational               0.889              2.981             30.024
 Vibrational            133.541             38.414             34.648
 Vibration     1          0.594              1.983              5.697
 Vibration     2          0.596              1.976              4.669
 Vibration     3          0.612              1.921              2.917
 Vibration     4          0.640              1.832              2.080
 Vibration     5          0.643              1.824              2.037
 Vibration     6          0.645              1.816              1.989
 Vibration     7          0.656              1.784              1.825
 Vibration     8          0.668              1.745              1.660
 Vibration     9          0.679              1.712              1.540
 Vibration    10          0.690              1.682              1.441
 Vibration    11          0.721              1.593              1.206
 Vibration    12          0.748              1.519              1.051
 Vibration    13          0.774              1.450              0.929
 Vibration    14          0.818              1.339              0.767
 Vibration    15          0.875              1.205              0.609
 Vibration    16          0.896              1.160              0.564
 Vibration    17          0.915              1.120              0.526
 Vibration    18          0.934              1.080              0.490

                           ! Non-Optimized Parameters !
 Normal termination of Gaussian 16 at Tue Dec  8 20:13:54 2020.

 ----------------------------------------------------------------------
 # B3LYP/6-311++G(d,p) empiricaldispersion=gd3bj scf=xqc pop=npa geom=c
 heck
 ----------------------------------------------------------------------

 -------------------------------------
 CID_2838507_JID_1463_Energie_neutraal
 -------------------------------------
 Structure from the checkpoint file:  "JID_1463.chk"
 Charge =  0 Multiplicity = 1

 SCF Done:  E(RB3LYP) =  -555.158606988     A.U. after   14 cycles
 Normal termination of Gaussian 16 at Tue Dec  8 20:17:08 2020.

 ----------------------------------------------------------------------
 # B3LYP/6-311++G(d,p) empiricaldispersion=gd3bj scf=xqc pop=npa geom=c
 heck
 ----------------------------------------------------------------------

 -----------------------------------
 CID_2838507_JID_1463_Energie_kation
 -----------------------------------
 Structure from the checkpoint file:  "JID_1463.chk"
 Charge =  1 Multiplicity = 2

 SCF Done:  E(UB3LYP) =  -554.842969312     A.U. after   19 cycles
 Normal termination of Gaussian 16 at Tue Dec  8 20:22:26 2020.
 Gaussian 16:  ES64L-G16RevA.03 25-Dec-2016

 ----------------------------------------------------------------------
 # B3LYP/6-311++G(d,p) empiricaldispersion=gd3bj scf=xqc pop=npa geom=c
 heck
 ----------------------------------------------------------------------

 ----------------------------------
 CID_2838507_JID_1463_Energie_anion
 ----------------------------------
 Structure from the checkpoint file:  "JID_1463.chk"
 Charge = -1 Multiplicity = 2

                         Standard orientation:
 ---------------------------------------------------------------------
 Center     Atomic      Atomic             Coordinates (Angstroms)
 Number     Number       Type             X           Y           Z
 ---------------------------------------------------------------------
      1          6           0       -1.152747    0.341773    1.682458
      2          6           0       -1.391978   -0.040597    0.220403
      3          6           0       -2.809406   -0.615457    0.038674
      4          6           0       -1.289524    1.200540   -0.695086
      5          8           0       -0.182979    2.051410   -0.465257
      6          7           0       -0.500953   -1.183971   -0.096265
      7          6           0        0.220986   -1.420864   -1.317659
      8          6           0        0.951154   -1.302596   -0.009677
      9          6           0        1.923568   -0.194442    0.263792
     10          8           0        2.497569   -0.046055    1.316448
     11          8           0        2.177859    0.623171   -0.808062
     12          1           0       -1.896260    1.077824    2.005033
     13          1           0       -0.163523    0.783394    1.819727
     14          1           0       -1.236115   -0.543372    2.320592
     15          1           0       -3.569308    0.120264    0.322992
     16          1           0       -2.982907   -0.902586   -1.005317
     17          1           0       -2.930620   -1.507165    0.658797
     18          1           0       -1.344001    0.880879   -1.747964
     19          1           0       -2.177945    1.812075   -0.506598
     20          1           0        0.598709    1.649214   -0.874954
     21          1           0        0.094863   -2.400895   -1.777317
     22          1           0        0.369819   -0.607717   -2.028349
     23          1           0        1.270274   -2.195051    0.526864
     24          1           0        2.821784    1.282574   -0.482110
 ---------------------------------------------------------------------

 SCF Done:  E(UB3LYP) =  -555.144853939     A.U. after   33 cycles
 SCF Done:  E(UB3LYP) =  -555.144853939     a.u. after    1 cycles

 The electronic state is 2-A.
 Alpha  occ. eigenvalues --  -19.07247 -19.01686 -19.01040 -14.21945 -10.20694
 Alpha  occ. eigenvalues --  -10.11733 -10.11491 -10.11082 -10.10269 -10.05976
 Alpha  occ. eigenvalues --  -10.05627  -1.01146  -0.92471  -0.91535  -0.87407
 Alpha  occ. eigenvalues --   -0.71737  -0.60595  -0.59196  -0.57483  -0.54990
 Alpha  occ. eigenvalues --   -0.50669  -0.45998  -0.41805  -0.40499  -0.39209
 Alpha  occ. eigenvalues --   -0.38595  -0.35234  -0.34833  -0.34365  -0.32375
 Alpha  occ. eigenvalues --   -0.31186  -0.29559  -0.29172  -0.28530  -0.26609
 Alpha  occ. eigenvalues --   -0.25778  -0.24302  -0.23501  -0.22626  -0.21808
 Alpha  occ. eigenvalues --   -0.18285  -0.17868  -0.12925   0.04742
 Alpha virt. eigenvalues --    0.06913   0.07443   0.07686   0.08706   0.09642
 Alpha virt. eigenvalues --    0.10396   0.10673   0.11612   0.11843   0.13480
 Alpha virt. eigenvalues --    0.14013   0.14139   0.14891   0.15541   0.16509

  Beta  occ. eigenvalues --  -19.07175 -19.01645 -19.01026 -14.21939 -10.20638
  Beta  occ. eigenvalues --  -10.11717 -10.11491 -10.11061 -10.10227 -10.05952
  Beta  occ. eigenvalues --  -10.05615  -1.01023  -0.92384  -0.91493  -0.87393
  Beta  occ. eigenvalues --   -0.71718  -0.60468  -0.59151  -0.57429  -0.54917
  Beta  occ. eigenvalues --   -0.50545  -0.45901  -0.41738  -0.40460  -0.39153
  Beta  occ. eigenvalues --   -0.38515  -0.35077  -0.34795  -0.34331  -0.32318
  Beta  occ. eigenvalues --   -0.31122  -0.29517  -0.29121  -0.28506  -0.26578
  Beta  occ. eigenvalues --   -0.25744  -0.24231  -0.23466  -0.22594  -0.21707
  Beta  occ. eigenvalues --   -0.18206  -0.17847  -0.12903
  Beta virt. eigenvalues --    0.07123   0.07915   0.08211   0.08771   0.09143
  Beta virt. eigenvalues --    0.10216   0.10839   0.11102   0.12109   0.12208
  Beta virt. eigenvalues --    0.13714   0.14281   0.14375   0.15272   0.15657

 Mulliken charges and spin densities:
               1          2
     1  C   -0.486334  -0.022885
     2  C   -1.649805   1.544992
     3  C    0.418194  -0.827641
     4  C    1.285353  -1.749883
     5  O   -0.252002   0.032381
     6  N    0.264002  -0.095750
     7  C    2.070228  -2.614552
     8  C   -1.031724   1.319494
     9  C    0.812470  -1.063221
    10  O   -0.264675   0.053965
    11  O   -0.245019   0.038750
    12  H    0.081784   0.057066
    13  H    0.062701   0.138411
    14  H    0.042736   0.111568
    15  H   -0.045000   0.163686
    16  H   -0.196319   0.349457
    17  H   -0.104872   0.270691
    18  H   -0.117998   0.271083
    19  H   -0.044611   0.220101
    20  H    0.321851  -0.026230
    21  H   -0.769616   0.955597
    22  H   -0.150260   0.315212
    23  H   -0.470584   0.718740
    24  H   -0.530501   0.838969
 Sum of Mulliken charges =  -1.00000   1.00000

 Dipole moment (field-independent basis, Debye):
    X=             -2.7735    Y=              0.7398    Z=              2.2667  Tot=              3.6576
 Quadrupole moment (field-independent basis, Debye-Ang):
   XX=           -117.0318   YY=           -110.7501   ZZ=           -101.1852
   XY=             -6.0291   XZ=             -2.1749   YZ=             -1.6490

 Summary of Natural Population Analysis:

                                       Natural Population
                Natural  -----------------------------------------------
    Atom  No    Charge         Core      Valence    Rydberg      Total
 -----------------------------------------------------------------------
      C    1   -0.28888      0.99961     2.28312    0.00615     3.28888
      C    2    0.04999      0.99955     1.93594    0.01452     2.95001
      C    3   -0.28379      0.99961     2.27637    0.00781     3.28379
      C    4   -0.01696      0.99951     2.00346    0.01399     3.01696
      O    5   -0.37855      0.99989     3.37159    0.00707     4.37855
      N    6   -0.25922      0.99969     2.74218    0.01735     3.75922
      C    7   -0.08558      0.99960     2.07392    0.01206     3.08558
      C    8   -0.06596      0.99954     2.05262    0.01380     3.06596
      C    9    0.40202      0.99968     1.57299    0.02531     2.59798
      O   10   -0.29431      0.99987     3.28834    0.00610     4.29431
      O   11   -0.35829      0.99988     3.34984    0.00857     4.35829
      H   12    0.09931      0.00000     0.39996    0.00072     0.40069
      H   13    0.11148      0.00000     0.38747    0.00106     0.38852
      H   14    0.10213      0.00000     0.39694    0.00094     0.39787
      H   15    0.09683      0.00000     0.40219    0.00098     0.40317
      H   16    0.10242      0.00000     0.39634    0.00123     0.39758
      H   17    0.10570      0.00000     0.39291    0.00139     0.39430
      H   18    0.08229      0.00000     0.41631    0.00140     0.41771
      H   19    0.08759      0.00000     0.41115    0.00126     0.41241
      H   20    0.23757      0.00000     0.25770    0.00473     0.26243
      H   21    0.09787      0.00000     0.39995    0.00218     0.40213
      H   22    0.09754      0.00000     0.39975    0.00270     0.40246
      H   23    0.10859      0.00000     0.38977    0.00164     0.39141
      H   24    0.25022      0.00000     0.23220    0.01759     0.24978
 =======================================================================
   * Total *   -0.00000     10.99644    31.83302    0.17053    43.00000

 Normal termination of Gaussian 16 at Tue Dec  8 20:31:28 2020.
