 Gaussian 16, Revision A.03,

 -----------------------------------------------------------
 # opt freq B3LYP/6-31G(d) empiricaldispersion=gd3bj scf=xqc
 -----------------------------------------------------------

 -----------------------------
 CID_1499180_JID_9486_neutraal
 -----------------------------
 Symbolic Z-matrix:
 Charge =  0 Multiplicity = 1

 SCF Done:  E(RB3LYP) =  -1268.08759583     A.U. after   17 cycles
 SCF Done:  E(RB3LYP) =  -1268.09763627     A.U. after   14 cycles
 SCF Done:  E(RB3LYP) =  -1268.09369131     A.U. after   15 cycles
 SCF Done:  E(RB3LYP) =  -1268.10218014     A.U. after   14 cycles
 SCF Done:  E(RB3LYP) =  -1268.10435720     A.U. after   15 cycles
 SCF Done:  E(RB3LYP) =  -1268.10822750     A.U. after   15 cycles
 SCF Done:  E(RB3LYP) =  -1268.10822311     A.U. after   15 cycles
 SCF Done:  E(RB3LYP) =  -1268.11027365     A.U. after   13 cycles
 SCF Done:  E(RB3LYP) =  -1268.11029633     A.U. after   14 cycles
 SCF Done:  E(RB3LYP) =  -1268.11071148     A.U. after   13 cycles
 SCF Done:  E(RB3LYP) =  -1268.11105378     A.U. after    8 cycles
 SCF Done:  E(RB3LYP) =  -1268.11105385     A.U. after    8 cycles
 SCF Done:  E(RB3LYP) =  -1268.11105394     A.U. after    8 cycles
 SCF Done:  E(RB3LYP) =  -1268.11105404     A.U. after    8 cycles
 SCF Done:  E(RB3LYP) =  -1268.11105415     A.U. after    7 cycles
 Optimization completed.
    -- Stationary point found.
 Normal termination of Gaussian 16 at Sat Dec 12 09:59:23 2020.

 --------------------------------------------------------------------
 #N Geom=AllCheck Guess=TCheck SCRF=Check GenChk RB3LYP/6-31G(d) Freq
 --------------------------------------------------------------------

 Structure from the checkpoint file:  "JID_9486.chk"
 -----------------------------
 CID_1499180_JID_9486_neutraal
 -----------------------------
 Charge =  0 Multiplicity = 1

 SCF Done:  E(RB3LYP) =  -1268.11105415     A.U. after    1 cycles

  Exact polarizability: 169.826 -36.042 129.761   5.870   3.332 161.721
 Approx polarizability: 264.254 -84.026 218.457  15.763  -2.576 332.995

                      1                      2                      3
                      A                      A                      A
 Frequencies --     17.2359                36.5141                40.2114
 Red. masses --      5.6754                 5.2223                 1.0489
 Frc consts  --      0.0010                 0.0041                 0.0010
 IR Inten    --      0.6209                 0.3500                 0.2047

                      4                      5                      6
                      A                      A                      A
 Frequencies --     63.6494                79.3959                87.2087
 Red. masses --      7.9183                 7.2858                10.9410
 Frc consts  --      0.0189                 0.0271                 0.0490
 IR Inten    --      2.5259                 0.4336                 2.1041

                      7                      8                      9
                      A                      A                      A
 Frequencies --    100.7652               121.9180               131.1136
 Red. masses --      5.3860                 8.7230                 7.1427
 Frc consts  --      0.0322                 0.0764                 0.0723
 IR Inten    --      0.9297                 1.5924                 0.4256

                     10                     11                     12
                      A                      A                      A
 Frequencies --    183.1537               200.8231               268.1978
 Red. masses --      5.0479                 6.1492                 6.8848
 Frc consts  --      0.0998                 0.1461                 0.2918
 IR Inten    --      4.2868                 0.7484                 0.2837

                     13                     14                     15
                      A                      A                      A
 Frequencies --    287.5414               320.5564               346.8541
 Red. masses --      5.0686                 4.2836                 4.9813
 Frc consts  --      0.2469                 0.2593                 0.3531
 IR Inten    --      1.5528                 4.0700                 0.5160

                     16                     17                     18
                      A                      A                      A
 Frequencies --    360.8254               379.1226               389.7748
 Red. masses --      4.7127                 4.3105                 2.1590
 Frc consts  --      0.3615                 0.3650                 0.1933
 IR Inten    --     20.2543                 4.1689                16.0395

                     19                     20                     21
                      A                      A                      A
 Frequencies --    421.9723               424.2085               444.3085
 Red. masses --      4.4258                 4.7437                 5.3712
 Frc consts  --      0.4643                 0.5030                 0.6247
 IR Inten    --      3.0294                 2.1622                 0.2176

                     22                     23                     24
                      A                      A                      A
 Frequencies --    468.8435               497.9291               512.9404
 Red. masses --      3.5896                 3.1869                 1.8393
 Frc consts  --      0.4649                 0.4655                 0.2851
 IR Inten    --      6.1603                79.8632                98.4453

                     25                     26                     27
                      A                      A                      A
 Frequencies --    540.4831               573.4553               590.0114
 Red. masses --      2.4293                 7.1515                 1.8046
 Frc consts  --      0.4181                 1.3856                 0.3701
 IR Inten    --     48.7963                17.5886                41.2062

                     28                     29                     30
                      A                      A                      A
 Frequencies --    617.1913               657.9228               666.4711
 Red. masses --      4.1489                 6.5153                 3.5947
 Frc consts  --      0.9312                 1.6616                 0.9407
 IR Inten    --      7.6574                 3.3616                60.3923

                     31                     32                     33
                      A                      A                      A
 Frequencies --    688.0109               718.2433               744.3884
 Red. masses --      5.2318                 3.8536                 7.8316
 Frc consts  --      1.4591                 1.1713                 2.5568
 IR Inten    --     24.7646                 1.8934                45.9982

                     34                     35                     36
                      A                      A                      A
 Frequencies --    767.9370               785.5963               792.1328
 Red. masses --      7.3459                 9.1127                 2.6725
 Frc consts  --      2.5524                 3.3136                 0.9880
 IR Inten    --     46.6450                23.7930                 5.8242

                     37                     38                     39
                      A                      A                      A
 Frequencies --    832.9464               846.5377               880.6076
 Red. masses --      1.9944                 1.2824                 8.5887
 Frc consts  --      0.8153                 0.5414                 3.9241
 IR Inten    --     21.3550                 3.6574                19.4174

                     40                     41                     42
                      A                      A                      A
 Frequencies --    887.5345               954.6489               958.2793
 Red. masses --      4.0205                 2.1060                 1.9232
 Frc consts  --      1.8659                 1.1308                 1.0405
 IR Inten    --      5.8332                 3.9197                 5.8916

                     43                     44                     45
                      A                      A                      A
 Frequencies --    966.2684               989.1193              1022.7596
 Red. masses --      1.4519                 5.8270                 1.4100
 Frc consts  --      0.7987                 3.3589                 0.8690
 IR Inten    --      3.2622                32.3656                 0.2296

                     46                     47                     48
                      A                      A                      A
 Frequencies --   1045.4188              1076.5095              1153.1776
 Red. masses --      2.7002                 1.5247                 1.2943
 Frc consts  --      1.7387                 1.0410                 1.0141
 IR Inten    --      2.8224                 7.2395                 7.1524

                     49                     50                     51
                      A                      A                      A
 Frequencies --   1155.5341              1218.2819              1233.7503
 Red. masses --      3.8911                 1.1281                 4.1307
 Frc consts  --      3.0611                 0.9865                 3.7045
 IR Inten    --    191.9027                 2.2977                14.7480

                     52                     53                     54
                      A                      A                      A
 Frequencies --   1246.9737              1268.1709              1296.4315
 Red. masses --      3.0029                 2.7838                 2.3187
 Frc consts  --      2.7511                 2.6378                 2.2961
 IR Inten    --      4.0741                43.7366                29.5835

                     55                     56                     57
                      A                      A                      A
 Frequencies --   1342.2832              1352.1982              1372.3317
 Red. masses --      2.5252                 2.3262                 5.6253
 Frc consts  --      2.6806                 2.5060                 6.2418
 IR Inten    --     23.1988                11.7941               385.6300

                     58                     59                     60
                      A                      A                      A
 Frequencies --   1410.1849              1442.0148              1443.6049
 Red. masses --      3.3191                 2.0221                 1.2556
 Frc consts  --      3.8888                 2.4774                 1.5416
 IR Inten    --    154.9604                16.4370                 0.5386

                     61                     62                     63
                      A                      A                      A
 Frequencies --   1445.7148              1472.9695              1486.8427
 Red. masses --      4.0598                 2.1105                 2.1728
 Frc consts  --      4.9994                 2.6979                 2.8301
 IR Inten    --     53.5908                37.3647                52.8840

                     64                     65                     66
                      A                      A                      A
 Frequencies --   1517.5828              1523.8804              1543.7754
 Red. masses --      1.0507                 1.1222                10.3701
 Frc consts  --      1.4257                 1.5355                14.5614
 IR Inten    --      4.6279                 9.2781                51.6640

                     67                     68                     69
                      A                      A                      A
 Frequencies --   1568.4516              1638.5206              1676.3945
 Red. masses --      2.6487                 5.9140                 5.8889
 Frc consts  --      3.8390                 9.3548                 9.7508
 IR Inten    --     74.8694                 4.0238                 3.2659

                     70                     71                     72
                      A                      A                      A
 Frequencies --   1826.4483              1837.8673              3045.8410
 Red. masses --      7.7784                10.3141                 1.0395
 Frc consts  --     15.2882                20.5262                 5.6817
 IR Inten    --    606.7925               334.5896                25.2836

                     73                     74                     75
                      A                      A                      A
 Frequencies --   3103.6254              3128.8720              3185.9191
 Red. masses --      1.0969                 1.1029                 1.0884
 Frc consts  --      6.2251                 6.3615                 6.5091
 IR Inten    --     19.4595                14.6575                12.7175

                     76                     77                     78
                      A                      A                      A
 Frequencies --   3191.7276              3210.6499              3223.0714
 Red. masses --      1.0893                 1.0937                 1.0934
 Frc consts  --      6.5383                 6.6424                 6.6924
 IR Inten    --     13.0067                 6.5022                 2.2069

                     79                     80                     81
                      A                      A                      A
 Frequencies --   3594.8538              3606.5658              3695.6042
 Red. masses --      1.0754                 1.0760                 1.0641
 Frc consts  --      8.1882                 8.2460                 8.5627
 IR Inten    --     50.5803                69.5331                80.9897

 - Thermochemistry -
 -------------------
 Temperature   298.150 Kelvin.  Pressure   1.00000 Atm.
 Atom     1 has atomic number  6 and mass  12.00000

 Molecular mass:   278.04736 amu.
 Principal axes and moments of inertia in atomic units:
                           1         2         3
     Eigenvalues --  3840.706145622.061816185.67798
           X            0.99998  -0.00499   0.00410
           Y            0.00492   0.99985   0.01685
           Z           -0.00418  -0.01683   0.99985
 This molecule is an asymmetric top.
 Rotational symmetry number  1.
 Warning -- assumption of classical behavior for rotation
           may cause significant error
 Rotational temperatures (Kelvin)      0.02255     0.01541     0.01400
 Rotational constants (GHZ):           0.46990     0.32101     0.29176
 Zero-point vibrational energy     551763.5 (Joules/Mol)
                                  131.87464 (Kcal/Mol)
 Warning -- explicit consideration of  28 degrees of freedom as
           vibrations may cause significant error
 Vibrational temperatures:     24.80    52.54    57.86    91.58   114.23
          (Kelvin)            125.47   144.98   175.41   188.64   263.52
                              288.94   385.88   413.71   461.21   499.05
                              519.15   545.47   560.80   607.12   610.34
                              639.26   674.56   716.41   738.01   777.63
                              825.07   848.89   888.00   946.60   958.90
                              989.89  1033.39  1071.01  1104.89  1130.30
                             1139.70  1198.42  1217.98  1267.00  1276.96
                             1373.53  1378.75  1390.24  1423.12  1471.52
                             1504.12  1548.86  1659.17  1662.56  1752.84
                             1775.09  1794.12  1824.62  1865.28  1931.25
                             1945.51  1974.48  2028.94  2074.74  2077.03
                             2080.06  2119.27  2139.23  2183.46  2192.52
                             2221.15  2256.65  2357.47  2411.96  2627.85
                             2644.28  4382.29  4465.42  4501.75  4583.83
                             4592.18  4619.41  4637.28  5172.19  5189.04
                             5317.15

 Zero-point correction=                           0.210156 (Hartree/Particle)
 Thermal correction to Energy=                    0.227614
 Thermal correction to Enthalpy=                  0.228558
 Thermal correction to Gibbs Free Energy=         0.162609
 Sum of electronic and zero-point Energies=          -1267.900899
 Sum of electronic and thermal Energies=             -1267.883440
 Sum of electronic and thermal Enthalpies=           -1267.882496
 Sum of electronic and thermal Free Energies=        -1267.948446

                     E (Thermal)             CV                S
                      KCal/Mol        Cal/Mol-Kelvin    Cal/Mol-Kelvin
 Total                  142.830             64.564            138.802
 Electronic               0.000              0.000              0.000
 Translational            0.889              2.981             42.766
 Rotational               0.889              2.981             33.257
 Vibrational            141.052             58.602             62.779
 Vibration     1          0.593              1.986              6.930
 Vibration     2          0.594              1.982              5.440
 Vibration     3          0.594              1.981              5.249
 Vibration     4          0.597              1.972              4.341
 Vibration     5          0.600              1.963              3.906
 Vibration     6          0.601              1.958              3.722
 Vibration     7          0.604              1.949              3.439
 Vibration     8          0.609              1.931              3.070
 Vibration     9          0.612              1.922              2.930
 Vibration    10          0.631              1.863              2.296
 Vibration    11          0.638              1.839              2.126
 Vibration    12          0.673              1.732              1.608
 Vibration    13          0.685              1.697              1.488
 Vibration    14          0.706              1.634              1.307
 Vibration    15          0.725              1.582              1.180
 Vibration    16          0.735              1.553              1.119
 Vibration    17          0.749              1.515              1.043
 Vibration    18          0.758              1.492              1.001
 Vibration    19          0.784              1.422              0.885
 Vibration    20          0.786              1.418              0.878
 Vibration    21          0.804              1.373              0.813
 Vibration    22          0.826              1.319              0.741
 Vibration    23          0.853              1.255              0.663
 Vibration    24          0.868              1.221              0.627
 Vibration    25          0.896              1.161              0.564
 Vibration    26          0.930              1.089              0.498
 Vibration    27          0.947              1.053              0.467
 Vibration    28          0.977              0.996              0.421

                           ! Non-Optimized Parameters !
 Normal termination of Gaussian 16 at Sat Dec 12 10:16:20 2020.

 ----------------------------------------------------------------------
 # B3LYP/6-311++G(d,p) empiricaldispersion=gd3bj scf=xqc pop=npa geom=c
 heck
 ----------------------------------------------------------------------

 -------------------------------------
 CID_1499180_JID_9486_Energie_neutraal
 -------------------------------------
 Structure from the checkpoint file:  "JID_9486.chk"
 Charge =  0 Multiplicity = 1

 SCF Done:  E(RB3LYP) =  -1268.38987274     A.U. after   17 cycles
 Normal termination of Gaussian 16 at Sat Dec 12 10:23:35 2020.

 ----------------------------------------------------------------------
 # B3LYP/6-311++G(d,p) empiricaldispersion=gd3bj scf=xqc pop=npa geom=c
 heck
 ----------------------------------------------------------------------

 -----------------------------------
 CID_1499180_JID_9486_Energie_kation
 -----------------------------------
 Structure from the checkpoint file:  "JID_9486.chk"
 Charge =  1 Multiplicity = 2

 SCF Done:  E(UB3LYP) =  -1268.07722709     A.U. after   33 cycles
 SCF Done:  E(UB3LYP) =  -1268.07722709     a.u. after    2 cycles
 Normal termination of Gaussian 16 at Sat Dec 12 11:03:53 2020.
 Gaussian 16:  ES64L-G16RevA.03 25-Dec-2016

 ----------------------------------------------------------------------
 # B3LYP/6-311++G(d,p) empiricaldispersion=gd3bj scf=xqc pop=npa geom=c
 heck
 ----------------------------------------------------------------------

 ----------------------------------
 CID_1499180_JID_9486_Energie_anion
 ----------------------------------
 Structure from the checkpoint file:  "JID_9486.chk"
 Charge = -1 Multiplicity = 2

                         Standard orientation:
 ---------------------------------------------------------------------
 Center     Atomic      Atomic             Coordinates (Angstroms)
 Number     Number       Type             X           Y           Z
 ---------------------------------------------------------------------
      1          6           0        4.605282   -0.088978    0.285558
      2          6           0        3.214943    0.485818    0.177174
      3          6           0        2.614748    0.693747   -1.070029
      4          6           0        1.317758    1.190260   -1.174500
      5          6           0        0.583040    1.465296   -0.018597
      6          6           0        1.168825    1.272660    1.234633
      7          6           0        2.473950    0.797676    1.323961
      8          7           0       -0.761051    1.945521   -0.093612
      9          6           0       -1.735749    1.549869   -0.982438
     10          8           0       -2.627642    2.278674   -1.376184
     11          7           0       -1.640207    0.222357   -1.448959
     12          6           0       -1.116712   -0.867149   -0.780315
     13          6           0       -1.095680   -1.124677    0.583667
     14          7           0       -0.381615   -2.244951    0.920213
     15          7           0        0.112519   -2.909528   -0.034300
     16         16           0       -0.223133   -2.100672   -1.588066
     17          6           0       -1.766621   -0.364453    1.664651
     18          8           0       -1.360740   -0.264495    2.800077
     19          8           0       -2.925545    0.190333    1.235875
     20          1           0        4.569652   -1.177301    0.424290
     21          1           0        5.191360    0.107350   -0.617899
     22          1           0        5.146275    0.329704    1.140524
     23          1           0        3.173256    0.472290   -1.975791
     24          1           0        0.870405    1.357528   -2.149093
     25          1           0        0.588428    1.457619    2.132140
     26          1           0        2.915389    0.643456    2.304894
     27          1           0       -0.941582    2.876017    0.262888
     28          1           0       -2.241895    0.053613   -2.245060
     29          1           0       -3.279966    0.700162    1.988046
 ---------------------------------------------------------------------

 SCF Done:  E(UB3LYP) =  -1268.41835351     A.U. after   30 cycles

 The electronic state is 2-A.
 Alpha  occ. eigenvalues --  -88.72540 -19.04094 -18.97229 -18.97183 -14.22973
 Alpha  occ. eigenvalues --  -14.22250 -14.20535 -14.20372 -10.18270 -10.16410
 Alpha  occ. eigenvalues --  -10.11075 -10.08304 -10.08033 -10.07756 -10.07248
 Alpha  occ. eigenvalues --  -10.07185 -10.07169 -10.06860 -10.05759  -7.81161
 Alpha  occ. eigenvalues --   -5.77483  -5.77113  -5.76740  -0.97878  -0.94070
 Alpha  occ. eigenvalues --   -0.89248  -0.88466  -0.83324  -0.80368  -0.75139
 Alpha  occ. eigenvalues --   -0.67192  -0.65509  -0.64732  -0.64381  -0.59279
 Alpha  occ. eigenvalues --   -0.53180  -0.52263  -0.50657  -0.49572  -0.48193
 Alpha  occ. eigenvalues --   -0.43988  -0.42123  -0.40321  -0.38028  -0.37017
 Alpha  occ. eigenvalues --   -0.36120  -0.35589  -0.34381  -0.33970  -0.33124
 Alpha  occ. eigenvalues --   -0.32908  -0.32104  -0.31233  -0.30983  -0.29736
 Alpha  occ. eigenvalues --   -0.28674  -0.28011  -0.26192  -0.25867  -0.24709
 Alpha  occ. eigenvalues --   -0.24266  -0.20637  -0.20031  -0.19738  -0.18357
 Alpha  occ. eigenvalues --   -0.16009  -0.15259  -0.15100  -0.13393  -0.12566
 Alpha  occ. eigenvalues --   -0.11343  -0.09860   0.03222
 Alpha virt. eigenvalues --    0.06966   0.08037   0.08311   0.08819   0.08999
 Alpha virt. eigenvalues --    0.09879   0.10216   0.10782   0.11103   0.11693
 Alpha virt. eigenvalues --    0.12277   0.12829   0.13576   0.13835   0.14337

  Beta  occ. eigenvalues --  -88.72458 -19.04075 -18.97151 -18.97023 -14.22955
  Beta  occ. eigenvalues --  -14.22295 -14.20369 -14.20100 -10.18181 -10.16296
  Beta  occ. eigenvalues --  -10.11070 -10.08302 -10.08033 -10.07234 -10.07181
  Beta  occ. eigenvalues --  -10.07161 -10.07027 -10.06846 -10.05801  -7.81088
  Beta  occ. eigenvalues --   -5.77453  -5.77084  -5.76455  -0.97746  -0.93915
  Beta  occ. eigenvalues --   -0.88904  -0.88194  -0.83194  -0.80059  -0.75107
  Beta  occ. eigenvalues --   -0.67143  -0.64967  -0.64672  -0.63925  -0.59255
  Beta  occ. eigenvalues --   -0.52876  -0.52060  -0.50520  -0.49280  -0.47783
  Beta  occ. eigenvalues --   -0.43904  -0.41914  -0.40042  -0.37885  -0.36990
  Beta  occ. eigenvalues --   -0.35969  -0.35405  -0.34150  -0.33887  -0.33071
  Beta  occ. eigenvalues --   -0.32611  -0.31997  -0.31010  -0.30525  -0.29585
  Beta  occ. eigenvalues --   -0.28280  -0.27490  -0.26158  -0.25472  -0.24647
  Beta  occ. eigenvalues --   -0.23815  -0.20199  -0.19338  -0.18925  -0.18058
  Beta  occ. eigenvalues --   -0.15818  -0.15073  -0.14807  -0.12469  -0.12289
  Beta  occ. eigenvalues --   -0.10161  -0.09125
  Beta virt. eigenvalues --    0.06947   0.08036   0.08310   0.08785   0.09021
  Beta virt. eigenvalues --    0.09681   0.10059   0.10619   0.10829   0.11659
  Beta virt. eigenvalues --    0.12211   0.12504   0.13007   0.13587   0.13849

 Mulliken charges and spin densities:
               1          2
     1  C   -0.703553  -0.012921
     2  C    0.310416  -0.014207
     3  C   -0.213436  -0.080595
     4  C   -0.000403   0.072627
     5  C   -0.222225   0.014699
     6  C    0.254346   0.013620
     7  C   -0.530848   0.025771
     8  N   -0.236859   0.006527
     9  C    0.178051   0.038371
    10  O   -0.372744   0.031679
    11  N   -0.366346  -0.027884
    12  C    0.788860   0.363066
    13  C   -0.844233  -0.018700
    14  N    0.089051  -0.002429
    15  N   -0.149674   0.164750
    16  S   -0.143793   0.222938
    17  C   -0.444721   0.077959
    18  O   -0.277990   0.049344
    19  O   -0.109069  -0.002876
    20  H    0.182675  -0.000391
    21  H    0.122820  -0.001434
    22  H    0.124559   0.000100
    23  H    0.128118   0.017286
    24  H    0.179155   0.008999
    25  H    0.199031  -0.002621
    26  H    0.167092   0.000905
    27  H    0.326221  -0.000498
    28  H    0.305626   0.056535
    29  H    0.259874  -0.000623
 Sum of Mulliken charges =  -1.00000   1.00000

 Dipole moment (field-independent basis, Debye):
    X=              3.9894    Y=              4.8463    Z=             -0.8846  Tot=              6.3392
 Quadrupole moment (field-independent basis, Debye-Ang):
   XX=           -135.0485   YY=           -150.7550   ZZ=           -135.6916
   XY=              4.6044   XZ=             -3.7149   YZ=              9.4465

 Summary of Natural Population Analysis:

                                       Natural Population
                Natural  -----------------------------------------------
    Atom  No    Charge         Core      Valence    Rydberg      Total
 -----------------------------------------------------------------------
      C    1   -0.29104      0.99964     2.28689    0.00451     3.29104
      C    2   -0.02335      0.99952     2.01621    0.00763     3.02335
      C    3   -0.09300      0.99952     2.08544    0.00804     3.09300
      C    4   -0.09734      0.99951     2.08979    0.00803     3.09734
      C    5    0.06958      0.99946     1.91750    0.01347     2.93042
      C    6   -0.09483      0.99951     2.08677    0.00854     3.09483
      C    7   -0.09444      0.99952     2.08706    0.00786     3.09444
      N    8   -0.33112      0.99963     2.82019    0.01130     3.83112
      C    9    0.42781      0.99971     1.54974    0.02274     2.57219
      O   10   -0.32886      0.99987     3.32311    0.00588     4.32886
      N   11   -0.33221      0.99963     2.82154    0.01104     3.83221
      C   12    0.12700      0.99947     1.85581    0.01772     2.87300
      C   13   -0.05508      0.99936     2.03705    0.01867     3.05508
      N   14   -0.09943      0.99969     2.57899    0.02075     3.59943
      N   15   -0.11312      0.99982     2.59794    0.01536     3.61312
      S   16    0.23135      4.99946     2.74663    0.02256     7.76865
      C   17    0.40585      0.99966     1.57014    0.02434     2.59415
      O   18   -0.30211      0.99987     3.29533    0.00691     4.30211
      O   19   -0.34520      0.99988     3.33899    0.00634     4.34520
      H   20    0.10618      0.00000     0.39288    0.00095     0.39382
      H   21    0.09770      0.00000     0.40141    0.00089     0.40230
      H   22    0.09787      0.00000     0.40122    0.00091     0.40213
      H   23    0.09557      0.00000     0.40300    0.00143     0.40443
      H   24    0.10518      0.00000     0.39360    0.00122     0.39482
      H   25    0.11161      0.00000     0.38705    0.00134     0.38839
      H   26    0.09642      0.00000     0.40232    0.00126     0.40358
      H   27    0.19594      0.00000     0.30277    0.00130     0.30406
      H   28    0.20281      0.00000     0.29572    0.00147     0.29719
      H   29    0.23028      0.00000     0.26565    0.00407     0.26972
 =======================================================================
   * Total *   -0.00000     22.99274    48.75073    0.25653    72.00000

 Normal termination of Gaussian 16 at Sat Dec 12 11:22:09 2020.
