 Gaussian 16, Revision A.03,

 -----------------------------------------------------------
 # opt freq B3LYP/6-31G(d) empiricaldispersion=gd3bj scf=xqc
 -----------------------------------------------------------

 -------------------------------
 CID_113353694_JID_7075_neutraal
 -------------------------------
 Symbolic Z-matrix:
 Charge =  0 Multiplicity = 1

 SCF Done:  E(RB3LYP) =  -750.131784717     A.U. after   14 cycles
 SCF Done:  E(RB3LYP) =  -750.142948181     A.U. after   12 cycles
 SCF Done:  E(RB3LYP) =  -750.143895280     A.U. after   11 cycles
 SCF Done:  E(RB3LYP) =  -750.144027075     A.U. after   10 cycles
 SCF Done:  E(RB3LYP) =  -750.144052734     A.U. after   10 cycles
 SCF Done:  E(RB3LYP) =  -750.144067861     A.U. after   10 cycles
 SCF Done:  E(RB3LYP) =  -750.144077882     A.U. after   10 cycles
 SCF Done:  E(RB3LYP) =  -750.144091659     A.U. after   10 cycles
 SCF Done:  E(RB3LYP) =  -750.144108510     A.U. after   10 cycles
 SCF Done:  E(RB3LYP) =  -750.144117879     A.U. after    9 cycles
 SCF Done:  E(RB3LYP) =  -750.147140061     A.U. after    7 cycles
 SCF Done:  E(RB3LYP) =  -750.147140688     A.U. after    7 cycles
 SCF Done:  E(RB3LYP) =  -750.147141295     A.U. after    8 cycles
 SCF Done:  E(RB3LYP) =  -750.147141603     A.U. after    8 cycles
 SCF Done:  E(RB3LYP) =  -750.147141669     A.U. after    6 cycles
 Optimization completed.
    -- Stationary point found.
 Normal termination of Gaussian 16 at Fri Dec 11 12:05:50 2020.

 --------------------------------------------------------------------
 #N Geom=AllCheck Guess=TCheck SCRF=Check GenChk RB3LYP/6-31G(d) Freq
 --------------------------------------------------------------------

 Structure from the checkpoint file:  "JID_7075.chk"
 -------------------------------
 CID_113353694_JID_7075_neutraal
 -------------------------------
 Charge =  0 Multiplicity = 1

 SCF Done:  E(RB3LYP) =  -750.147141669     A.U. after    1 cycles

  Exact polarizability: 199.054  18.579 132.062  12.845 -13.150 136.153
 Approx polarizability: 268.520  38.777 195.014  29.152 -31.340 227.396

                      1                      2                      3
                      A                      A                      A
 Frequencies --     29.5034                42.2601                51.4268
 Red. masses --      4.5982                 4.3707                 2.6927
 Frc consts  --      0.0024                 0.0046                 0.0042
 IR Inten    --      0.0094                 0.4947                 0.0124

                      4                      5                      6
                      A                      A                      A
 Frequencies --     93.6425               120.0867               125.9687
 Red. masses --      3.3272                 2.7954                 3.3053
 Frc consts  --      0.0172                 0.0238                 0.0309
 IR Inten    --      3.8189                 3.6498                 2.2121

                      7                      8                      9
                      A                      A                      A
 Frequencies --    140.2891               172.7030               187.7903
 Red. masses --      2.4512                 4.2436                 2.4182
 Frc consts  --      0.0284                 0.0746                 0.0502
 IR Inten    --      0.3214                 0.8913                 0.3557

                     10                     11                     12
                      A                      A                      A
 Frequencies --    244.4956               253.8187               286.3097
 Red. masses --      4.9267                 1.1149                 3.2988
 Frc consts  --      0.1735                 0.0423                 0.1593
 IR Inten    --      0.0970                 0.2318                 0.8895

                     13                     14                     15
                      A                      A                      A
 Frequencies --    295.1181               340.0457               352.0979
 Red. masses --      3.6213                 3.5484                 4.5332
 Frc consts  --      0.1858                 0.2417                 0.3311
 IR Inten    --      0.1671                 6.0168                 1.5501

                     16                     17                     18
                      A                      A                      A
 Frequencies --    390.7590               420.2417               428.1803
 Red. masses --      2.8632                 2.1894                 2.6922
 Frc consts  --      0.2576                 0.2278                 0.2908
 IR Inten    --      1.9391                 3.5446                 4.5199

                     19                     20                     21
                      A                      A                      A
 Frequencies --    479.1868               541.5841               548.6590
 Red. masses --      3.5135                 2.3595                 3.7134
 Frc consts  --      0.4753                 0.4078                 0.6586
 IR Inten    --      6.7558                31.7847                 1.3772

                     22                     23                     24
                      A                      A                      A
 Frequencies --    605.6727               628.4352               639.3910
 Red. masses --      2.9509                 3.0289                 2.7392
 Frc consts  --      0.6378                 0.7048                 0.6598
 IR Inten    --     67.2202                 7.2121                24.4571

                     25                     26                     27
                      A                      A                      A
 Frequencies --    667.2688               699.7295               733.5310
 Red. masses --      2.3215                 5.0119                 7.5271
 Frc consts  --      0.6090                 1.4458                 2.3862
 IR Inten    --     16.0780                 2.0740                 3.8973

                     28                     29                     30
                      A                      A                      A
 Frequencies --    769.3235               794.5161               801.9988
 Red. masses --      1.6689                 1.5621                 1.5113
 Frc consts  --      0.5820                 0.5810                 0.5727
 IR Inten    --      7.0959                35.1648                 5.2184

                     31                     32                     33
                      A                      A                      A
 Frequencies --    804.5538               831.4656               838.2204
 Red. masses --      2.5529                 1.8268                 3.3868
 Frc consts  --      0.9736                 0.7441                 1.4020
 IR Inten    --      9.1348                22.7266                26.0039

                     34                     35                     36
                      A                      A                      A
 Frequencies --    862.0499               885.8182               901.5241
 Red. masses --      2.2638                 1.8167                 1.2640
 Frc consts  --      0.9912                 0.8399                 0.6053
 IR Inten    --      2.7102                 8.4867                 1.0176

                     37                     38                     39
                      A                      A                      A
 Frequencies --    909.3386               945.6742               946.9328
 Red. masses --      1.9584                 2.2745                 2.3579
 Frc consts  --      0.9541                 1.1984                 1.2457
 IR Inten    --      1.7166                 2.8449                11.6802

                     40                     41                     42
                      A                      A                      A
 Frequencies --    970.2746               974.5666               984.8167
 Red. masses --      1.6710                 3.3243                 2.7277
 Frc consts  --      0.9269                 1.8603                 1.5587
 IR Inten    --      6.5973                31.6995                 1.6221

                     43                     44                     45
                      A                      A                      A
 Frequencies --    994.2673              1031.9831              1059.8461
 Red. masses --      2.2145                 1.5322                 1.4519
 Frc consts  --      1.2898                 0.9614                 0.9609
 IR Inten    --      8.3210                 2.7312                 2.0697

                     46                     47                     48
                      A                      A                      A
 Frequencies --   1076.7782              1088.8989              1124.5261
 Red. masses --      4.5533                 2.4815                 2.4258
 Frc consts  --      3.1105                 1.7335                 1.8074
 IR Inten    --    131.9854                 6.1556                20.5110

                     49                     50                     51
                      A                      A                      A
 Frequencies --   1138.7183              1156.5645              1168.1495
 Red. masses --      2.3144                 1.5442                 1.7930
 Frc consts  --      1.7681                 1.2170                 1.4415
 IR Inten    --      7.1292                 7.3967                 8.4217

                     52                     53                     54
                      A                      A                      A
 Frequencies --   1182.5121              1202.3368              1213.4851
 Red. masses --      2.0515                 2.0721                 1.3726
 Frc consts  --      1.6902                 1.7649                 1.1909
 IR Inten    --      1.2439                26.8949                 4.9271

                     55                     56                     57
                      A                      A                      A
 Frequencies --   1219.6366              1243.4196              1250.0084
 Red. masses --      1.1349                 1.9032                 1.4986
 Frc consts  --      0.9947                 1.7336                 1.3796
 IR Inten    --     31.8383               240.6202               117.4557

                     58                     59                     60
                      A                      A                      A
 Frequencies --   1272.7116              1282.0333              1288.7543
 Red. masses --      1.3445                 1.1727                 1.3953
 Frc consts  --      1.2832                 1.1356                 1.3653
 IR Inten    --      2.1273                 1.0499                18.5918

                     61                     62                     63
                      A                      A                      A
 Frequencies --   1294.3237              1300.5417              1322.0982
 Red. masses --      1.3972                 1.4862                 1.3379
 Frc consts  --      1.3791                 1.4811                 1.3779
 IR Inten    --      3.3468                20.4759                 6.9018

                     64                     65                     66
                      A                      A                      A
 Frequencies --   1340.0886              1345.6786              1361.3515
 Red. masses --      3.0798                 1.6205                 2.0329
 Frc consts  --      3.2587                 1.7290                 2.2198
 IR Inten    --     60.0497                 1.1484                 3.8552

                     67                     68                     69
                      A                      A                      A
 Frequencies --   1381.4291              1404.7774              1428.6836
 Red. masses --      1.3770                 1.8066                 1.4178
 Frc consts  --      1.5482                 2.1005                 1.7050
 IR Inten    --     10.1706                 9.2260                 0.6753

                     70                     71                     72
                      A                      A                      A
 Frequencies --   1442.1480              1446.5234              1501.4370
 Red. masses --      1.3521                 1.3717                 2.9297
 Frc consts  --      1.6569                 1.6911                 3.8912
 IR Inten    --     11.7050                 3.3477                19.9807

                     73                     74                     75
                      A                      A                      A
 Frequencies --   1509.6594              1511.5915              1517.0819
 Red. masses --      1.1173                 1.0990                 1.0880
 Frc consts  --      1.5003                 1.4795                 1.4753
 IR Inten    --      3.6790                 1.9112                 1.8022

                     76                     77                     78
                      A                      A                      A
 Frequencies --   1521.3842              1532.9268              1543.1309
 Red. masses --      1.1274                 1.0561                 1.1891
 Frc consts  --      1.5374                 1.4622                 1.6683
 IR Inten    --     13.8657                 4.6822                37.6871

                     79                     80                     81
                      A                      A                      A
 Frequencies --   1545.4202              1556.6999              1572.1195
 Red. masses --      2.5948                 1.4538                 1.1936
 Frc consts  --      3.6513                 2.0757                 1.7381
 IR Inten    --    410.4963                10.2645                 3.3352

                     82                     83                     84
                      A                      A                      A
 Frequencies --   1671.4975              1691.8153              3011.1719
 Red. masses --      6.5261                 7.5411                 1.0695
 Frc consts  --     10.7428                12.7172                 5.7136
 IR Inten    --     21.2239                62.0335               160.6671

                     85                     86                     87
                      A                      A                      A
 Frequencies --   3024.4791              3042.5381              3049.9121
 Red. masses --      1.0641                 1.0774                 1.0825
 Frc consts  --      5.7352                 5.8763                 5.9324
 IR Inten    --     21.5597                 1.8195                32.9363

                     88                     89                     90
                      A                      A                      A
 Frequencies --   3053.2912              3055.0336              3059.9660
 Red. masses --      1.0521                 1.0545                 1.0597
 Frc consts  --      5.7790                 5.7985                 5.8463
 IR Inten    --     46.3901                41.8094                24.4090

                     91                     92                     93
                      A                      A                      A
 Frequencies --   3070.7811              3073.6774              3106.3689
 Red. masses --      1.0624                 1.0968                 1.1052
 Frc consts  --      5.9028                 6.1051                 6.2832
 IR Inten    --     36.9367                43.0857                19.4421

                     94                     95                     96
                      A                      A                      A
 Frequencies --   3111.4319              3117.1336              3126.5913
 Red. masses --      1.1064                 1.0992                 1.1011
 Frc consts  --      6.3109                 6.2928                 6.3419
 IR Inten    --     19.0689                41.5840                53.3077

                     97                     98                     99
                      A                      A                      A
 Frequencies --   3128.4304              3137.5896              3185.9003
 Red. masses --      1.1067                 1.1033                 1.0887
 Frc consts  --      6.3816                 6.3994                 6.5107
 IR Inten    --     71.4729                26.0685                14.3400

                    100                    101                    102
                      A                      A                      A
 Frequencies --   3224.6478              3241.8010              3566.1192
 Red. masses --      1.0933                 1.0906                 1.0746
 Frc consts  --      6.6979                 6.7529                 8.0519
 IR Inten    --      8.0252                 3.8223                 4.9677

 - Thermochemistry -
 -------------------
 Temperature   298.150 Kelvin.  Pressure   1.00000 Atm.
 Atom     1 has atomic number  6 and mass  12.00000

 Molecular mass:   233.14158 amu.
 Principal axes and moments of inertia in atomic units:
                           1         2         3
     Eigenvalues --  2238.632777122.328247752.93648
           X            1.00000  -0.00142  -0.00061
           Y            0.00142   0.99999  -0.00472
           Z            0.00061   0.00472   0.99999
 This molecule is an asymmetric top.
 Rotational symmetry number  1.
 Warning -- assumption of classical behavior for rotation
           may cause significant error
 Rotational temperatures (Kelvin)      0.03869     0.01216     0.01117
 Rotational constants (GHZ):           0.80618     0.25339     0.23278
 Zero-point vibrational energy     818623.6 (Joules/Mol)
                                  195.65573 (Kcal/Mol)
 Warning -- explicit consideration of  22 degrees of freedom as
           vibrations may cause significant error
 Vibrational temperatures:     42.45    60.80    73.99   134.73   172.78
          (Kelvin)            181.24   201.84   248.48   270.19   351.77
                              365.19   411.94   424.61   489.25   506.59
                              562.22   604.63   616.06   689.44   779.22
                              789.40   871.43   904.18   919.94   960.05
                             1006.75  1055.39  1106.88  1143.13  1153.90
                             1157.57  1196.29  1206.01  1240.30  1274.49
                             1297.09  1308.34  1360.61  1362.43  1396.01
                             1402.18  1416.93  1430.53  1484.79  1524.88
                             1549.24  1566.68  1617.94  1638.36  1664.04
                             1680.71  1701.37  1729.89  1745.93  1754.79
                             1789.00  1798.48  1831.15  1844.56  1854.23
                             1862.24  1871.19  1902.20  1928.09  1936.13
                             1958.68  1987.57  2021.16  2055.56  2074.93
                             2081.22  2160.23  2172.06  2174.84  2182.74
                             2188.93  2205.54  2220.22  2223.51  2239.74
                             2261.93  2404.91  2434.14  4332.40  4351.55
                             4377.53  4388.14  4393.00  4395.51  4402.61
                             4418.17  4422.34  4469.37  4476.66  4484.86
                             4498.47  4501.11  4514.29  4583.80  4639.55
                             4664.23  5130.85

 Zero-point correction=                           0.311797 (Hartree/Particle)
 Thermal correction to Energy=                    0.327440
 Thermal correction to Enthalpy=                  0.328385
 Thermal correction to Gibbs Free Energy=         0.267832
 Sum of electronic and zero-point Energies=           -749.835344
 Sum of electronic and thermal Energies=              -749.819701
 Sum of electronic and thermal Enthalpies=            -749.818757
 Sum of electronic and thermal Free Energies=         -749.879310

                     E (Thermal)             CV                S
                      KCal/Mol        Cal/Mol-Kelvin    Cal/Mol-Kelvin
 Total                  205.472             61.083            127.444
 Electronic               0.000              0.000              0.000
 Translational            0.889              2.981             42.241
 Rotational               0.889              2.981             33.180
 Vibrational            203.695             55.122             52.023
 Vibration     1          0.593              1.984              5.863
 Vibration     2          0.595              1.980              5.150
 Vibration     3          0.596              1.977              4.762
 Vibration     4          0.603              1.954              3.583
 Vibration     5          0.609              1.933              3.099
 Vibration     6          0.611              1.927              3.007
 Vibration     7          0.615              1.913              2.800
 Vibration     8          0.626              1.876              2.406
 Vibration     9          0.632              1.857              2.250
 Vibration    10          0.660              1.772              1.770
 Vibration    11          0.665              1.756              1.704
 Vibration    12          0.684              1.699              1.496
 Vibration    13          0.689              1.683              1.444
 Vibration    14          0.720              1.595              1.212
 Vibration    15          0.729              1.571              1.157
 Vibration    16          0.758              1.490              0.997
 Vibration    17          0.783              1.426              0.891
 Vibration    18          0.790              1.409              0.865
 Vibration    19          0.836              1.296              0.712
 Vibration    20          0.897              1.158              0.562
 Vibration    21          0.904              1.143              0.547
 Vibration    22          0.964              1.020              0.440

 Optimization completed.
    -- Stationary point found.
 Normal termination of Gaussian 16 at Fri Dec 11 12:19:08 2020.

 ----------------------------------------------------------------------
 # B3LYP/6-311++G(d,p) empiricaldispersion=gd3bj scf=xqc pop=npa geom=c
 heck
 ----------------------------------------------------------------------

 ---------------------------------------
 CID_113353694_JID_7075_Energie_neutraal
 ---------------------------------------
 Structure from the checkpoint file:  "JID_7075.chk"
 Charge =  0 Multiplicity = 1

 SCF Done:  E(RB3LYP) =  -750.350862754     A.U. after   15 cycles
 Normal termination of Gaussian 16 at Fri Dec 11 12:24:53 2020.

 ----------------------------------------------------------------------
 # B3LYP/6-311++G(d,p) empiricaldispersion=gd3bj scf=xqc pop=npa geom=c
 heck
 ----------------------------------------------------------------------

 -------------------------------------
 CID_113353694_JID_7075_Energie_kation
 -------------------------------------
 Structure from the checkpoint file:  "JID_7075.chk"
 Charge =  1 Multiplicity = 2

 SCF Done:  E(UB3LYP) =  -750.099785239     A.U. after   21 cycles
 Normal termination of Gaussian 16 at Fri Dec 11 12:36:08 2020.
 Gaussian 16:  ES64L-G16RevA.03 25-Dec-2016

 ----------------------------------------------------------------------
 # B3LYP/6-311++G(d,p) empiricaldispersion=gd3bj scf=xqc pop=npa geom=c
 heck
 ----------------------------------------------------------------------

 ------------------------------------
 CID_113353694_JID_7075_Energie_anion
 ------------------------------------
 Structure from the checkpoint file:  "JID_7075.chk"
 Charge = -1 Multiplicity = 2

                         Standard orientation:
 ---------------------------------------------------------------------
 Center     Atomic      Atomic             Coordinates (Angstroms)
 Number     Number       Type             X           Y           Z
 ---------------------------------------------------------------------
      1          6           0        2.860958    2.582042    0.373841
      2          6           0        1.684866    1.777376   -0.182553
      3          6           0        2.127204    0.618873   -1.104082
      4          6           0        3.056879   -0.409542   -0.471626
      5          6           0        2.530103   -1.356051    0.647781
      6          6           0        3.352776   -2.505120    0.012079
      7          6           0        3.409791   -1.677320   -1.298068
      8          7           0        0.851121    1.350583    0.944993
      9          6           0       -0.372482    0.702906    0.753312
     10          6           0       -1.177312    0.978117   -0.379720
     11          6           0       -2.399836    0.344302   -0.454422
     12          6           0       -2.855779   -0.536759    0.520105
     13          6           0       -2.088632   -0.825858    1.628685
     14          6           0       -0.837748   -0.196702    1.729424
     15          8           0       -4.086330   -1.048393    0.143900
     16          6           0       -4.487678   -0.246836   -0.966272
     17          8           0       -3.327341    0.431324   -1.467320
     18          1           0        3.473738    1.975236    1.051416
     19          1           0        2.498717    3.449524    0.933238
     20          1           0        3.509373    2.930281   -0.436760
     21          1           0        1.079164    2.464826   -0.785488
     22          1           0        1.229011    0.104773   -1.469527
     23          1           0        2.619304    1.050808   -1.987777
     24          1           0        3.986114    0.069275   -0.138125
     25          1           0        2.747542   -1.091470    1.689425
     26          1           0        1.453158   -1.526093    0.550221
     27          1           0        2.891316   -3.496236   -0.031510
     28          1           0        4.341622   -2.600548    0.473066
     29          1           0        2.589469   -1.942554   -1.975248
     30          1           0        4.344962   -1.672470   -1.867374
     31          1           0        1.398782    0.919200    1.680414
     32          1           0       -0.862988    1.662284   -1.157216
     33          1           0       -2.430444   -1.520241    2.388324
     34          1           0       -0.211606   -0.402446    2.593253
     35          1           0       -4.897369   -0.887897   -1.750435
     36          1           0       -5.227011    0.499655   -0.638401
 ---------------------------------------------------------------------

 SCF Done:  E(UB3LYP) =  -750.336260704     A.U. after   33 cycles
 SCF Done:  E(UB3LYP) =  -750.336260704     a.u. after    1 cycles

 The electronic state is 2-A.
 Alpha  occ. eigenvalues --  -19.08006 -19.07643 -14.22403 -10.20148 -10.14573
 Alpha  occ. eigenvalues --  -10.13543 -10.12537 -10.11512 -10.09274 -10.08526
 Alpha  occ. eigenvalues --  -10.07912 -10.07582 -10.07143 -10.07085 -10.06929
 Alpha  occ. eigenvalues --  -10.06753 -10.06631  -1.04016  -0.94835  -0.84429
 Alpha  occ. eigenvalues --   -0.76501  -0.75143  -0.69176  -0.66768  -0.64873
 Alpha  occ. eigenvalues --   -0.61413  -0.58218  -0.56313  -0.55079  -0.53335
 Alpha  occ. eigenvalues --   -0.52972  -0.48809  -0.45335  -0.45157  -0.43752
 Alpha  occ. eigenvalues --   -0.43038  -0.41459  -0.39282  -0.37873  -0.36622
 Alpha  occ. eigenvalues --   -0.36078  -0.35733  -0.35123  -0.33577  -0.31773
 Alpha  occ. eigenvalues --   -0.30848  -0.30656  -0.30141  -0.29233  -0.29156
 Alpha  occ. eigenvalues --   -0.28628  -0.27665  -0.27246  -0.26400  -0.25204
 Alpha  occ. eigenvalues --   -0.24717  -0.24002  -0.21782  -0.20823  -0.20513
 Alpha  occ. eigenvalues --   -0.18012  -0.14978  -0.09811   0.04184
 Alpha virt. eigenvalues --    0.05453   0.06630   0.07094   0.07465   0.07668
 Alpha virt. eigenvalues --    0.08169   0.08629   0.09030   0.09332   0.09672
 Alpha virt. eigenvalues --    0.09987   0.10442   0.11020   0.11994   0.12194

  Beta  occ. eigenvalues --  -19.08004 -19.07642 -14.22393 -10.20118 -10.14572
  Beta  occ. eigenvalues --  -10.13543 -10.12537 -10.11506 -10.09269 -10.08521
  Beta  occ. eigenvalues --  -10.07903 -10.07569 -10.07129 -10.07073 -10.06919
  Beta  occ. eigenvalues --  -10.06734 -10.06591  -1.04010  -0.94831  -0.84414
  Beta  occ. eigenvalues --   -0.76490  -0.75119  -0.69153  -0.66754  -0.64845
  Beta  occ. eigenvalues --   -0.61371  -0.58176  -0.56269  -0.55044  -0.53309
  Beta  occ. eigenvalues --   -0.52955  -0.48769  -0.45314  -0.45109  -0.43734
  Beta  occ. eigenvalues --   -0.43012  -0.41427  -0.39228  -0.37830  -0.36592
  Beta  occ. eigenvalues --   -0.36065  -0.35710  -0.35094  -0.33553  -0.31747
  Beta  occ. eigenvalues --   -0.30830  -0.30634  -0.30133  -0.29205  -0.29122
  Beta  occ. eigenvalues --   -0.28595  -0.27658  -0.27214  -0.26385  -0.25184
  Beta  occ. eigenvalues --   -0.24689  -0.23977  -0.21748  -0.20792  -0.20486
  Beta  occ. eigenvalues --   -0.17998  -0.14967  -0.09800
  Beta virt. eigenvalues --    0.06157   0.06613   0.07176   0.07362   0.07725
  Beta virt. eigenvalues --    0.08030   0.08820   0.08864   0.09358   0.09548
  Beta virt. eigenvalues --    0.09850   0.10383   0.10678   0.11163   0.12116

 Mulliken charges and spin densities:
               1          2
     1  C    1.355114  -2.046734
     2  C   -2.249885   2.108388
     3  C    1.341761  -1.699419
     4  C   -0.594024   0.925960
     5  C   -0.074745  -0.353655
     6  C   -0.114154  -0.304126
     7  C    0.403981  -0.881360
     8  N    0.343809  -0.122822
     9  C    1.061051  -1.266617
    10  C   -0.546018   0.189406
    11  C    0.030946   0.223663
    12  C    0.513570  -0.433413
    13  C   -1.196332   0.816937
    14  C   -0.284473   0.162426
    15  O   -0.204648   0.041520
    16  C    1.130857  -1.194033
    17  O   -0.184424   0.041942
    18  H   -0.529912   0.692607
    19  H   -0.178462   0.341285
    20  H   -0.285288   0.436975
    21  H   -0.028628   0.188351
    22  H    0.206525  -0.085999
    23  H   -0.140255   0.317817
    24  H    0.031318   0.150041
    25  H   -0.337301   0.488958
    26  H    0.430095  -0.288971
    27  H   -0.060946   0.198810
    28  H   -0.122164   0.263937
    29  H    0.055807   0.060817
    30  H   -0.148641   0.291862
    31  H    0.435594  -0.215143
    32  H   -0.031594   0.228360
    33  H   -0.027731   0.210905
    34  H   -0.443484   0.585479
    35  H   -0.319310   0.503879
    36  H   -0.238007   0.421965
 Sum of Mulliken charges =  -1.00000   1.00000

 Dipole moment (field-independent basis, Debye):
    X=             -3.5584    Y=             -1.2400    Z=             -0.7259  Tot=              3.8376
 Quadrupole moment (field-independent basis, Debye-Ang):
   XX=           -206.7780   YY=           -147.3347   ZZ=           -142.9715
   XY=             -6.4105   XZ=             -9.0269   YZ=             -0.8245

 Summary of Natural Population Analysis:

                                       Natural Population
                Natural  -----------------------------------------------
    Atom  No    Charge         Core      Valence    Rydberg      Total
 -----------------------------------------------------------------------
      C    1   -0.28673      0.99964     2.28098    0.00610     3.28673
      C    2   -0.00626      0.99960     1.99458    0.01208     3.00626
      C    3   -0.19694      0.99958     2.18796    0.00940     3.19694
      C    4   -0.11289      0.99960     2.10137    0.01192     3.11289
      C    5   -0.19235      0.99962     2.18359    0.00913     3.19235
      C    6   -0.18944      0.99965     2.18176    0.00804     3.18944
      C    7   -0.18291      0.99963     2.17477    0.00850     3.18291
      N    8   -0.31808      0.99968     2.80747    0.01094     3.81808
      C    9    0.09290      0.99951     1.89659    0.01100     2.90710
      C   10   -0.14859      0.99948     2.14197    0.00714     3.14859
      C   11    0.14133      0.99933     1.84691    0.01242     2.85867
      C   12    0.10873      0.99931     1.87974    0.01222     2.89127
      C   13   -0.11357      0.99953     2.10542    0.00862     3.11357
      C   14   -0.13000      0.99954     2.12107    0.00938     3.13000
      O   15   -0.27626      0.99987     3.26866    0.00773     4.27626
      C   16    0.15414      0.99963     1.82987    0.01636     2.84586
      O   17   -0.27329      0.99987     3.26554    0.00788     4.27329
      H   18    0.09986      0.00000     0.39849    0.00165     0.40014
      H   19    0.10364      0.00000     0.39525    0.00111     0.39636
      H   20    0.10320      0.00000     0.39558    0.00122     0.39680
      H   21    0.09128      0.00000     0.40665    0.00207     0.40872
      H   22    0.10017      0.00000     0.39824    0.00159     0.39983
      H   23    0.10128      0.00000     0.39765    0.00107     0.39872
      H   24    0.09908      0.00000     0.39869    0.00222     0.40092
      H   25    0.09651      0.00000     0.40171    0.00179     0.40349
      H   26    0.09985      0.00000     0.39841    0.00173     0.40015
      H   27    0.09311      0.00000     0.40608    0.00081     0.40689
      H   28    0.09631      0.00000     0.40229    0.00139     0.40369
      H   29    0.09301      0.00000     0.40582    0.00116     0.40699
      H   30    0.09613      0.00000     0.40292    0.00095     0.40387
      H   31    0.18406      0.00000     0.31246    0.00348     0.31594
      H   32    0.10931      0.00000     0.38902    0.00168     0.39069
      H   33    0.10657      0.00000     0.39243    0.00101     0.39343
      H   34    0.10271      0.00000     0.39616    0.00112     0.39729
      H   35    0.08295      0.00000     0.41486    0.00219     0.41705
      H   36    0.07117      0.00000     0.42663    0.00220     0.42883
 =======================================================================
   * Total *    0.00000     16.99308    45.80761    0.19931    63.00000

 Normal termination of Gaussian 16 at Fri Dec 11 12:53:47 2020.
