 Gaussian 16, Revision A.03,

 -----------------------------------------------------------
 # opt freq B3LYP/6-31G(d) empiricaldispersion=gd3bj scf=xqc
 -----------------------------------------------------------

 ------------------------------
 CID_43474774_JID_9559_neutraal
 ------------------------------
 Symbolic Z-matrix:
 Charge =  0 Multiplicity = 1

 SCF Done:  E(RB3LYP) =  -1217.52277109     A.U. after   16 cycles
 SCF Done:  E(RB3LYP) =  -1217.53001499     A.U. after   14 cycles
 SCF Done:  E(RB3LYP) =  -1217.53039964     A.U. after   16 cycles
 SCF Done:  E(RB3LYP) =  -1217.53089945     A.U. after   15 cycles
 SCF Done:  E(RB3LYP) =  -1217.53157637     A.U. after   13 cycles
 SCF Done:  E(RB3LYP) =  -1217.53166956     A.U. after   15 cycles
 SCF Done:  E(RB3LYP) =  -1217.53204631     A.U. after   13 cycles
 SCF Done:  E(RB3LYP) =  -1217.53222423     A.U. after   13 cycles
 SCF Done:  E(RB3LYP) =  -1217.53246918     A.U. after   13 cycles
 SCF Done:  E(RB3LYP) =  -1217.53267609     A.U. after   14 cycles
 SCF Done:  E(RB3LYP) =  -1217.53307494     A.U. after   12 cycles
 SCF Done:  E(RB3LYP) =  -1217.53307793     A.U. after   10 cycles
 SCF Done:  E(RB3LYP) =  -1217.53307865     A.U. after    8 cycles
 SCF Done:  E(RB3LYP) =  -1217.53307895     A.U. after    9 cycles
 SCF Done:  E(RB3LYP) =  -1217.53307899     A.U. after    8 cycles
 SCF Done:  E(RB3LYP) =  -1217.53307899     A.U. after    7 cycles
 Optimization completed.
    -- Stationary point found.
 Normal termination of Gaussian 16 at Sun Dec 13 12:41:00 2020.

 --------------------------------------------------------------------
 #N Geom=AllCheck Guess=TCheck SCRF=Check GenChk RB3LYP/6-31G(d) Freq
 --------------------------------------------------------------------

 Structure from the checkpoint file:  "JID_9559.chk"
 ------------------------------
 CID_43474774_JID_9559_neutraal
 ------------------------------
 Charge =  0 Multiplicity = 1

 SCF Done:  E(RB3LYP) =  -1217.53307899     A.U. after    1 cycles

  Exact polarizability: 249.221   6.143 226.856  15.728   7.760  84.050
 Approx polarizability: 363.530  14.599 408.827  41.895  19.647 149.818

                      1                      2                      3
                      A                      A                      A
 Frequencies --     11.0725                23.7070                32.9911
 Red. masses --      7.4920                 4.0531                 6.1243
 Frc consts  --      0.0005                 0.0013                 0.0039
 IR Inten    --      0.7495                 0.1428                 1.2846

                      4                      5                      6
                      A                      A                      A
 Frequencies --     52.5938                76.9452                78.4461
 Red. masses --      8.3085                 7.3908                 8.7905
 Frc consts  --      0.0135                 0.0258                 0.0319
 IR Inten    --      1.0589                 1.4447                 0.6588

                      7                      8                      9
                      A                      A                      A
 Frequencies --    100.9324               119.7125               152.7308
 Red. masses --     10.8632                 5.9390                 7.8217
 Frc consts  --      0.0652                 0.0501                 0.1075
 IR Inten    --      1.4842                 0.2469                 1.7941

                     10                     11                     12
                      A                      A                      A
 Frequencies --    194.2815               200.5438               274.5433
 Red. masses --      7.4975                 6.0209                 9.4993
 Frc consts  --      0.1667                 0.1427                 0.4219
 IR Inten    --      5.8536                 0.9667                 2.8041

                     13                     14                     15
                      A                      A                      A
 Frequencies --    297.0416               335.7443               383.7991
 Red. masses --      8.9647                 7.2005                 9.0037
 Frc consts  --      0.4660                 0.4782                 0.7814
 IR Inten    --      0.0625                 0.7935                 3.7761

                     16                     17                     18
                      A                      A                      A
 Frequencies --    394.3630               412.2224               445.9957
 Red. masses --      4.9737                 2.9959                11.1086
 Frc consts  --      0.4557                 0.2999                 1.3019
 IR Inten    --      4.1077                 0.0138                14.9352

                     19                     20                     21
                      A                      A                      A
 Frequencies --    482.1050               509.2823               520.4699
 Red. masses --      5.0130                 5.0774                 7.1266
 Frc consts  --      0.6865                 0.7759                 1.1374
 IR Inten    --     31.8846                 7.6350                23.3447

                     22                     23                     24
                      A                      A                      A
 Frequencies --    541.7234               565.4693               572.7273
 Red. masses --      1.4246                 2.8313                 2.2367
 Frc consts  --      0.2463                 0.5334                 0.4323
 IR Inten    --     89.8153                14.4967                 6.2134

                     25                     26                     27
                      A                      A                      A
 Frequencies --    595.5313               623.5579               637.6454
 Red. masses --      1.6410                 7.6330                 6.6089
 Frc consts  --      0.3429                 1.7486                 1.5832
 IR Inten    --     55.1723                21.4677                 4.1930

                     28                     29                     30
                      A                      A                      A
 Frequencies --    651.8491               694.8978               703.7496
 Red. masses --      7.8607                 5.4500                 2.0066
 Frc consts  --      1.9679                 1.5506                 0.5855
 IR Inten    --     17.1524                25.1191                22.2720

                     31                     32                     33
                      A                      A                      A
 Frequencies --    718.2911               736.6827               754.0764
 Red. masses --      5.7225                 9.8749                 5.2228
 Frc consts  --      1.7396                 3.1575                 1.7498
 IR Inten    --     26.2730                26.6413                78.7279

                     34                     35                     36
                      A                      A                      A
 Frequencies --    756.2269               777.2793               822.2340
 Red. masses --      6.5054                 1.7309                 1.3842
 Frc consts  --      2.1920                 0.6161                 0.5513
 IR Inten    --      0.5054                34.9343                23.4592

                     37                     38                     39
                      A                      A                      A
 Frequencies --    850.4601               861.1521               913.6319
 Red. masses --      5.3913                 1.2449                 1.8039
 Frc consts  --      2.2975                 0.5439                 0.8872
 IR Inten    --      2.9611                 0.2517                 3.2304

                     40                     41                     42
                      A                      A                      A
 Frequencies --    916.8869               941.0825               975.5817
 Red. masses --      3.1053                 1.3806                 1.3478
 Frc consts  --      1.5381                 0.7204                 0.7558
 IR Inten    --      8.5009                 1.9817                 0.1144

                     43                     44                     45
                      A                      A                      A
 Frequencies --   1004.7185              1020.4815              1039.0959
 Red. masses --      1.2660                 6.2273                 2.6104
 Frc consts  --      0.7530                 3.8209                 1.6606
 IR Inten    --      0.0501                 1.6552                43.1544

                     46                     47                     48
                      A                      A                      A
 Frequencies --   1058.1977              1106.3466              1112.8423
 Red. masses --      2.1423                 2.2622                 1.5752
 Frc consts  --      1.4134                 1.6314                 1.1493
 IR Inten    --      1.7269               178.9417                 5.0000

                     49                     50                     51
                      A                      A                      A
 Frequencies --   1168.8100              1197.0811              1211.6396
 Red. masses --      3.4513                 1.0995                 1.1725
 Frc consts  --      2.7779                 0.9283                 1.0142
 IR Inten    --     70.0442                 0.1273                39.5221

                     52                     53                     54
                      A                      A                      A
 Frequencies --   1223.9524              1246.6172              1266.6084
 Red. masses --      1.8095                 3.1614                 1.5957
 Frc consts  --      1.5971                 2.8947                 1.5083
 IR Inten    --    364.1592               164.8204                19.9380

                     55                     56                     57
                      A                      A                      A
 Frequencies --   1335.5666              1352.8765              1368.4298
 Red. masses --      2.9261                 4.9201                 1.9096
 Frc consts  --      3.0752                 5.3057                 2.1069
 IR Inten    --     25.8463               518.3586                 1.3866

                     58                     59                     60
                      A                      A                      A
 Frequencies --   1390.3938              1408.8466              1474.7553
 Red. masses --      3.4292                 3.2651                 1.8053
 Frc consts  --      3.9059                 3.8183                 2.3133
 IR Inten    --     16.1589                87.7358                33.1830

                     61                     62                     63
                      A                      A                      A
 Frequencies --   1491.3901              1524.4614              1544.0587
 Red. masses --      2.2316                 6.5725                 2.3123
 Frc consts  --      2.9245                 8.9994                 3.2481
 IR Inten    --      5.0073               362.0616                23.9799

                     64                     65                     66
                      A                      A                      A
 Frequencies --   1603.9505              1629.8629              1660.4993
 Red. masses --      5.8623                 5.1346                 5.4730
 Frc consts  --      8.8858                 8.0363                 8.8911
 IR Inten    --      2.1842                 0.6397                 4.0747

                     67                     68                     69
                      A                      A                      A
 Frequencies --   1765.3487              1809.7289              2329.7609
 Red. masses --      8.9024                 9.7406                11.9954
 Frc consts  --     16.3462                18.7959                38.3607
 IR Inten    --    514.9287               406.3242               298.9131

                     70                     71                     72
                      A                      A                      A
 Frequencies --   3191.4841              3200.8538              3209.7353
 Red. masses --      1.0856                 1.0886                 1.0923
 Frc consts  --      6.5150                 6.5715                 6.6303
 IR Inten    --      0.1297                 4.9841                16.4426

                     73                     74                     75
                      A                      A                      A
 Frequencies --   3217.5941              3222.8624              3242.8200
 Red. masses --      1.0954                 1.0970                 1.0909
 Frc consts  --      6.6816                 6.7133                 6.7593
 IR Inten    --     15.3885                10.8033                 1.5021

                     76                     77                     78
                      A                      A                      A
 Frequencies --   3260.2830              3584.3236              3702.2283
 Red. masses --      1.0967                 1.0756                 1.0642
 Frc consts  --      6.8684                 8.1418                 8.5940
 IR Inten    --      1.7458                65.8224                95.8361

 - Thermochemistry -
 -------------------
 Temperature   298.150 Kelvin.  Pressure   1.00000 Atm.
 Atom     1 has atomic number  6 and mass  12.00000

 Molecular mass:   271.03032 amu.
 Principal axes and moments of inertia in atomic units:
                           1         2         3
     Eigenvalues --  3887.334079612.04805**********
           X            0.99993   0.01154  -0.00277
           Y           -0.01154   0.99993   0.00110
           Z            0.00278  -0.00107   1.00000
 This molecule is an asymmetric top.
 Rotational symmetry number  1.
 Warning -- assumption of classical behavior for rotation
           may cause significant error
 Rotational temperatures (Kelvin)      0.02228     0.00901     0.00666
 Rotational constants (GHZ):           0.46426     0.18776     0.13871
 Zero-point vibrational energy     525691.6 (Joules/Mol)
                                  125.64330 (Kcal/Mol)
 Warning -- explicit consideration of  25 degrees of freedom as
           vibrations may cause significant error
 Vibrational temperatures:     15.93    34.11    47.47    75.67   110.71
          (Kelvin)            112.87   145.22   172.24   219.75   279.53
                              288.54   395.01   427.38   483.06   552.20
                              567.40   593.10   641.69   693.64   732.74
                              748.84   779.42   813.58   824.03   856.84
                              897.16   917.43   937.87   999.80  1012.54
                             1033.46  1059.92  1084.95  1088.04  1118.33
                             1183.01  1223.62  1239.01  1314.51  1319.20
                             1354.01  1403.64  1445.57  1468.25  1495.03
                             1522.51  1591.79  1601.13  1681.66  1722.33
                             1743.28  1760.99  1793.60  1822.37  1921.58
                             1946.49  1968.87  2000.47  2027.02  2121.84
                             2145.78  2193.36  2221.56  2307.73  2345.01
                             2389.09  2539.94  2603.80  3352.01  4591.83
                             4605.31  4618.09  4629.40  4636.98  4665.69
                             4690.82  5157.04  5326.68

 Zero-point correction=                           0.200225 (Hartree/Particle)
 Thermal correction to Energy=                    0.217016
 Thermal correction to Enthalpy=                  0.217961
 Thermal correction to Gibbs Free Energy=         0.151465
 Sum of electronic and zero-point Energies=          -1217.332854
 Sum of electronic and thermal Energies=             -1217.316063
 Sum of electronic and thermal Enthalpies=           -1217.315118
 Sum of electronic and thermal Free Energies=        -1217.381614

                     E (Thermal)             CV                S
                      KCal/Mol        Cal/Mol-Kelvin    Cal/Mol-Kelvin
 Total                  136.180             62.146            139.951
 Electronic               0.000              0.000              0.000
 Translational            0.889              2.981             42.690
 Rotational               0.889              2.981             34.541
 Vibrational            134.402             56.184             62.721
 Vibration     1          0.593              1.987              7.809
 Vibration     2          0.593              1.985              6.297
 Vibration     3          0.594              1.983              5.641
 Vibration     4          0.596              1.977              4.717
 Vibration     5          0.599              1.965              3.967
 Vibration     6          0.600              1.964              3.929
 Vibration     7          0.604              1.948              3.436
 Vibration     8          0.609              1.933              3.105
 Vibration     9          0.619              1.900              2.638
 Vibration    10          0.635              1.848              2.187
 Vibration    11          0.638              1.839              2.128
 Vibration    12          0.677              1.720              1.567
 Vibration    13          0.691              1.679              1.434
 Vibration    14          0.717              1.604              1.232
 Vibration    15          0.753              1.505              1.024
 Vibration    16          0.761              1.482              0.984
 Vibration    17          0.776              1.444              0.919
 Vibration    18          0.805              1.370              0.808
 Vibration    19          0.838              1.290              0.704
 Vibration    20          0.864              1.229              0.635
 Vibration    21          0.875              1.205              0.609
 Vibration    22          0.897              1.158              0.562
 Vibration    23          0.921              1.106              0.513
 Vibration    24          0.929              1.090              0.499
 Vibration    25          0.953              1.041              0.457

 Optimization completed.
    -- Stationary point found.
 Normal termination of Gaussian 16 at Sun Dec 13 12:52:46 2020.

 ----------------------------------------------------------------------
 # B3LYP/6-311++G(d,p) empiricaldispersion=gd3bj scf=xqc pop=npa geom=c
 heck
 ----------------------------------------------------------------------

 --------------------------------------
 CID_43474774_JID_9559_Energie_neutraal
 --------------------------------------
 Structure from the checkpoint file:  "JID_9559.chk"
 Charge =  0 Multiplicity = 1

 SCF Done:  E(RB3LYP) =  -1217.79488557     A.U. after   17 cycles
 Normal termination of Gaussian 16 at Sun Dec 13 12:58:24 2020.

 ----------------------------------------------------------------------
 # B3LYP/6-311++G(d,p) empiricaldispersion=gd3bj scf=xqc pop=npa geom=c
 heck
 ----------------------------------------------------------------------

 ------------------------------------
 CID_43474774_JID_9559_Energie_kation
 ------------------------------------
 Structure from the checkpoint file:  "JID_9559.chk"
 Charge =  1 Multiplicity = 2

 SCF Done:  E(UB3LYP) =  -1217.49184821     A.U. after   26 cycles
 Normal termination of Gaussian 16 at Sun Dec 13 13:10:44 2020.
 Gaussian 16:  ES64L-G16RevA.03 25-Dec-2016

 ----------------------------------------------------------------------
 # B3LYP/6-311++G(d,p) empiricaldispersion=gd3bj scf=xqc pop=npa geom=c
 heck
 ----------------------------------------------------------------------

 -----------------------------------
 CID_43474774_JID_9559_Energie_anion
 -----------------------------------
 Structure from the checkpoint file:  "JID_9559.chk"
 Charge = -1 Multiplicity = 2

                         Standard orientation:
 ---------------------------------------------------------------------
 Center     Atomic      Atomic             Coordinates (Angstroms)
 Number     Number       Type             X           Y           Z
 ---------------------------------------------------------------------
      1          6           0       -4.802012   -2.346345    0.178988
      2          6           0       -5.325554   -1.051179    0.177494
      3          6           0       -4.473528    0.048052    0.139216
      4          6           0       -3.080357   -0.144286    0.100350
      5          6           0       -2.558482   -1.452553    0.102640
      6          6           0       -3.419361   -2.544227    0.141948
      7          6           0       -2.190459    0.963554    0.054494
      8          6           0       -1.373716    1.859052   -0.002223
      9          6           0       -0.433033    2.950488   -0.030133
     10          8           0       -0.752680    4.123691    0.088418
     11          7           0        0.905052    2.593053   -0.187645
     12          6           0        1.441118    1.318671   -0.348634
     13          6           0        0.989665    0.298927   -1.159857
     14          6           0        1.777464   -0.871913   -1.039594
     15          6           0        2.825280   -0.735381   -0.157389
     16         16           0        2.840200    0.843600    0.585836
     17          6           0        3.879199   -1.684085    0.187501
     18          8           0        4.794261   -1.460792    0.957603
     19          8           0        3.728560   -2.874745   -0.451003
     20          1           0       -5.471190   -3.201231    0.210319
     21          1           0       -6.400248   -0.898611    0.207232
     22          1           0       -4.869052    1.058380    0.138369
     23          1           0       -1.482199   -1.591051    0.076299
     24          1           0       -3.013083   -3.551307    0.145172
     25          1           0        1.534282    3.381985   -0.089690
     26          1           0        0.139893    0.402992   -1.820943
     27          1           0        1.609785   -1.781716   -1.603216
     28          1           0        4.474778   -3.426303   -0.152360
 ---------------------------------------------------------------------

 SCF Done:  E(UB3LYP) =  -1217.83515312     A.U. after   25 cycles

 The electronic state is 2-A.
 Alpha  occ. eigenvalues --  -88.76324 -19.06569 -18.99589 -18.96422 -14.24075
 Alpha  occ. eigenvalues --  -10.18979 -10.15825 -10.12655 -10.08691 -10.08639
 Alpha  occ. eigenvalues --  -10.07725 -10.07572 -10.07261 -10.07234 -10.07092
 Alpha  occ. eigenvalues --  -10.07072 -10.06428 -10.05361 -10.04626  -7.84971
 Alpha  occ. eigenvalues --   -5.81270  -5.80917  -5.80542  -1.00167  -0.92261
 Alpha  occ. eigenvalues --   -0.90906  -0.83268  -0.76087  -0.75961  -0.67734
 Alpha  occ. eigenvalues --   -0.64892  -0.63713  -0.63511  -0.62323  -0.55293
 Alpha  occ. eigenvalues --   -0.54163  -0.50749  -0.50718  -0.47323  -0.45914
 Alpha  occ. eigenvalues --   -0.43566  -0.42142  -0.39709  -0.38014  -0.37614
 Alpha  occ. eigenvalues --   -0.35648  -0.35519  -0.34782  -0.33445  -0.32677
 Alpha  occ. eigenvalues --   -0.32588  -0.31446  -0.30416  -0.29121  -0.28535
 Alpha  occ. eigenvalues --   -0.27738  -0.26981  -0.25921  -0.25061  -0.24282
 Alpha  occ. eigenvalues --   -0.22318  -0.20427  -0.18614  -0.17726  -0.17212
 Alpha  occ. eigenvalues --   -0.16072  -0.15054  -0.14161  -0.13304  -0.11170
 Alpha  occ. eigenvalues --    0.00974
 Alpha virt. eigenvalues --    0.04550   0.06871   0.07289   0.08333   0.08651
 Alpha virt. eigenvalues --    0.09009   0.09787   0.10574   0.10966   0.11597
 Alpha virt. eigenvalues --    0.12214   0.12623   0.13061   0.13646   0.13873

  Beta  occ. eigenvalues --  -88.76295 -19.06541 -18.99457 -18.96073 -14.24152
  Beta  occ. eigenvalues --  -10.18866 -10.15634 -10.12451 -10.08655 -10.08547
  Beta  occ. eigenvalues --  -10.07775 -10.07615 -10.07144 -10.07140 -10.06980
  Beta  occ. eigenvalues --  -10.06873 -10.06469 -10.05209 -10.04585  -7.84945
  Beta  occ. eigenvalues --   -5.81260  -5.80906  -5.80441  -1.00032  -0.91739
  Beta  occ. eigenvalues --   -0.90712  -0.83061  -0.75941  -0.75759  -0.67402
  Beta  occ. eigenvalues --   -0.64725  -0.63449  -0.63242  -0.62102  -0.54850
  Beta  occ. eigenvalues --   -0.53787  -0.50670  -0.50468  -0.47191  -0.45733
  Beta  occ. eigenvalues --   -0.43474  -0.42019  -0.39502  -0.37872  -0.37397
  Beta  occ. eigenvalues --   -0.35485  -0.35409  -0.34188  -0.33355  -0.32559
  Beta  occ. eigenvalues --   -0.32334  -0.31011  -0.30072  -0.28992  -0.28004
  Beta  occ. eigenvalues --   -0.27245  -0.26297  -0.25790  -0.24996  -0.24109
  Beta  occ. eigenvalues --   -0.21770  -0.19573  -0.17694  -0.17586  -0.17062
  Beta  occ. eigenvalues --   -0.15603  -0.14571  -0.13860  -0.12226  -0.10532
  Beta virt. eigenvalues --    0.05278   0.06378   0.06856   0.07281   0.08546
  Beta virt. eigenvalues --    0.08624   0.09040   0.09803   0.10696   0.11554
  Beta virt. eigenvalues --    0.12119   0.12400   0.12737   0.13116   0.13734

 Mulliken charges and spin densities:
               1          2
     1  C   -0.220380   0.157599
     2  C   -0.386675  -0.034609
     3  C   -0.199460   0.084437
     4  C    0.180404  -0.012276
     5  C   -0.613544   0.095919
     6  C   -0.270379  -0.028585
     7  C    0.660514   0.119584
     8  C   -0.101195   0.037142
     9  C   -0.015127   0.109734
    10  O   -0.372957   0.120504
    11  N   -0.126537  -0.041095
    12  C   -0.432335   0.100890
    13  C    0.158290  -0.017418
    14  C   -0.060299   0.097630
    15  C   -0.162998   0.014453
    16  S   -0.292129   0.059760
    17  C    0.329878   0.081580
    18  O   -0.378323   0.045920
    19  O   -0.214522   0.006275
    20  H    0.117448  -0.011522
    21  H    0.129443   0.002154
    22  H    0.142764  -0.005929
    23  H    0.078882   0.005870
    24  H    0.151402   0.001884
    25  H    0.302587   0.013608
    26  H    0.148691   0.001643
    27  H    0.172850  -0.004862
    28  H    0.273706  -0.000289
 Sum of Mulliken charges =  -1.00000   1.00000

 Dipole moment (field-independent basis, Debye):
    X=             -0.4316    Y=             -4.7408    Z=             -1.8094  Tot=              5.0927
 Quadrupole moment (field-independent basis, Debye-Ang):
   XX=           -171.4137   YY=           -149.5028   ZZ=           -127.7194
   XY=              7.7853   XZ=             -5.8504   YZ=              0.5308

 Summary of Natural Population Analysis:

                                       Natural Population
                Natural  -----------------------------------------------
    Atom  No    Charge         Core      Valence    Rydberg      Total
 -----------------------------------------------------------------------
      C    1   -0.06745      0.99958     2.05836    0.00952     3.06745
      C    2   -0.12172      0.99957     2.11296    0.00918     3.12172
      C    3   -0.05819      0.99954     2.05062    0.00803     3.05819
      C    4   -0.06459      0.99948     2.05651    0.00861     3.06459
      C    5   -0.05774      0.99954     2.05021    0.00799     3.05774
      C    6   -0.11918      0.99957     2.11047    0.00914     3.11918
      C    7    0.04848      0.99922     1.94552    0.00678     2.95152
      C    8   -0.04322      0.99919     2.03763    0.00640     3.04322
      C    9    0.33045      0.99960     1.65036    0.01960     2.66955
      O   10   -0.27188      0.99988     3.26590    0.00610     4.27188
      N   11   -0.32794      0.99963     2.81644    0.01187     3.82794
      C   12    0.04683      0.99950     1.93982    0.01384     2.95317
      C   13   -0.15448      0.99949     2.14618    0.00881     3.15448
      C   14   -0.07656      0.99951     2.06783    0.00922     3.07656
      C   15   -0.15329      0.99944     2.14185    0.01200     3.15329
      S   16    0.21887      4.99941     2.76054    0.02118     7.78113
      C   17    0.39217      0.99959     1.58370    0.02454     2.60783
      O   18   -0.31261      0.99987     3.30540    0.00734     4.31261
      O   19   -0.34946      0.99988     3.34386    0.00571     4.34946
      H   20    0.09165      0.00000     0.40736    0.00099     0.40835
      H   21    0.09531      0.00000     0.40371    0.00098     0.40469
      H   22    0.10015      0.00000     0.39893    0.00092     0.39985
      H   23    0.10475      0.00000     0.39375    0.00150     0.39525
      H   24    0.09660      0.00000     0.40241    0.00099     0.40340
      H   25    0.19807      0.00000     0.30036    0.00157     0.30193
      H   26    0.11309      0.00000     0.38546    0.00145     0.38691
      H   27    0.10765      0.00000     0.39128    0.00107     0.39235
      H   28    0.23424      0.00000     0.26279    0.00296     0.26576
 =======================================================================
   * Total *    0.00000     22.99151    46.79020    0.21829    70.00000

 Normal termination of Gaussian 16 at Sun Dec 13 13:22:51 2020.
