 Gaussian 16, Revision A.03,

 -----------------------------------------------------------
 # opt freq B3LYP/6-31G(d) empiricaldispersion=gd3bj scf=xqc
 -----------------------------------------------------------

 ------------------------------
 CID_60206713_JID_3133_neutraal
 ------------------------------
 Symbolic Z-matrix:
 Charge =  0 Multiplicity = 1

 SCF Done:  E(RB3LYP) =  -563.088821800     A.U. after   14 cycles
 SCF Done:  E(RB3LYP) =  -563.089257001     A.U. after   12 cycles
 SCF Done:  E(RB3LYP) =  -563.089107243     A.U. after   13 cycles
 SCF Done:  E(RB3LYP) =  -563.088569946     A.U. after   13 cycles
 SCF Done:  E(RB3LYP) =  -563.085934947     A.U. after   13 cycles
 SCF Done:  E(RB3LYP) =  -563.089584425     A.U. after   10 cycles
 SCF Done:  E(RB3LYP) =  -563.090787162     A.U. after   12 cycles
 SCF Done:  E(RB3LYP) =  -563.090855426     A.U. after   11 cycles
 SCF Done:  E(RB3LYP) =  -563.091032792     A.U. after   12 cycles
 SCF Done:  E(RB3LYP) =  -563.091135364     A.U. after   10 cycles
 SCF Done:  E(RB3LYP) =  -563.091176437     A.U. after    8 cycles
 SCF Done:  E(RB3LYP) =  -563.091181114     A.U. after   10 cycles
 SCF Done:  E(RB3LYP) =  -563.091184826     A.U. after   10 cycles
 SCF Done:  E(RB3LYP) =  -563.091188659     A.U. after    9 cycles
 SCF Done:  E(RB3LYP) =  -563.091189185     A.U. after    8 cycles
 SCF Done:  E(RB3LYP) =  -563.091189226     A.U. after    7 cycles
 Optimization completed.
    -- Stationary point found.
 Normal termination of Gaussian 16 at Wed Dec  9 22:35:03 2020.

 --------------------------------------------------------------------
 #N Geom=AllCheck Guess=TCheck SCRF=Check GenChk RB3LYP/6-31G(d) Freq
 --------------------------------------------------------------------

 Structure from the checkpoint file:  "JID_3133.chk"
 ------------------------------
 CID_60206713_JID_3133_neutraal
 ------------------------------
 Charge =  0 Multiplicity = 1

 SCF Done:  E(RB3LYP) =  -563.091189226     A.U. after    1 cycles

  Exact polarizability: 133.578   4.490 116.395   1.285   0.877 117.131
 Approx polarizability: 162.340   4.870 168.299   0.046  -1.028 184.795

                      1                      2                      3
                      A                      A                      A
 Frequencies --     41.2521                45.3303                69.7124
 Red. masses --      3.0329                 3.1691                 3.7979
 Frc consts  --      0.0030                 0.0038                 0.0109
 IR Inten    --      0.3455                 1.9728                 3.1360

                      4                      5                      6
                      A                      A                      A
 Frequencies --     83.3662               134.5762               144.4886
 Red. masses --      3.4893                 2.3239                 2.9928
 Frc consts  --      0.0143                 0.0248                 0.0368
 IR Inten    --     10.9957                 0.7330                 1.3592

                      7                      8                      9
                      A                      A                      A
 Frequencies --    170.6668               205.4687               227.1062
 Red. masses --      4.0049                 1.5696                 1.2395
 Frc consts  --      0.0687                 0.0390                 0.0377
 IR Inten    --      4.0750                 1.4802                 5.7821

                     10                     11                     12
                      A                      A                      A
 Frequencies --    245.5078               251.9667               265.0089
 Red. masses --      1.1881                 1.4548                 1.5624
 Frc consts  --      0.0422                 0.0544                 0.0647
 IR Inten    --     26.0954               152.3023                37.9319

                     13                     14                     15
                      A                      A                      A
 Frequencies --    277.8143               292.4398               306.7802
 Red. masses --      1.7381                 1.6787                 1.7490
 Frc consts  --      0.0790                 0.0846                 0.0970
 IR Inten    --     27.8587                 1.4915                14.9823

                     16                     17                     18
                      A                      A                      A
 Frequencies --    322.3547               330.7831               370.9693
 Red. masses --      1.6779                 2.1258                 2.2147
 Frc consts  --      0.1027                 0.1370                 0.1796
 IR Inten    --      7.2999                 2.6787                 0.5256

                     19                     20                     21
                      A                      A                      A
 Frequencies --    378.2732               410.5339               434.1314
 Red. masses --      2.2512                 2.2998                 2.0023
 Frc consts  --      0.1898                 0.2284                 0.2223
 IR Inten    --      0.3738                 1.7937                 1.2623

                     22                     23                     24
                      A                      A                      A
 Frequencies --    460.1988               499.1369               529.2639
 Red. masses --      2.3160                 2.6022                 2.2124
 Frc consts  --      0.2890                 0.3820                 0.3651
 IR Inten    --      1.3231                 1.4692                 3.6996

                     25                     26                     27
                      A                      A                      A
 Frequencies --    548.1971               589.0598               689.3831
 Red. masses --      2.5153                 1.4960                 2.7918
 Frc consts  --      0.4454                 0.3058                 0.7817
 IR Inten    --      2.1342                20.1439                 8.3178

                     28                     29                     30
                      A                      A                      A
 Frequencies --    727.9632               785.1771               787.7146
 Red. masses --      1.8739                 3.3158                 1.3983
 Frc consts  --      0.5851                 1.2044                 0.5112
 IR Inten    --     17.8869                 3.0352                 5.5178

                     31                     32                     33
                      A                      A                      A
 Frequencies --    828.7639               854.5737               887.9440
 Red. masses --      1.8539                 2.3092                 1.7568
 Frc consts  --      0.7502                 0.9936                 0.8161
 IR Inten    --      0.7449                 0.8031                 4.2393

                     34                     35                     36
                      A                      A                      A
 Frequencies --    917.4421               940.9844               966.0556
 Red. masses --      1.9158                 1.2170                 1.7472
 Frc consts  --      0.9501                 0.6349                 0.9607
 IR Inten    --      3.1284                 0.9557                 1.7732

                     37                     38                     39
                      A                      A                      A
 Frequencies --    978.0101              1000.9740              1018.5870
 Red. masses --      1.4052                 1.6955                 1.7944
 Frc consts  --      0.7919                 1.0009                 1.0969
 IR Inten    --      0.2670                 0.6793                 1.1653

                     40                     41                     42
                      A                      A                      A
 Frequencies --   1023.4665              1038.8658              1080.3834
 Red. masses --      1.6081                 1.7863                 1.9661
 Frc consts  --      0.9925                 1.1359                 1.3521
 IR Inten    --      2.1699                 3.0375                 5.9122

                     43                     44                     45
                      A                      A                      A
 Frequencies --   1099.2271              1104.4290              1136.8761
 Red. masses --      1.6965                 2.2024                 1.6144
 Frc consts  --      1.2078                 1.5828                 1.2294
 IR Inten    --      0.8247                 0.7310                 0.6475

                     46                     47                     48
                      A                      A                      A
 Frequencies --   1147.1140              1188.8286              1202.8709
 Red. masses --      1.7637                 2.5056                 1.9171
 Frc consts  --      1.3674                 2.0864                 1.6343
 IR Inten    --      0.6842                 2.5215                 1.9625

                     49                     50                     51
                      A                      A                      A
 Frequencies --   1209.1685              1216.8080              1271.4910
 Red. masses --      1.8291                 2.3234                 1.4279
 Frc consts  --      1.5756                 2.0268                 1.3601
 IR Inten    --      8.6374                 2.8232                 0.4024

                     52                     53                     54
                      A                      A                      A
 Frequencies --   1275.5062              1329.0247              1336.0343
 Red. masses --      1.6528                 1.2574                 1.5955
 Frc consts  --      1.5843                 1.3086                 1.6780
 IR Inten    --     30.2370                 2.0198                39.3520

                     55                     56                     57
                      A                      A                      A
 Frequencies --   1362.9249              1377.1482              1393.4309
 Red. masses --      1.2836                 1.6292                 1.4490
 Frc consts  --      1.4049                 1.8204                 1.6576
 IR Inten    --      2.9054                24.4845                 5.8395

                     58                     59                     60
                      A                      A                      A
 Frequencies --   1395.0387              1401.8543              1417.9609
 Red. masses --      1.3482                 1.4639                 1.3816
 Frc consts  --      1.5458                 1.6950                 1.6367
 IR Inten    --      1.6626                10.1543                 3.4843

                     61                     62                     63
                      A                      A                      A
 Frequencies --   1426.7470              1431.2498              1438.7386
 Red. masses --      1.2882                 1.3778                 1.2590
 Frc consts  --      1.5450                 1.6630                 1.5354
 IR Inten    --      5.0814                 4.6461                 4.6647

                     64                     65                     66
                      A                      A                      A
 Frequencies --   1445.8478              1450.4973              1504.9249
 Red. masses --      1.2408                 1.2589                 1.0749
 Frc consts  --      1.5283                 1.5606                 1.4344
 IR Inten    --      6.2328                 3.6252                 1.3677

                     67                     68                     69
                      A                      A                      A
 Frequencies --   1512.8033              1518.2643              1521.6915
 Red. masses --      1.0724                 1.0668                 1.0548
 Frc consts  --      1.4459                 1.4489                 1.4391
 IR Inten    --      2.1397                 2.3229                 1.5310

                     70                     71                     72
                      A                      A                      A
 Frequencies --   1524.8138              1530.2916              1534.5380
 Red. masses --      1.0531                 1.0578                 1.0805
 Frc consts  --      1.4427                 1.4595                 1.4991
 IR Inten    --      7.5306                 5.9546                11.6915

                     73                     74                     75
                      A                      A                      A
 Frequencies --   1536.2297              1537.4672              1541.0149
 Red. masses --      1.0650                 1.0687                 1.0495
 Frc consts  --      1.4809                 1.4884                 1.4684
 IR Inten    --      8.6752                 0.5152                 2.9522

                     76                     77                     78
                      A                      A                      A
 Frequencies --   1543.7568              1545.5358              1643.6240
 Red. masses --      1.0493                 1.0514                 1.2475
 Frc consts  --      1.4734                 1.4797                 1.9856
 IR Inten    --      6.2224                 8.7506                99.4051

                     79                     80                     81
                      A                      A                      A
 Frequencies --   1776.2873              3020.7259              3026.7369
 Red. masses --      8.3641                 1.0715                 1.0619
 Frc consts  --     15.5488                 5.7604                 5.7316
 IR Inten    --    213.5082                17.3126                 9.7542

                     82                     83                     84
                      A                      A                      A
 Frequencies --   3033.7593              3037.0580              3037.9911
 Red. masses --      1.0362                 1.0480                 1.0683
 Frc consts  --      5.6192                 5.6954                 5.8090
 IR Inten    --     23.0334                 9.1023                19.9039

                     85                     86                     87
                      A                      A                      A
 Frequencies --   3043.8365              3045.3610              3048.8163
 Red. masses --      1.0724                 1.0585                 1.0441
 Frc consts  --      5.8537                 5.7840                 5.7179
 IR Inten    --     32.9669                72.4655                43.3890

                     88                     89                     90
                      A                      A                      A
 Frequencies --   3057.8943              3060.3537              3079.3091
 Red. masses --      1.0375                 1.1002                 1.0978
 Frc consts  --      5.7156                 6.0709                 6.1332
 IR Inten    --     29.9049                18.9801                53.3397

                     91                     92                     93
                      A                      A                      A
 Frequencies --   3094.5315              3103.3963              3105.1202
 Red. masses --      1.1019                 1.1005                 1.1000
 Frc consts  --      6.2169                 6.2445                 6.2487
 IR Inten    --      5.0394                65.7815                66.4736

                     94                     95                     96
                      A                      A                      A
 Frequencies --   3108.3338              3109.3691              3115.0028
 Red. masses --      1.1011                 1.0987                 1.0988
 Frc consts  --      6.2680                 6.2585                 6.2818
 IR Inten    --     36.5878                 8.0778                 7.7718

                     97                     98                     99
                      A                      A                      A
 Frequencies --   3120.4253              3127.2305              3139.3347
 Red. masses --      1.0947                 1.0936                 1.1009
 Frc consts  --      6.2799                 6.3011                 6.3924
 IR Inten    --     38.1500                28.8972                25.2852

                    100                    101                    102
                      A                      A                      A
 Frequencies --   3144.0352              3592.5970              3719.2973
 Red. masses --      1.1018                 1.0455                 1.1037
 Frc consts  --      6.4167                 7.9503                 8.9955
 IR Inten    --     23.8575                25.3983                25.3706

 - Thermochemistry -
 -------------------
 Temperature   298.150 Kelvin.  Pressure   1.00000 Atm.
 Atom     1 has atomic number  6 and mass  12.00000

 Molecular mass:   185.17796 amu.
 Principal axes and moments of inertia in atomic units:
                           1         2         3
     Eigenvalues --  1532.216643629.082483884.08556
           X            0.99995   0.01013   0.00074
           Y           -0.01014   0.99986   0.01311
           Z           -0.00061  -0.01312   0.99991
 This molecule is an asymmetric top.
 Rotational symmetry number  1.
 Warning -- assumption of classical behavior for rotation
           may cause significant error
 Rotational temperatures (Kelvin)      0.05653     0.02387     0.02230
 Rotational constants (GHZ):           1.17786     0.49730     0.46465
 Zero-point vibrational energy     873042.2 (Joules/Mol)
                                  208.66208 (Kcal/Mol)
 Warning -- explicit consideration of  26 degrees of freedom as
           vibrations may cause significant error
 Vibrational temperatures:     59.35    65.22   100.30   119.95   193.63
          (Kelvin)            207.89   245.55   295.62   326.76   353.23
                              362.52   381.29   399.71   420.76   441.39
                              463.80   475.92   533.74   544.25   590.67
                              624.62   662.12   718.15   761.49   788.73
                              847.53   991.87  1047.38  1129.69  1133.35
                             1192.41  1229.54  1277.55  1319.99  1353.87
                             1389.94  1407.14  1440.18  1465.52  1472.54
                             1494.70  1554.43  1581.54  1589.03  1635.71
                             1650.44  1710.46  1730.66  1739.72  1750.72
                             1829.39  1835.17  1912.17  1922.26  1960.94
                             1981.41  2004.84  2007.15  2016.96  2040.13
                             2052.77  2059.25  2070.02  2080.25  2086.94
                             2165.25  2176.59  2184.44  2189.37  2193.87
                             2201.75  2207.86  2210.29  2212.07  2217.18
                             2221.12  2223.68  2364.81  2555.68  4346.15
                             4354.80  4364.90  4369.65  4370.99  4379.40
                             4381.60  4386.57  4399.63  4403.17  4430.44
                             4452.34  4465.10  4467.58  4472.20  4473.69
                             4481.79  4489.60  4499.39  4516.80  4523.57
                             5168.95  5351.24

 Zero-point correction=                           0.332524 (Hartree/Particle)
 Thermal correction to Energy=                    0.348668
 Thermal correction to Enthalpy=                  0.349612
 Thermal correction to Gibbs Free Energy=         0.290024
 Sum of electronic and zero-point Energies=           -562.758665
 Sum of electronic and thermal Energies=              -562.742521
 Sum of electronic and thermal Enthalpies=            -562.741577
 Sum of electronic and thermal Free Energies=         -562.801165

                     E (Thermal)             CV                S
                      KCal/Mol        Cal/Mol-Kelvin    Cal/Mol-Kelvin
 Total                  218.793             61.201            125.415
 Electronic               0.000              0.000              0.000
 Translational            0.889              2.981             41.555
 Rotational               0.889              2.981             31.446
 Vibrational            217.015             55.239             52.413
 Vibration     1          0.594              1.981              5.198
 Vibration     2          0.595              1.979              5.011
 Vibration     3          0.598              1.969              4.161
 Vibration     4          0.600              1.961              3.810
 Vibration     5          0.613              1.919              2.880
 Vibration     6          0.616              1.909              2.744
 Vibration     7          0.626              1.879              2.428
 Vibration     8          0.640              1.832              2.084
 Vibration     9          0.651              1.800              1.902
 Vibration    10          0.660              1.770              1.763
 Vibration    11          0.664              1.759              1.717
 Vibration    12          0.671              1.737              1.629
 Vibration    13          0.679              1.715              1.547
 Vibration    14          0.688              1.688              1.460
 Vibration    15          0.697              1.661              1.380
 Vibration    16          0.707              1.631              1.298
 Vibration    17          0.713              1.614              1.256
 Vibration    18          0.743              1.532              1.076
 Vibration    19          0.749              1.516              1.046
 Vibration    20          0.775              1.447              0.925
 Vibration    21          0.795              1.396              0.845
 Vibration    22          0.818              1.338              0.766
 Vibration    23          0.855              1.252              0.660
 Vibration    24          0.884              1.185              0.589
 Vibration    25          0.903              1.144              0.548
 Vibration    26          0.946              1.055              0.469

 Optimization completed.
    -- Stationary point found.
 Normal termination of Gaussian 16 at Wed Dec  9 22:46:19 2020.

 ----------------------------------------------------------------------
 # B3LYP/6-311++G(d,p) empiricaldispersion=gd3bj scf=xqc pop=npa geom=c
 heck
 ----------------------------------------------------------------------

 --------------------------------------
 CID_60206713_JID_3133_Energie_neutraal
 --------------------------------------
 Structure from the checkpoint file:  "JID_3133.chk"
 Charge =  0 Multiplicity = 1

 SCF Done:  E(RB3LYP) =  -563.258734869     A.U. after   14 cycles
 Normal termination of Gaussian 16 at Wed Dec  9 22:52:36 2020.

 ----------------------------------------------------------------------
 # B3LYP/6-311++G(d,p) empiricaldispersion=gd3bj scf=xqc pop=npa geom=c
 heck
 ----------------------------------------------------------------------

 ------------------------------------
 CID_60206713_JID_3133_Energie_kation
 ------------------------------------
 Structure from the checkpoint file:  "JID_3133.chk"
 Charge =  1 Multiplicity = 2

 SCF Done:  E(UB3LYP) =  -562.924151283     A.U. after   30 cycles
 Normal termination of Gaussian 16 at Wed Dec  9 23:09:10 2020.
 Gaussian 16:  ES64L-G16RevA.03 25-Dec-2016

 ----------------------------------------------------------------------
 # B3LYP/6-311++G(d,p) empiricaldispersion=gd3bj scf=xqc pop=npa geom=c
 heck
 ----------------------------------------------------------------------

 -----------------------------------
 CID_60206713_JID_3133_Energie_anion
 -----------------------------------
 Structure from the checkpoint file:  "JID_3133.chk"
 Charge = -1 Multiplicity = 2

                         Standard orientation:
 ---------------------------------------------------------------------
 Center     Atomic      Atomic             Coordinates (Angstroms)
 Number     Number       Type             X           Y           Z
 ---------------------------------------------------------------------
      1          6           0       -3.355559    0.012436   -1.313527
      2          6           0       -2.095873   -0.763056   -0.917117
      3          6           0       -1.421722   -0.305849    0.394013
      4          6           0       -2.451726   -0.293395    1.546434
      5          6           0       -0.292911   -1.305035    0.800127
      6          6           0        0.696925   -1.783922   -0.276373
      7          6           0        1.572021   -0.713102   -0.944832
      8          6           0        2.456363    0.118125    0.002392
      9          6           0        3.548903   -0.729526    0.665244
     10          6           0        3.057913    1.307847   -0.754880
     11          6           0       -0.835484    1.109417    0.196931
     12          8           0       -0.660738    1.623602   -0.901726
     13          7           0       -0.521833    1.792733    1.342554
     14          1           0       -4.161927   -0.106264   -0.581747
     15          1           0       -3.732605   -0.348380   -2.276764
     16          1           0       -3.135947    1.078393   -1.419586
     17          1           0       -2.340305   -1.828667   -0.808513
     18          1           0       -1.368994   -0.683221   -1.729002
     19          1           0       -3.009802   -1.236271    1.549446
     20          1           0       -1.968961   -0.206912    2.527271
     21          1           0       -3.168027    0.527084    1.452225
     22          1           0        0.262886   -0.881589    1.647229
     23          1           0       -0.798955   -2.195332    1.197529
     24          1           0        1.337534   -2.541207    0.194587
     25          1           0        0.142827   -2.316337   -1.058507
     26          1           0        2.225064   -1.211869   -1.676170
     27          1           0        0.934585   -0.031078   -1.514198
     28          1           0        1.821535    0.530069    0.798119
     29          1           0        4.212174   -1.167205   -0.092235
     30          1           0        4.167288   -0.122846    1.337482
     31          1           0        3.129002   -1.552880    1.254197
     32          1           0        2.264323    1.942954   -1.163824
     33          1           0        3.689245    1.921302   -0.100405
     34          1           0        3.681539    0.964845   -1.590797
     35          1           0       -0.508364    1.347618    2.246859
     36          1           0       -0.008483    2.656199    1.232264
 ---------------------------------------------------------------------

 SCF Done:  E(UB3LYP) =  -563.247331088     A.U. after   31 cycles

 The electronic state is 2-A.
 Alpha  occ. eigenvalues --  -18.98368 -14.22040 -10.16698 -10.08990 -10.06687
 Alpha  occ. eigenvalues --  -10.06511 -10.06492 -10.06366 -10.05899 -10.05823
 Alpha  occ. eigenvalues --  -10.05449 -10.05428 -10.05213  -0.93422  -0.79600
 Alpha  occ. eigenvalues --   -0.72830  -0.70473  -0.65491  -0.62904  -0.58101
 Alpha  occ. eigenvalues --   -0.57550  -0.54759  -0.51707  -0.49804  -0.45507
 Alpha  occ. eigenvalues --   -0.44312  -0.41614  -0.37858  -0.36975  -0.35558
 Alpha  occ. eigenvalues --   -0.34449  -0.33771  -0.32821  -0.32408  -0.31517
 Alpha  occ. eigenvalues --   -0.30223  -0.29338  -0.28700  -0.28318  -0.27293
 Alpha  occ. eigenvalues --   -0.26989  -0.26688  -0.25256  -0.24552  -0.24084
 Alpha  occ. eigenvalues --   -0.22664  -0.22434  -0.21497  -0.20426  -0.20267
 Alpha  occ. eigenvalues --   -0.16586  -0.15083   0.04516
 Alpha virt. eigenvalues --    0.06859   0.07240   0.07914   0.08969   0.09210
 Alpha virt. eigenvalues --    0.09301   0.10021   0.10592   0.11181   0.11442
 Alpha virt. eigenvalues --    0.11975   0.12142   0.12453   0.12756   0.13709

  Beta  occ. eigenvalues --  -18.98356 -14.21968 -10.16692 -10.08987 -10.06660
  Beta  occ. eigenvalues --  -10.06502 -10.06481 -10.06359 -10.05853 -10.05812
  Beta  occ. eigenvalues --  -10.05447 -10.05405 -10.05200  -0.93399  -0.79505
  Beta  occ. eigenvalues --   -0.72801  -0.70452  -0.65463  -0.62870  -0.58060
  Beta  occ. eigenvalues --   -0.57498  -0.54699  -0.51645  -0.49752  -0.45422
  Beta  occ. eigenvalues --   -0.44250  -0.41549  -0.37812  -0.36938  -0.35528
  Beta  occ. eigenvalues --   -0.34423  -0.33740  -0.32790  -0.32378  -0.31487
  Beta  occ. eigenvalues --   -0.30188  -0.29308  -0.28668  -0.28301  -0.27263
  Beta  occ. eigenvalues --   -0.26956  -0.26660  -0.25227  -0.24526  -0.24065
  Beta  occ. eigenvalues --   -0.22633  -0.22404  -0.21474  -0.20399  -0.20239
  Beta  occ. eigenvalues --   -0.16515  -0.15036
  Beta virt. eigenvalues --    0.06775   0.07374   0.07982   0.08373   0.09247
  Beta virt. eigenvalues --    0.09552   0.09673   0.10441   0.11006   0.11387
  Beta virt. eigenvalues --    0.11657   0.12211   0.12431   0.12708   0.12887

 Mulliken charges and spin densities:
               1          2
     1  C    0.052193  -0.689411
     2  C   -0.182827  -0.293903
     3  C   -0.114776   1.326315
     4  C    1.172867  -1.675254
     5  C   -0.241286  -0.165413
     6  C   -0.455613   0.088923
     7  C    0.273769  -0.553299
     8  C   -0.227893   0.595045
     9  C   -0.341334  -0.280098
    10  C   -0.044857  -0.627550
    11  C    0.892067  -1.907868
    12  O   -0.275515   0.028580
    13  N   -0.451370   0.276358
    14  H   -0.000103   0.136205
    15  H    0.083589   0.037636
    16  H    0.135723   0.040518
    17  H   -0.016758   0.166746
    18  H    0.215325  -0.046541
    19  H   -0.220867   0.376943
    20  H   -0.533619   0.687494
    21  H   -0.059636   0.230892
    22  H    0.003642   0.177551
    23  H   -0.197811   0.371792
    24  H    0.010470   0.153944
    25  H    0.098349   0.052578
    26  H    0.078305   0.067976
    27  H    0.082770   0.087867
    28  H    0.064751   0.134121
    29  H    0.062318   0.059657
    30  H   -0.222446   0.365805
    31  H   -0.200667   0.338111
    32  H    0.113239   0.054564
    33  H   -0.072794   0.201194
    34  H    0.069954   0.047357
    35  H   -0.358118   0.636720
    36  H   -0.191041   0.498446
 Sum of Mulliken charges =  -1.00000   1.00000

 Dipole moment (field-independent basis, Debye):
    X=             -0.0107    Y=             -2.3155    Z=             -6.4871  Tot=              6.8880
 Quadrupole moment (field-independent basis, Debye-Ang):
   XX=           -137.2259   YY=           -123.6452   ZZ=           -135.1818
   XY=             -2.4788   XZ=              0.0309   YZ=             -0.3004

 Summary of Natural Population Analysis:

                                       Natural Population
                Natural  -----------------------------------------------
    Atom  No    Charge         Core      Valence    Rydberg      Total
 -----------------------------------------------------------------------
      C    1   -0.28650      0.99966     2.28248    0.00436     3.28650
      C    2   -0.18982      0.99961     2.18035    0.00986     3.18982
      C    3   -0.07832      0.99951     2.06454    0.01427     3.07832
      C    4   -0.28608      0.99964     2.27818    0.00827     3.28608
      C    5   -0.18421      0.99959     2.17359    0.01102     3.18421
      C    6   -0.18896      0.99962     2.18078    0.00856     3.18896
      C    7   -0.19390      0.99960     2.18674    0.00756     3.19390
      C    8   -0.12343      0.99961     2.11419    0.00963     3.12343
      C    9   -0.28394      0.99965     2.27791    0.00638     3.28394
      C   10   -0.28278      0.99965     2.27693    0.00620     3.28278
      C   11    0.34923      0.99962     1.62519    0.02596     2.65077
      O   12   -0.33033      0.99988     3.32464    0.00582     4.33033
      N   13   -0.40236      0.99970     2.89301    0.00965     3.90236
      H   14    0.09473      0.00000     0.40436    0.00091     0.40527
      H   15    0.09482      0.00000     0.40444    0.00074     0.40518
      H   16    0.10545      0.00000     0.39359    0.00095     0.39455
      H   17    0.09413      0.00000     0.40487    0.00099     0.40587
      H   18    0.10570      0.00000     0.39307    0.00123     0.39430
      H   19    0.10102      0.00000     0.39771    0.00127     0.39898
      H   20    0.10534      0.00000     0.39227    0.00239     0.39466
      H   21    0.10318      0.00000     0.39548    0.00134     0.39682
      H   22    0.10226      0.00000     0.39526    0.00248     0.39774
      H   23    0.10025      0.00000     0.39840    0.00135     0.39975
      H   24    0.09679      0.00000     0.40219    0.00102     0.40321
      H   25    0.09526      0.00000     0.40374    0.00100     0.40474
      H   26    0.09111      0.00000     0.40793    0.00096     0.40889
      H   27    0.10912      0.00000     0.38939    0.00149     0.39088
      H   28    0.09859      0.00000     0.39809    0.00332     0.40141
      H   29    0.09141      0.00000     0.40775    0.00084     0.40859
      H   30    0.09971      0.00000     0.39945    0.00085     0.40029
      H   31    0.09951      0.00000     0.39947    0.00102     0.40049
      H   32    0.10578      0.00000     0.39336    0.00086     0.39422
      H   33    0.09723      0.00000     0.40201    0.00077     0.40277
      H   34    0.09069      0.00000     0.40853    0.00078     0.40931
      H   35    0.20256      0.00000     0.28788    0.00956     0.29744
      H   36    0.19677      0.00000     0.30058    0.00265     0.30323
 =======================================================================
   * Total *   -0.00000     12.99533    38.83835    0.16631    52.00000

 Normal termination of Gaussian 16 at Wed Dec  9 23:26:22 2020.
