 Gaussian 16, Revision A.03,

 -----------------------------------------------------------
 # opt freq B3LYP/6-31G(d) empiricaldispersion=gd3bj scf=xqc
 -----------------------------------------------------------

 ------------------------------
 CID_84038619_JID_1391_neutraal
 ------------------------------
 Symbolic Z-matrix:
 Charge =  0 Multiplicity = 1

 SCF Done:  E(RB3LYP) =  -478.134337684     A.U. after   14 cycles
 SCF Done:  E(RB3LYP) =  -478.138684784     A.U. after   12 cycles
 SCF Done:  E(RB3LYP) =  -478.139535290     A.U. after   11 cycles
 SCF Done:  E(RB3LYP) =  -478.140442774     A.U. after   11 cycles
 SCF Done:  E(RB3LYP) =  -478.140925988     A.U. after   11 cycles
 SCF Done:  E(RB3LYP) =  -478.141098425     A.U. after   11 cycles
 SCF Done:  E(RB3LYP) =  -478.141157009     A.U. after   10 cycles
 SCF Done:  E(RB3LYP) =  -478.141175991     A.U. after   10 cycles
 SCF Done:  E(RB3LYP) =  -478.141184068     A.U. after    8 cycles
 SCF Done:  E(RB3LYP) =  -478.141193551     A.U. after   10 cycles
 SCF Done:  E(RB3LYP) =  -478.141208945     A.U. after    9 cycles
 SCF Done:  E(RB3LYP) =  -478.141209365     A.U. after    7 cycles
 SCF Done:  E(RB3LYP) =  -478.141209967     A.U. after    8 cycles
 SCF Done:  E(RB3LYP) =  -478.141210489     A.U. after    8 cycles
 SCF Done:  E(RB3LYP) =  -478.141210690     A.U. after    7 cycles
 SCF Done:  E(RB3LYP) =  -478.141210781     A.U. after    7 cycles
 Optimization completed.
    -- Stationary point found.

 1\1\GINC-NODE102\FOpt\RB3LYP\6-31G(d)\C8H15N3\VSC10255\08-Dec-2020\0\\
 # opt freq B3LYP/6-31G(d) empiricaldispersion=gd3bj scf=xqc\\CID_84038
 619_JID_1391_neutraal\\0,1\C,0.6605845984,-0.129151075,-0.2008503685\N
 ,0.4863171053,0.4314847109,1.1374961244\C,-0.8863520117,0.378484248,1.
 626725561\C,-1.42625631,-1.0041248884,1.9013878764\C,-0.7603381322,-2.
 2052090008,2.0485188242\C,-1.7249823131,-3.1999332309,2.3665539783\C,-
 2.9610447666,-2.5924334647,2.414624769\N,-2.7726398221,-1.2469498217,2
 .1150762682\C,-3.7952157223,-0.2204525508,2.1783582252\C,-4.3118516595

 Normal termination of Gaussian 16 at Tue Dec  8 19:59:37 2020.

 --------------------------------------------------------------------
 #N Geom=AllCheck Guess=TCheck SCRF=Check GenChk RB3LYP/6-31G(d) Freq
 --------------------------------------------------------------------

 Structure from the checkpoint file:  "JID_1391.chk"
 ------------------------------
 CID_84038619_JID_1391_neutraal
 ------------------------------
 Charge =  0 Multiplicity = 1

 SCF Done:  E(RB3LYP) =  -478.141210781     A.U. after    1 cycles

  Exact polarizability: 130.870   2.239 103.976   0.727   2.578  72.219
 Approx polarizability: 170.603   2.546 162.970   3.071   6.221 105.048

                      1                      2                      3
                      A                      A                      A
 Frequencies --     36.6368                60.7623                86.8565
 Red. masses --      3.2414                 1.3315                 2.7813
 Frc consts  --      0.0026                 0.0029                 0.0124
 IR Inten    --      0.1728                 0.8138                 1.6913

                      4                      5                      6
                      A                      A                      A
 Frequencies --    109.1483               134.5972               168.4935
 Red. masses --      2.1949                 2.7557                 1.3851
 Frc consts  --      0.0154                 0.0294                 0.0232
 IR Inten    --      3.4450                 5.4026                 3.5205

                      7                      8                      9
                      A                      A                      A
 Frequencies --    177.1037               218.0809               233.4380
 Red. masses --      2.0264                 1.5776                 2.0535
 Frc consts  --      0.0374                 0.0442                 0.0659
 IR Inten    --     10.7965                19.9190                 1.3992

                     10                     11                     12
                      A                      A                      A
 Frequencies --    245.1062               306.7282               326.9071
 Red. masses --      2.9414                 2.0740                 2.1604
 Frc consts  --      0.1041                 0.1150                 0.1360
 IR Inten    --     20.3275                 4.5150                10.3904

                     13                     14                     15
                      A                      A                      A
 Frequencies --    411.2710               424.5917               510.1669
 Red. masses --      4.3439                 2.4979                 3.3466
 Frc consts  --      0.4329                 0.2653                 0.5132
 IR Inten    --      0.8099                 7.1925                 2.3312

                     16                     17                     18
                      A                      A                      A
 Frequencies --    612.2242               636.7520               671.4264
 Red. masses --      3.8420                 3.5879                 3.7840
 Frc consts  --      0.8485                 0.8571                 1.0051
 IR Inten    --      3.0247                 4.6819                 9.6210

                     19                     20                     21
                      A                      A                      A
 Frequencies --    723.4481               756.3946               772.7094
 Red. masses --      2.8551                 2.2913                 1.2816
 Frc consts  --      0.8804                 0.7724                 0.4509
 IR Inten    --      2.2250                60.6637                45.1673

                     22                     23                     24
                      A                      A                      A
 Frequencies --    814.1410               837.5591               856.6300
 Red. masses --      2.1801                 1.3198                 1.2946
 Frc consts  --      0.8514                 0.5455                 0.5597
 IR Inten    --    113.9480                18.7069               102.8485

                     25                     26                     27
                      A                      A                      A
 Frequencies --    947.8508               964.5420               993.8505
 Red. masses --      2.3391                 2.9351                 2.1385
 Frc consts  --      1.2382                 1.6088                 1.2445
 IR Inten    --      2.8175                 1.2287                43.9530

                     28                     29                     30
                      A                      A                      A
 Frequencies --   1008.7766              1055.0918              1062.3969
 Red. masses --      1.5831                 1.3584                 1.8092
 Frc consts  --      0.9492                 0.8910                 1.2031
 IR Inten    --      1.6516                 2.4989                17.7410

                     31                     32                     33
                      A                      A                      A
 Frequencies --   1143.6423              1152.1476              1156.3669
 Red. masses --      1.8095                 1.4231                 1.8965
 Frc consts  --      1.3944                 1.1130                 1.4941
 IR Inten    --      7.3315                 7.0232                19.5534

                     34                     35                     36
                      A                      A                      A
 Frequencies --   1165.9285              1178.9421              1207.8260
 Red. masses --      1.4263                 1.6226                 2.0614
 Frc consts  --      1.1424                 1.3288                 1.7718
 IR Inten    --     14.8898                 0.6002                11.0350

                     37                     38                     39
                      A                      A                      A
 Frequencies --   1231.2966              1251.1574              1304.1782
 Red. masses --      2.0204                 1.4676                 1.2345
 Frc consts  --      1.8047                 1.3535                 1.2371
 IR Inten    --      5.2995                 5.9977                 2.5451

                     40                     41                     42
                      A                      A                      A
 Frequencies --   1333.6684              1349.4536              1376.8100
 Red. masses --      1.2982                 3.9929                 1.5988
 Frc consts  --      1.3604                 4.2841                 1.7856
 IR Inten    --      0.3979                38.4777                39.0155

                     43                     44                     45
                      A                      A                      A
 Frequencies --   1418.0922              1440.6365              1465.4336
 Red. masses --      3.3117                 1.5448                 1.8681
 Frc consts  --      3.9239                 1.8890                 2.3636
 IR Inten    --      5.0077                35.8424                33.7664

                     46                     47                     48
                      A                      A                      A
 Frequencies --   1481.1465              1503.8677              1505.4947
 Red. masses --      1.1985                 1.2990                 1.3276
 Frc consts  --      1.5491                 1.7310                 1.7729
 IR Inten    --      4.4211                 1.9151                20.8528

                     49                     50                     51
                      A                      A                      A
 Frequencies --   1513.5811              1517.8553              1523.2192
 Red. masses --      1.1704                 1.0680                 1.1180
 Frc consts  --      1.5798                 1.4497                 1.5284
 IR Inten    --     10.5210                 0.5376                 2.3281

                     52                     53                     54
                      A                      A                      A
 Frequencies --   1541.3261              1547.7550              1553.6079
 Red. masses --      1.0974                 1.1370                 1.1586
 Frc consts  --      1.5360                 1.6048                 1.6476
 IR Inten    --      2.6016                 4.7037                 6.8290

                     55                     56                     57
                      A                      A                      A
 Frequencies --   1557.4375              1627.9013              1687.3654
 Red. masses --      2.9979                 5.3283                 1.0927
 Frc consts  --      4.2843                 8.3195                 1.8330
 IR Inten    --      5.8458                 1.5655                25.1311

                     58                     59                     60
                      A                      A                      A
 Frequencies --   2945.2280              3003.3996              3008.5349
 Red. masses --      1.0747                 1.0551                 1.0550
 Frc consts  --      5.4926                 5.6076                 5.6264
 IR Inten    --     85.1994                92.7895                 6.4135

                     61                     62                     63
                      A                      A                      A
 Frequencies --   3038.5763              3046.5646              3075.8906
 Red. masses --      1.0984                 1.0462                 1.0885
 Frc consts  --      5.9750                 5.7211                 6.0676
 IR Inten    --     28.6532                61.1835                50.1030

                     64                     65                     66
                      A                      A                      A
 Frequencies --   3084.9320              3118.8796              3119.2022
 Red. masses --      1.0867                 1.1005                 1.0928
 Frc consts  --      6.0931                 6.3074                 6.2645
 IR Inten    --     27.4933                27.4846                27.9209

                     67                     68                     69
                      A                      A                      A
 Frequencies --   3158.2863              3246.9627              3262.1523
 Red. masses --      1.1022                 1.0910                 1.1002
 Frc consts  --      6.4775                 6.7770                 6.8981
 IR Inten    --     14.9867                11.6770                 6.6986

                     70                     71                     72
                      A                      A                      A
 Frequencies --   3456.7409              3499.6499              3550.7201
 Red. masses --      1.0495                 1.0737                 1.0926
 Frc consts  --      7.3888                 7.7478                 8.1160
 IR Inten    --      7.8216                 0.4878                 4.3933

 - Thermochemistry -
 -------------------
 Temperature   298.150 Kelvin.  Pressure   1.00000 Atm.
 Atom     1 has atomic number  6 and mass  12.00000

 Molecular mass:   153.12660 amu.
 Principal axes and moments of inertia in atomic units:
                           1         2         3
     Eigenvalues --   795.629132975.144453307.47107
           X            0.99988   0.01296  -0.00861
           Y           -0.01299   0.99991  -0.00270
           Z            0.00858   0.00281   0.99996
 This molecule is an asymmetric top.
 Rotational symmetry number  1.
 Warning -- assumption of classical behavior for rotation
           may cause significant error
 Rotational temperatures (Kelvin)      0.10886     0.02911     0.02619
 Rotational constants (GHZ):           2.26832     0.60661     0.54566
 Zero-point vibrational energy     607197.8 (Joules/Mol)
                                  145.12375 (Kcal/Mol)
 Warning -- explicit consideration of  16 degrees of freedom as
           vibrations may cause significant error
 Vibrational temperatures:     52.71    87.42   124.97   157.04   193.66
          (Kelvin)            242.42   254.81   313.77   335.87   352.65
                              441.31   470.35   591.73   610.89   734.02
                              880.85   916.14   966.03  1040.88  1088.28
                             1111.76  1171.37  1205.06  1232.50  1363.75
                             1387.76  1429.93  1451.40  1518.04  1528.55
                             1645.45  1657.68  1663.75  1677.51  1696.23
                             1737.79  1771.56  1800.14  1876.42  1918.85
                             1941.56  1980.92  2040.32  2072.75  2108.43
                             2131.04  2163.73  2166.07  2177.71  2183.86
                             2191.57  2217.62  2226.87  2235.30  2240.81
                             2342.19  2427.74  4237.53  4321.22  4328.61
                             4371.83  4383.33  4425.52  4438.53  4487.37
                             4487.84  4544.07  4671.66  4693.51  4973.48
                             5035.22  5108.69

 Zero-point correction=                           0.231269 (Hartree/Particle)
 Thermal correction to Energy=                    0.243649
 Thermal correction to Enthalpy=                  0.244593
 Thermal correction to Gibbs Free Energy=         0.192185
 Sum of electronic and zero-point Energies=           -477.909941
 Sum of electronic and thermal Energies=              -477.897562
 Sum of electronic and thermal Enthalpies=            -477.896618
 Sum of electronic and thermal Free Energies=         -477.949026

                     E (Thermal)             CV                S
                      KCal/Mol        Cal/Mol-Kelvin    Cal/Mol-Kelvin
 Total                  152.892             44.605            110.302
 Electronic               0.000              0.000              0.000
 Translational            0.889              2.981             40.988
 Rotational               0.889              2.981             30.438
 Vibrational            151.114             38.644             38.876
 Vibration     1          0.594              1.982              5.433
 Vibration     2          0.597              1.973              4.432
 Vibration     3          0.601              1.958              3.730
 Vibration     4          0.606              1.942              3.284
 Vibration     5          0.613              1.919              2.879
 Vibration     6          0.625              1.881              2.452
 Vibration     7          0.628              1.871              2.359
 Vibration     8          0.646              1.814              1.975
 Vibration     9          0.654              1.790              1.852
 Vibration    10          0.660              1.771              1.766
 Vibration    11          0.697              1.661              1.380
 Vibration    12          0.711              1.622              1.275
 Vibration    13          0.775              1.446              0.922
 Vibration    14          0.787              1.417              0.877
 Vibration    15          0.865              1.227              0.633
 Vibration    16          0.971              1.006              0.429

 Optimization completed.
    -- Stationary point found.

 1\1\GINC-NODE102\Freq\RB3LYP\6-31G(d)\C8H15N3\VSC10255\08-Dec-2020\0\\
 #N Geom=AllCheck Guess=TCheck SCRF=Check GenChk RB3LYP/6-31G(d) Freq\\
 CID_84038619_JID_1391_neutraal\\0,1\C,0.6605845984,-0.129151075,-0.200
 8503685\N,0.4863171053,0.4314847109,1.1374961244\C,-0.8863520117,0.378
 484248,1.626725561\C,-1.42625631,-1.0041248884,1.9013878764\C,-0.76033
 81322,-2.2052090008,2.0485188242\C,-1.7249823131,-3.1999332309,2.36655
 39783\C,-2.9610447666,-2.5924334647,2.414624769\N,-2.7726398221,-1.246
 9498217,2.1150762682\C,-3.7952157223,-0.2204525508,2.1783582252\C,-4.3

 Normal termination of Gaussian 16 at Tue Dec  8 20:05:37 2020.

 ----------------------------------------------------------------------
 # B3LYP/6-311++G(d,p) empiricaldispersion=gd3bj scf=xqc pop=npa geom=c
 heck
 ----------------------------------------------------------------------

 --------------------------------------
 CID_84038619_JID_1391_Energie_neutraal
 --------------------------------------
 Structure from the checkpoint file:  "JID_1391.chk"
 Charge =  0 Multiplicity = 1

 SCF Done:  E(RB3LYP) =  -478.284786583     A.U. after   15 cycles
 Normal termination of Gaussian 16 at Tue Dec  8 20:08:15 2020.

 ----------------------------------------------------------------------
 # B3LYP/6-311++G(d,p) empiricaldispersion=gd3bj scf=xqc pop=npa geom=c
 heck
 ----------------------------------------------------------------------

 ------------------------------------
 CID_84038619_JID_1391_Energie_kation
 ------------------------------------
 Structure from the checkpoint file:  "JID_1391.chk"
 Charge =  1 Multiplicity = 2

 SCF Done:  E(UB3LYP) =  -478.011506800     A.U. after   24 cycles
 Normal termination of Gaussian 16 at Tue Dec  8 20:14:35 2020.
 Gaussian 16:  ES64L-G16RevA.03 25-Dec-2016

 -----------------------------------
 CID_84038619_JID_1391_Energie_anion
 -----------------------------------
 Structure from the checkpoint file:  "JID_1391.chk"
 Charge = -1 Multiplicity = 2

                         Standard orientation:
 ---------------------------------------------------------------------
 Center     Atomic      Atomic             Coordinates (Angstroms)
 Number     Number       Type             X           Y           Z
 ---------------------------------------------------------------------
      1          6           0       -3.404198   -0.388623    1.142852
      2          7           0       -3.229160    0.175452   -0.193949
      3          6           0       -1.963776    0.876085   -0.379134
      4          6           0       -0.729083    0.008225   -0.349182
      5          6           0       -0.602878   -1.362080   -0.467642
      6          6           0        0.784054   -1.673597   -0.444469
      7          6           0        1.482336   -0.492171   -0.318563
      8          7           0        0.547235    0.535469   -0.247203
      9          6           0        0.854895    1.952715   -0.236059
     10          6           0        2.951902   -0.247607   -0.213428
     11          7           0        3.387082   -0.083796    1.188786
     12          1           0       -3.461850    0.432319    1.867825
     13          1           0       -2.599615   -1.067705    1.465959
     14          1           0       -4.355387   -0.929386    1.179432
     15          1           0       -3.305624   -0.562184   -0.891300
     16          1           0       -2.019797    1.421863   -1.333297
     17          1           0       -1.906201    1.648442    0.401251
     18          1           0       -1.421779   -2.064038   -0.547574
     19          1           0        1.232371   -2.656865   -0.492378
     20          1           0        0.815225    2.388239   -1.242631
     21          1           0        0.145396    2.487719    0.400424
     22          1           0        1.855772    2.109243    0.170114
     23          1           0        3.467134   -1.124530   -0.619697
     24          1           0        3.234629    0.602332   -0.861357
     25          1           0        4.340859    0.276357    1.211963
     26          1           0        2.803250    0.610640    1.651586
 ---------------------------------------------------------------------

 SCF Done:  E(UB3LYP) =  -478.272932895     A.U. after   29 cycles

 The electronic state is 2-A.
 Alpha  occ. eigenvalues --  -14.25048 -14.20609 -14.18288 -10.10106 -10.09574
 Alpha  occ. eigenvalues --  -10.09224 -10.09058 -10.08658 -10.08358 -10.04766
 Alpha  occ. eigenvalues --  -10.04665  -0.87649  -0.81042  -0.77091  -0.69474
 Alpha  occ. eigenvalues --   -0.65205  -0.60436  -0.58066  -0.55497  -0.52137
 Alpha  occ. eigenvalues --   -0.46695  -0.43206  -0.41203  -0.39185  -0.36998
 Alpha  occ. eigenvalues --   -0.35494  -0.34736  -0.34526  -0.32861  -0.32545
 Alpha  occ. eigenvalues --   -0.30829  -0.29174  -0.28236  -0.27812  -0.26929
 Alpha  occ. eigenvalues --   -0.26578  -0.25651  -0.25169  -0.13875  -0.13600
 Alpha  occ. eigenvalues --   -0.13078  -0.09955   0.04568
 Alpha virt. eigenvalues --    0.06601   0.07726   0.08060   0.09155   0.09404
 Alpha virt. eigenvalues --    0.09901   0.10953   0.11307   0.12226   0.12271
 Alpha virt. eigenvalues --    0.12853   0.13514   0.13714   0.14542   0.14991

  Beta  occ. eigenvalues --  -14.25040 -14.20604 -14.18240 -10.10082 -10.09500
  Beta  occ. eigenvalues --  -10.09199 -10.09041 -10.08655 -10.08360 -10.04765
  Beta  occ. eigenvalues --  -10.04660  -0.87628  -0.81028  -0.77009  -0.69442
  Beta  occ. eigenvalues --   -0.65171  -0.60385  -0.57982  -0.55440  -0.52084
  Beta  occ. eigenvalues --   -0.46678  -0.43139  -0.41173  -0.39141  -0.36947
  Beta  occ. eigenvalues --   -0.35444  -0.34677  -0.34488  -0.32793  -0.32512
  Beta  occ. eigenvalues --   -0.30793  -0.29125  -0.28205  -0.27779  -0.26893
  Beta  occ. eigenvalues --   -0.26553  -0.25625  -0.25132  -0.13849  -0.13569
  Beta  occ. eigenvalues --   -0.13042  -0.09932
  Beta virt. eigenvalues --    0.06649   0.07708   0.08278   0.08573   0.09481
  Beta virt. eigenvalues --    0.10002   0.10418   0.11492   0.11659   0.12459
  Beta virt. eigenvalues --    0.12729   0.13043   0.13867   0.14105   0.14870

 Mulliken charges and spin densities:
               1          2
     1  C    0.157201  -0.520348
     2  N   -0.217230   0.087058
     3  C    0.990523  -1.804248
     4  C   -0.850574   1.017662
     5  C    0.049823  -0.125051
     6  C   -0.252474   0.076975
     7  C   -0.216009   0.439352
     8  N   -0.113087   0.360943
     9  C    1.479679  -1.861302
    10  C    0.643267  -1.524666
    11  N   -0.376685   0.044514
    12  H   -0.195729   0.337327
    13  H    0.075367   0.043792
    14  H   -0.021382   0.151652
    15  H    0.143713   0.078438
    16  H   -0.140556   0.340646
    17  H    0.125480   0.042295
    18  H    0.054463   0.083645
    19  H    0.055709   0.074055
    20  H   -0.375895   0.572991
    21  H   -0.630050   0.786311
    22  H   -0.848762   1.012671
    23  H    0.047796   0.106910
    24  H   -0.428757   0.567438
    25  H   -0.219829   0.451051
    26  H    0.063999   0.159888
 Sum of Mulliken charges =  -1.00000   1.00000

 Dipole moment (field-independent basis, Debye):
    X=             -4.6888    Y=             -6.1046    Z=             -1.6503  Tot=              7.8724
 Quadrupole moment (field-independent basis, Debye-Ang):
   XX=           -134.6432   YY=           -110.6282   ZZ=           -100.9165
   XY=             -5.0300   XZ=             -3.9952   YZ=              1.4449

 Summary of Natural Population Analysis:

                                       Natural Population
                Natural  -----------------------------------------------
    Atom  No    Charge         Core      Valence    Rydberg      Total
 -----------------------------------------------------------------------
      C    1   -0.18037      0.99966     2.17389    0.00682     3.18037
      N    2   -0.33457      0.99977     2.82348    0.01133     3.83457
      C    3   -0.10173      0.99959     2.09006    0.01209     3.10173
      C    4    0.06953      0.99951     1.91769    0.01327     2.93047
      C    5   -0.15529      0.99950     2.14738    0.00840     3.15529
      C    6   -0.13745      0.99950     2.12956    0.00839     3.13745
      C    7    0.07079      0.99951     1.91552    0.01418     2.92921
      N    8   -0.20508      0.99960     2.69420    0.01128     3.70508
      C    9   -0.17752      0.99963     2.16883    0.00906     3.17752
      C   10   -0.10752      0.99959     2.09564    0.01228     3.10752
      N   11   -0.41954      0.99977     2.90905    0.01072     3.91954
      H   12    0.09175      0.00000     0.40693    0.00132     0.40825
      H   13    0.08606      0.00000     0.41214    0.00180     0.41394
      H   14    0.09022      0.00000     0.40884    0.00094     0.40978
      H   15    0.16809      0.00000     0.32857    0.00333     0.33191
      H   16    0.10049      0.00000     0.39790    0.00160     0.39951
      H   17    0.09929      0.00000     0.39894    0.00177     0.40071
      H   18    0.09906      0.00000     0.39999    0.00095     0.40094
      H   19    0.10115      0.00000     0.39810    0.00075     0.39885
      H   20    0.09811      0.00000     0.39957    0.00232     0.40189
      H   21    0.10338      0.00000     0.39394    0.00268     0.39662
      H   22    0.10700      0.00000     0.38892    0.00408     0.39300
      H   23    0.09583      0.00000     0.40286    0.00131     0.40417
      H   24    0.08859      0.00000     0.40904    0.00237     0.41141
      H   25    0.17499      0.00000     0.32190    0.00311     0.32501
      H   26    0.17473      0.00000     0.32253    0.00274     0.32527
 =======================================================================
   * Total *    0.00000     10.99564    30.85548    0.14888    42.00000

 Normal termination of Gaussian 16 at Tue Dec  8 20:22:09 2020.
