 Gaussian 16, Revision A.03,

 -----------------------------------------------------------
 # opt freq B3LYP/6-31G(d) empiricaldispersion=gd3bj scf=xqc
 -----------------------------------------------------------

 -------------------------------
 CID_103614634_JID_7173_neutraal
 -------------------------------
 Symbolic Z-matrix:
 Charge =  0 Multiplicity = 1

 SCF Done:  E(RB3LYP) =  -680.803686640     A.U. after   13 cycles
 SCF Done:  E(RB3LYP) =  -680.805220657     A.U. after   11 cycles
 SCF Done:  E(RB3LYP) =  -680.802326249     A.U. after   12 cycles
 SCF Done:  E(RB3LYP) =  -680.805341953     A.U. after   11 cycles
 SCF Done:  E(RB3LYP) =  -680.806450437     A.U. after   12 cycles
 SCF Done:  E(RB3LYP) =  -680.807027054     A.U. after   11 cycles
 SCF Done:  E(RB3LYP) =  -680.807173117     A.U. after   11 cycles
 SCF Done:  E(RB3LYP) =  -680.807224135     A.U. after   10 cycles
 SCF Done:  E(RB3LYP) =  -680.807251255     A.U. after    9 cycles
 SCF Done:  E(RB3LYP) =  -680.807262718     A.U. after   10 cycles
 SCF Done:  E(RB3LYP) =  -680.807264695     A.U. after    8 cycles
 SCF Done:  E(RB3LYP) =  -680.807266054     A.U. after    9 cycles
 SCF Done:  E(RB3LYP) =  -680.807266351     A.U. after    9 cycles
 SCF Done:  E(RB3LYP) =  -680.807266443     A.U. after    7 cycles
 SCF Done:  E(RB3LYP) =  -680.807266455     A.U. after    6 cycles
 Optimization completed.
    -- Stationary point found.
 Normal termination of Gaussian 16 at Fri Dec 11 12:00:40 2020.

 --------------------------------------------------------------------
 #N Geom=AllCheck Guess=TCheck SCRF=Check GenChk RB3LYP/6-31G(d) Freq
 --------------------------------------------------------------------

 Structure from the checkpoint file:  "JID_7173.chk"
 -------------------------------
 CID_103614634_JID_7173_neutraal
 -------------------------------
 Charge =  0 Multiplicity = 1

 SCF Done:  E(RB3LYP) =  -680.807266455     A.U. after    1 cycles

  Exact polarizability: 170.118 -18.564 184.299   2.579   1.829 152.662
 Approx polarizability: 204.436 -29.682 268.824   7.183   3.869 268.484

                      1                      2                      3
                      A                      A                      A
 Frequencies --     25.8462                39.4673                53.3311
 Red. masses --      3.5822                 3.0612                 2.7833
 Frc consts  --      0.0014                 0.0028                 0.0047
 IR Inten    --      0.0249                 0.0247                 0.0268

                      4                      5                      6
                      A                      A                      A
 Frequencies --     58.9634                70.5202                86.9048
 Red. masses --      2.6989                 3.8602                 3.4965
 Frc consts  --      0.0055                 0.0113                 0.0156
 IR Inten    --      0.0239                 0.0114                 0.0165

                      7                      8                      9
                      A                      A                      A
 Frequencies --    109.4213               112.9592               182.9684
 Red. masses --      3.3404                 3.0396                 2.6746
 Frc consts  --      0.0236                 0.0229                 0.0528
 IR Inten    --      0.4913                 0.0263                 0.5239

                     10                     11                     12
                      A                      A                      A
 Frequencies --    195.5284               218.8404               236.0881
 Red. masses --      3.5818                 1.3281                 1.1324
 Frc consts  --      0.0807                 0.0375                 0.0372
 IR Inten    --      0.3694                 0.1702                 0.0438

                     13                     14                     15
                      A                      A                      A
 Frequencies --    244.0399               248.8300               265.4412
 Red. masses --      1.2833                 1.2290                 2.0240
 Frc consts  --      0.0450                 0.0448                 0.0840
 IR Inten    --      0.3385                 0.0236                 1.6285

                     16                     17                     18
                      A                      A                      A
 Frequencies --    282.2009               295.3470               319.1624
 Red. masses --      1.7975                 2.3610                 2.1168
 Frc consts  --      0.0843                 0.1213                 0.1270
 IR Inten    --      0.2977                 0.1438                 2.0081

                     19                     20                     21
                      A                      A                      A
 Frequencies --    338.6176               367.6029               404.0104
 Red. masses --      2.5173                 2.2573                 2.4253
 Frc consts  --      0.1701                 0.1797                 0.2332
 IR Inten    --      1.2493                 0.0749                 0.2591

                     22                     23                     24
                      A                      A                      A
 Frequencies --    410.3630               418.4277               426.8241
 Red. masses --      2.2556                 2.9612                 1.9201
 Frc consts  --      0.2238                 0.3055                 0.2061
 IR Inten    --      0.9322                 0.0535                 0.2113

                     25                     26                     27
                      A                      A                      A
 Frequencies --    462.8486               474.0889               557.6363
 Red. masses --      2.8220                 3.3776                 2.8857
 Frc consts  --      0.3562                 0.4473                 0.5287
 IR Inten    --      0.2280                 3.0099                 5.8006

                     28                     29                     30
                      A                      A                      A
 Frequencies --    590.9420               630.0564               639.4891
 Red. masses --      3.0096                 3.6618                 5.3767
 Frc consts  --      0.6192                 0.8565                 1.2955
 IR Inten    --      0.8645                 0.4294                 0.0661

                     31                     32                     33
                      A                      A                      A
 Frequencies --    718.7836               750.4211               771.2645
 Red. masses --      1.7957                 1.9150                 1.9092
 Frc consts  --      0.5466                 0.6354                 0.6691
 IR Inten    --     30.8844                14.4743                53.7950

                     34                     35                     36
                      A                      A                      A
 Frequencies --    778.9444               806.8324               856.8722
 Red. masses --      2.2396                 2.2260                 1.5693
 Frc consts  --      0.8006                 0.8538                 0.6789
 IR Inten    --     16.4529                33.1630                20.1816

                     37                     38                     39
                      A                      A                      A
 Frequencies --    863.0372               872.2582               922.2710
 Red. masses --      1.2504                 2.1229                 1.8354
 Frc consts  --      0.5487                 0.9517                 0.9198
 IR Inten    --      0.0415                 1.9396                 4.4397

                     40                     41                     42
                      A                      A                      A
 Frequencies --    926.1458               941.4212               944.2781
 Red. masses --      1.4937                 1.2298                 1.2070
 Frc consts  --      0.7549                 0.6422                 0.6341
 IR Inten    --      1.0426                 3.1185                 0.5366

                     43                     44                     45
                      A                      A                      A
 Frequencies --    948.0365               968.0436               969.0117
 Red. masses --      1.6098                 1.6294                 1.6220
 Frc consts  --      0.8525                 0.8996                 0.8973
 IR Inten    --      1.9572                 1.9805                 1.5525

                     46                     47                     48
                      A                      A                      A
 Frequencies --    975.8744               979.8305               993.5621
 Red. masses --      1.4619                 1.4441                 1.2736
 Frc consts  --      0.8202                 0.8169                 0.7408
 IR Inten    --      1.0514                 0.1686                 0.0886

                     49                     50                     51
                      A                      A                      A
 Frequencies --   1001.6701              1022.6447              1030.1251
 Red. masses --      2.0871                 6.0265                 2.0169
 Frc consts  --      1.2338                 3.7134                 1.2610
 IR Inten    --      3.6631                 0.6129                 9.0287

                     52                     53                     54
                      A                      A                      A
 Frequencies --   1040.2881              1063.3781              1096.6343
 Red. masses --      1.9119                 2.1715                 2.2277
 Frc consts  --      1.2191                 1.4468                 1.5784
 IR Inten    --      5.5835                 1.7133                 0.3867

                     55                     56                     57
                      A                      A                      A
 Frequencies --   1111.2614              1146.0892              1151.4830
 Red. masses --      1.7554                 1.8867                 2.1547
 Frc consts  --      1.2772                 1.4601                 1.6833
 IR Inten    --      3.7011                17.4109                 2.6471

                     58                     59                     60
                      A                      A                      A
 Frequencies --   1168.0011              1175.1897              1187.6645
 Red. masses --      2.2353                 2.1011                 2.4173
 Frc consts  --      1.7967                 1.7097                 2.0090
 IR Inten    --     36.9220                 1.1678                21.4359

                     61                     62                     63
                      A                      A                      A
 Frequencies --   1193.8268              1205.0374              1208.7298
 Red. masses --      1.0956                 1.7442                 1.7902
 Frc consts  --      0.9200                 1.4923                 1.5410
 IR Inten    --      0.0823                 7.3164                 3.9979

                     64                     65                     66
                      A                      A                      A
 Frequencies --   1217.2553              1232.8636              1249.2549
 Red. masses --      1.1367                 2.4746                 1.2690
 Frc consts  --      0.9923                 2.2161                 1.1669
 IR Inten    --      0.0493                 2.0430                 1.3158

                     67                     68                     69
                      A                      A                      A
 Frequencies --   1283.4251              1294.9669              1329.3301
 Red. masses --      1.3901                 1.5356                 1.6063
 Frc consts  --      1.3491                 1.5173                 1.6725
 IR Inten    --      2.1506                 4.2677                 1.0754

                     70                     71                     72
                      A                      A                      A
 Frequencies --   1354.4176              1363.7430              1365.1142
 Red. masses --      1.3595                 1.2746                 1.3743
 Frc consts  --      1.4694                 1.3967                 1.5089
 IR Inten    --      3.5898                 5.8731                 1.6396

                     73                     74                     75
                      A                      A                      A
 Frequencies --   1367.9559              1379.1420              1387.8298
 Red. masses --      2.1177                 1.4325                 1.3810
 Frc consts  --      2.3348                 1.6054                 1.5672
 IR Inten    --      0.5837                 4.1659                 3.5276

                     76                     77                     78
                      A                      A                      A
 Frequencies --   1399.2833              1408.4096              1413.6848
 Red. masses --      1.2790                 1.3585                 1.4651
 Frc consts  --      1.4755                 1.5876                 1.7251
 IR Inten    --     17.1042                 2.0964                 0.0834

                     79                     80                     81
                      A                      A                      A
 Frequencies --   1427.4125              1431.0838              1432.2046
 Red. masses --      1.2980                 1.2775                 1.2943
 Frc consts  --      1.5582                 1.5415                 1.5643
 IR Inten    --      6.6161                 2.6738                 3.9900

                     82                     83                     84
                      A                      A                      A
 Frequencies --   1449.1476              1451.4325              1503.3059
 Red. masses --      1.2267                 1.2347                 2.1163
 Frc consts  --      1.5178                 1.5325                 2.8179
 IR Inten    --      5.0210                 2.2743                 7.0008

                     85                     86                     87
                      A                      A                      A
 Frequencies --   1503.9268              1511.7225              1518.5461
 Red. masses --      1.0914                 1.0846                 1.0626
 Frc consts  --      1.4544                 1.4604                 1.4437
 IR Inten    --      0.3158                 1.9355                 1.5559

                     88                     89                     90
                      A                      A                      A
 Frequencies --   1519.2090              1524.8330              1525.3126
 Red. masses --      1.0497                 1.0727                 1.0518
 Frc consts  --      1.4274                 1.4695                 1.4418
 IR Inten    --      0.5499                 3.8011                 4.1033

                     91                     92                     93
                      A                      A                      A
 Frequencies --   1530.1007              1534.8000              1536.0291
 Red. masses --      1.1287                 1.0613                 1.0625
 Frc consts  --      1.5570                 1.4730                 1.4770
 IR Inten    --     10.7459                 0.8755                 6.8817

                     94                     95                     96
                      A                      A                      A
 Frequencies --   1539.2983              1545.5232              1547.5415
 Red. masses --      1.0686                 1.2171                 1.5821
 Frc consts  --      1.4918                 1.7129                 2.2323
 IR Inten    --      7.0006                16.1984                 9.9691

                     97                     98                     99
                      A                      A                      A
 Frequencies --   1550.9154              1644.6060              1666.1666
 Red. masses --      1.1340                 5.3921                 5.5792
 Frc consts  --      1.6070                 8.5928                 9.1255
 IR Inten    --     12.1611                 1.7911                 4.4620

                    100                    101                    102
                      A                      A                      A
 Frequencies --   2967.0402              3008.1443              3016.2324
 Red. masses --      1.0710                 1.0813                 1.0780
 Frc consts  --      5.5551                 5.7650                 5.7784
 IR Inten    --     41.3559                 4.6534                 1.0969

                    103                    104                    105
                      A                      A                      A
 Frequencies --   3024.9787              3026.5729              3035.0652
 Red. masses --      1.0666                 1.0807                 1.0371
 Frc consts  --      5.7506                 5.8326                 5.6285
 IR Inten    --     26.8693                14.0849                31.2705

                    106                    107                    108
                      A                      A                      A
 Frequencies --   3039.1112              3040.0327              3042.0821
 Red. masses --      1.0536                 1.0506                 1.0423
 Frc consts  --      5.7335                 5.7204                 5.6831
 IR Inten    --     29.8766                45.7640                38.1554

                    109                    110                    111
                      A                      A                      A
 Frequencies --   3045.4263              3051.4054              3075.2213
 Red. masses --      1.0406                 1.0872                 1.1001
 Frc consts  --      5.6861                 5.9641                 6.1295
 IR Inten    --     40.7590                45.9193                35.9888

                    112                    113                    114
                      A                      A                      A
 Frequencies --   3092.0686              3096.6293              3100.0938
 Red. masses --      1.1002                 1.1007                 1.1005
 Frc consts  --      6.1975                 6.2186                 6.2315
 IR Inten    --     41.2799                 3.7414                 1.6081

                    115                    116                    117
                      A                      A                      A
 Frequencies --   3103.3740              3107.2331              3109.3496
 Red. masses --      1.1004                 1.0997                 1.1023
 Frc consts  --      6.2442                 6.2555                 6.2790
 IR Inten    --     68.2224                77.7220                42.7166

                    118                    119                    120
                      A                      A                      A
 Frequencies --   3128.3553              3133.4384              3137.1587
 Red. masses --      1.0996                 1.0999                 1.0977
 Frc consts  --      6.3407                 6.3626                 6.3651
 IR Inten    --     32.3143                31.5163                19.6467

                    121                    122                    123
                      A                      A                      A
 Frequencies --   3176.7867              3179.8165              3190.7764
 Red. masses --      1.0854                 1.0870                 1.0899
 Frc consts  --      6.4540                 6.4755                 6.5376
 IR Inten    --      8.4987                 1.7813                 7.9496

                    124                    125                    126
                      A                      A                      A
 Frequencies --   3198.6368              3210.9185              3501.5413
 Red. masses --      1.0939                 1.0979                 1.0726
 Frc consts  --      6.5942                 6.6691                 7.7487
 IR Inten    --     36.4179                20.5015                 0.5612

 - Thermochemistry -
 -------------------
 Temperature   298.150 Kelvin.  Pressure   1.00000 Atm.
 Atom     1 has atomic number  6 and mass  12.00000

 Molecular mass:   233.21435 amu.
 Principal axes and moments of inertia in atomic units:
                           1         2         3
     Eigenvalues --  2964.551105786.702817717.08674
           X            0.99984  -0.01795  -0.00061
           Y            0.01795   0.99984   0.00130
           Z            0.00059  -0.00131   1.00000
 This molecule is an asymmetric top.
 Rotational symmetry number  1.
 Warning -- assumption of classical behavior for rotation
           may cause significant error
 Rotational temperatures (Kelvin)      0.02922     0.01497     0.01122
 Rotational constants (GHZ):           0.60877     0.31188     0.23386
 Zero-point vibrational energy    1060686.7 (Joules/Mol)
                                  253.51020 (Kcal/Mol)
 Warning -- explicit consideration of  28 degrees of freedom as
           vibrations may cause significant error
 Vibrational temperatures:     37.19    56.78    76.73    84.84   101.46
          (Kelvin)            125.04   157.43   162.52   263.25   281.32
                              314.86   339.68   351.12   358.01   381.91
                              406.02   424.94   459.20   487.20   528.90
                              581.28   590.42   602.02   614.10   665.94
                              682.11   802.31   850.23   906.51   920.08
                             1034.17  1079.69  1109.68  1120.73  1160.85
                             1232.85  1241.72  1254.99  1326.94  1332.52
                             1354.50  1358.61  1364.01  1392.80  1394.19
                             1404.07  1409.76  1429.51  1441.18  1471.36
                             1482.12  1496.74  1529.96  1577.81  1598.86
                             1648.97  1656.73  1680.49  1690.84  1708.78
                             1717.65  1733.78  1739.09  1751.36  1773.82
                             1797.40  1846.56  1863.17  1912.61  1948.70
                             1962.12  1964.09  1968.18  1984.28  1996.78
                             2013.26  2026.39  2033.98  2053.73  2059.01
                             2060.62  2085.00  2088.29  2162.92  2163.82
                             2175.03  2184.85  2185.80  2193.89  2194.58
                             2201.47  2208.23  2210.00  2214.71  2223.66
                             2226.57  2231.42  2366.22  2397.24  4268.91
                             4328.05  4339.69  4352.27  4354.56  4366.78
                             4372.60  4373.93  4376.88  4381.69  4390.29
                             4424.56  4448.80  4455.36  4460.34  4465.06
                             4470.62  4473.66  4501.01  4508.32  4513.67
                             4570.69  4575.05  4590.82  4602.12  4619.80
                             5037.94

 Zero-point correction=                           0.403994 (Hartree/Particle)
 Thermal correction to Energy=                    0.422805
 Thermal correction to Enthalpy=                  0.423750
 Thermal correction to Gibbs Free Energy=         0.356451
 Sum of electronic and zero-point Energies=           -680.403272
 Sum of electronic and thermal Energies=              -680.384461
 Sum of electronic and thermal Enthalpies=            -680.383517
 Sum of electronic and thermal Free Energies=         -680.450815

                     E (Thermal)             CV                S
                      KCal/Mol        Cal/Mol-Kelvin    Cal/Mol-Kelvin
 Total                  265.314             71.938            141.642
 Electronic               0.000              0.000              0.000
 Translational            0.889              2.981             42.242
 Rotational               0.889              2.981             33.248
 Vibrational            263.537             65.976             66.152
 Vibration     1          0.593              1.985              6.125
 Vibration     2          0.594              1.981              5.286
 Vibration     3          0.596              1.976              4.690
 Vibration     4          0.596              1.974              4.492
 Vibration     5          0.598              1.968              4.139
 Vibration     6          0.601              1.958              3.729
 Vibration     7          0.606              1.942              3.279
 Vibration     8          0.607              1.939              3.217
 Vibration     9          0.630              1.863              2.298
 Vibration    10          0.636              1.846              2.175
 Vibration    11          0.647              1.812              1.969
 Vibration    12          0.655              1.786              1.832
 Vibration    13          0.659              1.773              1.773
 Vibration    14          0.662              1.765              1.739
 Vibration    15          0.671              1.736              1.626
 Vibration    16          0.681              1.707              1.520
 Vibration    17          0.690              1.682              1.443
 Vibration    18          0.705              1.637              1.314
 Vibration    19          0.719              1.598              1.219
 Vibration    20          0.740              1.539              1.090
 Vibration    21          0.769              1.461              0.948
 Vibration    22          0.775              1.448              0.925
 Vibration    23          0.781              1.430              0.897
 Vibration    24          0.788              1.412              0.869
 Vibration    25          0.820              1.332              0.758
 Vibration    26          0.831              1.308              0.726
 Vibration    27          0.913              1.123              0.529
 Vibration    28          0.948              1.051              0.465

 Optimization completed.
    -- Stationary point found.
 Normal termination of Gaussian 16 at Fri Dec 11 12:23:19 2020.

 ----------------------------------------------------------------------
 # B3LYP/6-311++G(d,p) empiricaldispersion=gd3bj scf=xqc pop=npa geom=c
 heck
 ----------------------------------------------------------------------

 ---------------------------------------
 CID_103614634_JID_7173_Energie_neutraal
 ---------------------------------------
 Structure from the checkpoint file:  "JID_7173.chk"
 Charge =  0 Multiplicity = 1

 SCF Done:  E(RB3LYP) =  -680.993374074     A.U. after   14 cycles
 Normal termination of Gaussian 16 at Fri Dec 11 12:33:56 2020.

 ----------------------------------------------------------------------
 # B3LYP/6-311++G(d,p) empiricaldispersion=gd3bj scf=xqc pop=npa geom=c
 heck
 ----------------------------------------------------------------------

 -------------------------------------
 CID_103614634_JID_7173_Energie_kation
 -------------------------------------
 Structure from the checkpoint file:  "JID_7173.chk"
 Charge =  1 Multiplicity = 2

 SCF Done:  E(UB3LYP) =  -680.704062768     A.U. after   24 cycles
 Normal termination of Gaussian 16 at Fri Dec 11 13:01:02 2020.
 Gaussian 16:  ES64L-G16RevA.03 25-Dec-2016

 ----------------------------------------------------------------------
 # B3LYP/6-311++G(d,p) empiricaldispersion=gd3bj scf=xqc pop=npa geom=c
 heck
 ----------------------------------------------------------------------

 ------------------------------------
 CID_103614634_JID_7173_Energie_anion
 ------------------------------------
 Structure from the checkpoint file:  "JID_7173.chk"
 Charge = -1 Multiplicity = 2

                         Standard orientation:
 ---------------------------------------------------------------------
 Center     Atomic      Atomic             Coordinates (Angstroms)
 Number     Number       Type             X           Y           Z
 ---------------------------------------------------------------------
      1          6           0       -3.034567    0.873166   -0.528325
      2          6           0       -3.440480   -0.423414    0.183908
      3          6           0       -4.967055   -0.557476    0.241725
      4          6           0       -2.825331   -1.674630   -0.469882
      5          6           0       -1.298142   -1.674192   -0.579236
      6          7           0       -0.672697   -1.535529    0.733679
      7          6           0        0.773718   -1.713760    0.739692
      8          6           0        1.611622   -0.746811   -0.145140
      9          6           0        1.118348    0.680905   -0.007911
     10          6           0        0.766414    1.428676   -1.137563
     11          6           0        0.310811    2.742710   -1.021863
     12          6           0        0.190459    3.332266    0.236488
     13          6           0        0.537028    2.599926    1.373140
     14          6           0        0.998768    1.289584    1.249987
     15          6           0        3.129223   -0.860834    0.161673
     16          6           0        3.637556   -2.303069    0.023716
     17          6           0        3.954244    0.073780   -0.732123
     18          1           0       -3.341283    0.849037   -1.582553
     19          1           0       -1.954583    1.043657   -0.499873
     20          1           0       -3.516720    1.740586   -0.062536
     21          1           0       -3.075891   -0.373837    1.220333
     22          1           0       -5.391627   -0.601220   -0.769795
     23          1           0       -5.267843   -1.470184    0.769373
     24          1           0       -5.422098    0.296666    0.756752
     25          1           0       -3.131285   -2.556779    0.106568
     26          1           0       -3.244869   -1.788158   -1.480441
     27          1           0       -0.971017   -2.634400   -0.999964
     28          1           0       -0.978531   -0.897074   -1.295775
     29          1           0       -0.887983   -0.612360    1.104765
     30          1           0        1.112658   -1.629065    1.780888
     31          1           0        0.979345   -2.743966    0.429369
     32          1           0        1.473469   -1.041642   -1.194867
     33          1           0        0.851969    0.971424   -2.120253
     34          1           0        0.043273    3.301735   -1.914291
     35          1           0       -0.170982    4.352130    0.331631
     36          1           0        0.447891    3.049433    2.358397
     37          1           0        1.270076    0.733226    2.143621
     38          1           0        3.274859   -0.546527    1.206437
     39          1           0        3.433333   -2.691909   -0.982491
     40          1           0        4.721543   -2.343465    0.179761
     41          1           0        3.174997   -2.981486    0.746517
     42          1           0        3.653496    1.118534   -0.613675
     43          1           0        5.021116   -0.003904   -0.493449
     44          1           0        3.829877   -0.192697   -1.789922
 ---------------------------------------------------------------------

 SCF Done:  E(UB3LYP) =  -680.979000747     A.U. after   33 cycles
 SCF Done:  E(UB3LYP) =  -680.979000747     a.u. after    1 cycles

 The electronic state is 2-A.
 Alpha  occ. eigenvalues --  -14.20127 -10.09914 -10.09561 -10.08869 -10.08656
 Alpha  occ. eigenvalues --  -10.08334 -10.08321 -10.08262 -10.08174 -10.08147
 Alpha  occ. eigenvalues --  -10.08009 -10.07978 -10.07235 -10.07193 -10.06947
 Alpha  occ. eigenvalues --  -10.06397 -10.06015  -0.81632  -0.76842  -0.72690
 Alpha  occ. eigenvalues --   -0.71455  -0.66684  -0.65515  -0.64112  -0.60452
 Alpha  occ. eigenvalues --   -0.59326  -0.59287  -0.54530  -0.52170  -0.51661
 Alpha  occ. eigenvalues --   -0.49825  -0.46759  -0.45890  -0.42324  -0.40197
 Alpha  occ. eigenvalues --   -0.38661  -0.37726  -0.36477  -0.36130  -0.35778
 Alpha  occ. eigenvalues --   -0.35239  -0.34244  -0.33123  -0.32889  -0.32325
 Alpha  occ. eigenvalues --   -0.30368  -0.29927  -0.29726  -0.29273  -0.29037
 Alpha  occ. eigenvalues --   -0.28159  -0.27619  -0.26775  -0.26465  -0.25908
 Alpha  occ. eigenvalues --   -0.25047  -0.24649  -0.23602  -0.23365  -0.22904
 Alpha  occ. eigenvalues --   -0.22562  -0.22527  -0.16496  -0.15655  -0.13162
 Alpha  occ. eigenvalues --    0.04133
 Alpha virt. eigenvalues --    0.05898   0.06247   0.06562   0.07403   0.07504
 Alpha virt. eigenvalues --    0.07750   0.08092   0.08230   0.08642   0.08880
 Alpha virt. eigenvalues --    0.09665   0.10114   0.10450   0.10806   0.10950

  Beta  occ. eigenvalues --  -14.20125 -10.09905 -10.09552 -10.08867 -10.08647
  Beta  occ. eigenvalues --  -10.08328 -10.08307 -10.08259 -10.08160 -10.08135
  Beta  occ. eigenvalues --  -10.07993 -10.07968 -10.07224 -10.07186 -10.06925
  Beta  occ. eigenvalues --  -10.06380 -10.05999  -0.81623  -0.76819  -0.72669
  Beta  occ. eigenvalues --   -0.71440  -0.66656  -0.65485  -0.64091  -0.60427
  Beta  occ. eigenvalues --   -0.59295  -0.59249  -0.54502  -0.52141  -0.51623
  Beta  occ. eigenvalues --   -0.49785  -0.46724  -0.45858  -0.42276  -0.40178
  Beta  occ. eigenvalues --   -0.38642  -0.37687  -0.36457  -0.36109  -0.35750
  Beta  occ. eigenvalues --   -0.35205  -0.34225  -0.33095  -0.32859  -0.32302
  Beta  occ. eigenvalues --   -0.30340  -0.29906  -0.29702  -0.29254  -0.29010
  Beta  occ. eigenvalues --   -0.28142  -0.27598  -0.26752  -0.26445  -0.25881
  Beta  occ. eigenvalues --   -0.25018  -0.24621  -0.23577  -0.23341  -0.22883
  Beta  occ. eigenvalues --   -0.22542  -0.22509  -0.16480  -0.15633  -0.13153
  Beta virt. eigenvalues --    0.05992   0.06426   0.06923   0.07151   0.07424
  Beta virt. eigenvalues --    0.07753   0.07874   0.08571   0.08674   0.09040
  Beta virt. eigenvalues --    0.09156   0.09829   0.10305   0.10591   0.11259

 Mulliken charges and spin densities:
               1          2
     1  C   -0.604753   0.021989
     2  C   -0.393798   0.855096
     3  C   -0.229371  -0.453976
     4  C    0.296542  -0.973629
     5  C   -0.421414   0.270002
     6  N    0.134857  -0.021338
     7  C   -0.401491  -0.466363
     8  C    3.643385  -3.402603
     9  C    0.351423   0.174750
    10  C   -0.132753   0.070104
    11  C   -0.108981  -0.164007
    12  C    1.199325  -1.583906
    13  C    0.610724  -0.970061
    14  C   -3.580605   3.247693
    15  C   -1.164133   1.361697
    16  C    0.626977  -1.242754
    17  C   -0.108081  -0.692141
    18  H   -0.205999   0.349443
    19  H    1.481760  -1.354885
    20  H   -0.180545   0.307677
    21  H    0.002071   0.157978
    22  H    0.108054   0.021945
    23  H    0.011733   0.118255
    24  H    0.011348   0.122142
    25  H    0.145692  -0.008553
    26  H   -0.000079   0.146313
    27  H   -0.180170   0.333375
    28  H    0.055989   0.045874
    29  H    0.317226  -0.099773
    30  H    0.003242   0.181509
    31  H    0.204827  -0.016413
    32  H    0.071452   0.143118
    33  H   -0.335934   0.507215
    34  H   -0.639631   0.839749
    35  H   -0.430331   0.600382
    36  H   -0.596768   0.783031
    37  H   -0.309609   0.503570
    38  H    0.041520   0.126908
    39  H   -0.049623   0.199119
    40  H   -0.036343   0.183262
    41  H   -0.170643   0.306289
    42  H    0.162968  -0.016143
    43  H   -0.135718   0.274026
    44  H   -0.064344   0.214036
 Sum of Mulliken charges =  -1.00000   1.00000

 Dipole moment (field-independent basis, Debye):
    X=             -1.4155    Y=             -3.7401    Z=              0.2657  Tot=              4.0078
 Quadrupole moment (field-independent basis, Debye-Ang):
   XX=           -179.1047   YY=           -176.9249   ZZ=           -153.6317
   XY=              7.2451   XZ=              0.6725   YZ=             -0.4379

 Summary of Natural Population Analysis:

                                       Natural Population
                Natural  -----------------------------------------------
    Atom  No    Charge         Core      Valence    Rydberg      Total
 -----------------------------------------------------------------------
      C    1   -0.28881      0.99964     2.28235    0.00682     3.28881
      C    2   -0.11682      0.99961     2.10982    0.00739     3.11682
      C    3   -0.28041      0.99965     2.27619    0.00457     3.28041
      C    4   -0.18635      0.99961     2.17829    0.00844     3.18635
      C    5   -0.08987      0.99962     2.07962    0.01063     3.08987
      N    6   -0.34112      0.99974     2.83083    0.01054     3.84112
      C    7   -0.08232      0.99961     2.07049    0.01221     3.08232
      C    8   -0.12475      0.99954     2.11365    0.01156     3.12475
      C    9   -0.01266      0.99949     1.99892    0.01426     3.01266
      C   10   -0.10320      0.99949     2.09291    0.01079     3.10320
      C   11   -0.09679      0.99955     2.08638    0.01086     3.09679
      C   12   -0.10312      0.99955     2.09318    0.01038     3.10312
      C   13   -0.09620      0.99956     2.08577    0.01088     3.09620
      C   14   -0.11114      0.99949     2.10139    0.01026     3.11114
      C   15   -0.10804      0.99960     2.09771    0.01073     3.10804
      C   16   -0.28387      0.99965     2.27927    0.00495     3.28387
      C   17   -0.28379      0.99965     2.27912    0.00503     3.28379
      H   18    0.09449      0.00000     0.40455    0.00096     0.40551
      H   19    0.10479      0.00000     0.39308    0.00213     0.39521
      H   20    0.09953      0.00000     0.39949    0.00098     0.40047
      H   21    0.09280      0.00000     0.40526    0.00194     0.40720
      H   22    0.09444      0.00000     0.40459    0.00097     0.40556
      H   23    0.09646      0.00000     0.40262    0.00092     0.40354
      H   24    0.09796      0.00000     0.40117    0.00087     0.40204
      H   25    0.09728      0.00000     0.40147    0.00125     0.40272
      H   26    0.09431      0.00000     0.40470    0.00099     0.40569
      H   27    0.09150      0.00000     0.40736    0.00114     0.40850
      H   28    0.08285      0.00000     0.41495    0.00220     0.41715
      H   29    0.17443      0.00000     0.32109    0.00448     0.32557
      H   30    0.09280      0.00000     0.40600    0.00120     0.40720
      H   31    0.09541      0.00000     0.40341    0.00118     0.40459
      H   32    0.09835      0.00000     0.39952    0.00213     0.40165
      H   33    0.10208      0.00000     0.39603    0.00189     0.39792
      H   34    0.10361      0.00000     0.39490    0.00149     0.39639
      H   35    0.10364      0.00000     0.39476    0.00159     0.39636
      H   36    0.10281      0.00000     0.39581    0.00138     0.39719
      H   37    0.10143      0.00000     0.39675    0.00182     0.39857
      H   38    0.09263      0.00000     0.40547    0.00189     0.40737
      H   39    0.09687      0.00000     0.40203    0.00110     0.40313
      H   40    0.09960      0.00000     0.39948    0.00092     0.40040
      H   41    0.09975      0.00000     0.39925    0.00099     0.40025
      H   42    0.10551      0.00000     0.39339    0.00110     0.39449
      H   43    0.09770      0.00000     0.40144    0.00086     0.40230
      H   44    0.09621      0.00000     0.40267    0.00112     0.40379
 =======================================================================
   * Total *   -0.00000     16.99307    47.80713    0.19980    65.00000

 Normal termination of Gaussian 16 at Fri Dec 11 13:37:36 2020.
