 Gaussian 16, Revision A.03,

 -----------------------------------------------------------
 # opt freq B3LYP/6-31G(d) empiricaldispersion=gd3bj scf=xqc
 -----------------------------------------------------------

 ------------------------------
 CID_61404953_JID_9290_neutraal
 ------------------------------
 Symbolic Z-matrix:
 Charge =  0 Multiplicity = 1

 SCF Done:  E(RB3LYP) =  -1295.15576501     A.U. after   15 cycles
 SCF Done:  E(RB3LYP) =  -1295.16595966     A.U. after   12 cycles
 SCF Done:  E(RB3LYP) =  -1295.16365929     A.U. after   13 cycles
 SCF Done:  E(RB3LYP) =  -1295.16623466     A.U. after   13 cycles
 SCF Done:  E(RB3LYP) =  -1295.16741407     A.U. after   12 cycles
 SCF Done:  E(RB3LYP) =  -1295.16754739     A.U. after   12 cycles
 SCF Done:  E(RB3LYP) =  -1295.16765236     A.U. after   12 cycles
 SCF Done:  E(RB3LYP) =  -1295.16773585     A.U. after   10 cycles
 SCF Done:  E(RB3LYP) =  -1295.16775970     A.U. after   10 cycles
 SCF Done:  E(RB3LYP) =  -1295.16776882     A.U. after    9 cycles
 SCF Done:  E(RB3LYP) =  -1295.16777883     A.U. after    8 cycles
 SCF Done:  E(RB3LYP) =  -1295.16778172     A.U. after    9 cycles
 SCF Done:  E(RB3LYP) =  -1295.16778336     A.U. after    9 cycles
 SCF Done:  E(RB3LYP) =  -1295.16778382     A.U. after    8 cycles
 SCF Done:  E(RB3LYP) =  -1295.16778389     A.U. after    7 cycles
 Optimization completed.
    -- Stationary point found.
 Normal termination of Gaussian 16 at Mon Dec 14 19:04:24 2020.

 --------------------------------------------------------------------
 #N Geom=AllCheck Guess=TCheck SCRF=Check GenChk RB3LYP/6-31G(d) Freq
 --------------------------------------------------------------------

 Structure from the checkpoint file:  "JID_9290.chk"
 ------------------------------
 CID_61404953_JID_9290_neutraal
 ------------------------------
 Charge =  0 Multiplicity = 1

 SCF Done:  E(RB3LYP) =  -1295.16778389     A.U. after    1 cycles

  Exact polarizability: 184.296  -7.467 145.216   4.173  -2.514 139.632
 Approx polarizability: 219.989  -8.538 227.352   4.773  -8.117 234.626

                      1                      2                      3
                      A                      A                      A
 Frequencies --     27.1686                47.2415                70.6442
 Red. masses --      5.5421                 3.2509                 3.8276
 Frc consts  --      0.0024                 0.0043                 0.0113
 IR Inten    --      1.0678                 0.1611                 0.6140

                      4                      5                      6
                      A                      A                      A
 Frequencies --     76.0621                95.7715               122.8671
 Red. masses --      2.9019                 3.2276                 8.1010
 Frc consts  --      0.0099                 0.0174                 0.0721
 IR Inten    --      0.5053                 0.6323                 0.2146

                      7                      8                      9
                      A                      A                      A
 Frequencies --    131.3288               143.5181               169.6038
 Red. masses --      4.5197                 3.8342                 3.8150
 Frc consts  --      0.0459                 0.0465                 0.0647
 IR Inten    --      1.7003                 0.0745                 2.6806

                     10                     11                     12
                      A                      A                      A
 Frequencies --    179.6058               229.6333               237.3631
 Red. masses --      5.0732                 3.2385                 3.4627
 Frc consts  --      0.0964                 0.1006                 0.1149
 IR Inten    --      0.4894                 1.3682                 3.6487

                     13                     14                     15
                      A                      A                      A
 Frequencies --    254.2712               288.2616               291.0899
 Red. masses --      3.5579                 4.5694                 4.8086
 Frc consts  --      0.1355                 0.2237                 0.2401
 IR Inten    --      6.2964                 2.7277                 0.2135

                     16                     17                     18
                      A                      A                      A
 Frequencies --    324.5812               339.7767               352.6472
 Red. masses --      3.1712                 2.2134                 2.7237
 Frc consts  --      0.1968                 0.1506                 0.1996
 IR Inten    --      4.2533                 1.4182                19.2858

                     19                     20                     21
                      A                      A                      A
 Frequencies --    368.0304               371.9273               423.9422
 Red. masses --      3.7997                 3.8475                 3.2186
 Frc consts  --      0.3032                 0.3136                 0.3408
 IR Inten    --      1.9005                 1.0081                 2.7551

                     22                     23                     24
                      A                      A                      A
 Frequencies --    435.8253               477.3338               490.1841
 Red. masses --      2.4574                 5.2902                 2.5584
 Frc consts  --      0.2750                 0.7102                 0.3622
 IR Inten    --      0.4094                 6.5127                 5.4811

                     25                     26                     27
                      A                      A                      A
 Frequencies --    502.3757               539.4703               559.1169
 Red. masses --      3.5180                 3.7195                 2.2925
 Frc consts  --      0.5231                 0.6378                 0.4222
 IR Inten    --      9.4539                14.3085                16.0543

                     28                     29                     30
                      A                      A                      A
 Frequencies --    567.0105               581.4149               589.7891
 Red. masses --      2.3865                 3.0501                 1.4430
 Frc consts  --      0.4521                 0.6075                 0.2957
 IR Inten    --     24.9692                78.7503                27.1052

                     31                     32                     33
                      A                      A                      A
 Frequencies --    636.6275               687.8909               697.6084
 Red. masses --      3.3431                 3.9360                 1.6660
 Frc consts  --      0.7983                 1.0973                 0.4777
 IR Inten    --     40.8978                27.8575               176.7220

                     34                     35                     36
                      A                      A                      A
 Frequencies --    716.0342               762.6839               785.0243
 Red. masses --      3.8084                 3.5235                 2.2763
 Frc consts  --      1.1504                 1.2076                 0.8265
 IR Inten    --     35.9790               107.2536               123.5370

                     37                     38                     39
                      A                      A                      A
 Frequencies --    829.1203               861.7620               867.3173
 Red. masses --      1.9286                 2.5116                 1.8639
 Frc consts  --      0.7811                 1.0989                 0.8261
 IR Inten    --     15.1835                27.7151                10.9322

                     40                     41                     42
                      A                      A                      A
 Frequencies --    871.3418               878.9096               916.9521
 Red. masses --      2.0367                 3.2291                 1.9822
 Frc consts  --      0.9111                 1.4697                 0.9819
 IR Inten    --     59.1817                22.7217                28.5178

                     43                     44                     45
                      A                      A                      A
 Frequencies --    926.1841               941.0861               947.4602
 Red. masses --      2.0118                 2.4368                 2.4426
 Frc consts  --      1.0168                 1.2716                 1.2919
 IR Inten    --     12.3031                59.2982                15.1511

                     46                     47                     48
                      A                      A                      A
 Frequencies --    974.9207               989.9573              1033.2801
 Red. masses --      2.3589                 2.1566                 2.9260
 Frc consts  --      1.3210                 1.2452                 1.8406
 IR Inten    --      0.2397                22.8268                41.9241

                     49                     50                     51
                      A                      A                      A
 Frequencies --   1045.3655              1067.5595              1073.5578
 Red. masses --      2.1517                 2.2551                 2.3970
 Frc consts  --      1.3854                 1.5142                 1.6277
 IR Inten    --     42.7721                51.0688                 2.8037

                     52                     53                     54
                      A                      A                      A
 Frequencies --   1079.7731              1095.0601              1115.3569
 Red. masses --      1.8150                 1.8580                 3.2882
 Frc consts  --      1.2468                 1.3127                 2.4101
 IR Inten    --      6.4853                 5.7026                28.1276

                     55                     56                     57
                      A                      A                      A
 Frequencies --   1124.1050              1141.2800              1146.3681
 Red. masses --      9.2962                 1.8484                 2.4508
 Frc consts  --      6.9210                 1.4185                 1.8976
 IR Inten    --    137.0664                 9.2608                34.0605

                     58                     59                     60
                      A                      A                      A
 Frequencies --   1188.3762              1194.9816              1206.9756
 Red. masses --      3.8179                 3.1516                 2.0757
 Frc consts  --      3.1767                 2.6516                 1.7816
 IR Inten    --      2.4523                55.6641                87.7616

                     61                     62                     63
                      A                      A                      A
 Frequencies --   1215.4885              1255.9786              1268.6008
 Red. masses --      1.4535                 1.5231                 1.3394
 Frc consts  --      1.2652                 1.4156                 1.2700
 IR Inten    --     36.7757                 3.4031                14.5269

                     64                     65                     66
                      A                      A                      A
 Frequencies --   1276.8231              1303.0216              1308.3302
 Red. masses --      1.2689                 1.7733                 1.3110
 Frc consts  --      1.2188                 1.7740                 1.3222
 IR Inten    --      6.6528                23.4617                13.4555

                     67                     68                     69
                      A                      A                      A
 Frequencies --   1314.1461              1325.7082              1343.5680
 Red. masses --      1.3481                 2.6040                 1.2218
 Frc consts  --      1.3717                 2.6964                 1.2995
 IR Inten    --     54.4063               104.9484                 0.9824

                     70                     71                     72
                      A                      A                      A
 Frequencies --   1355.7547              1377.0382              1381.9009
 Red. masses --      1.2394                 1.8074                 1.3324
 Frc consts  --      1.3422                 2.0192                 1.4992
 IR Inten    --      1.7415                29.2990                 1.2037

                     73                     74                     75
                      A                      A                      A
 Frequencies --   1382.2776              1384.0585              1397.5217
 Red. masses --      1.3457                 1.2524                 1.3292
 Frc consts  --      1.5149                 1.4135                 1.5296
 IR Inten    --      1.0316                 2.1481                 5.7250

                     76                     77                     78
                      A                      A                      A
 Frequencies --   1400.5600              1408.1907              1408.9193
 Red. masses --      1.4395                 1.4040                 1.3729
 Frc consts  --      1.6636                 1.6404                 1.6057
 IR Inten    --     11.5723                 0.8590                 1.4719

                     79                     80                     81
                      A                      A                      A
 Frequencies --   1411.4244              1420.6239              1429.1673
 Red. masses --      1.3708                 1.2972                 1.3448
 Frc consts  --      1.6090                 1.5425                 1.6183
 IR Inten    --      1.5035                25.7668                 7.8508

                     82                     83                     84
                      A                      A                      A
 Frequencies --   1430.8111              1502.0285              1507.0688
 Red. masses --      1.3116                 1.0862                 1.0916
 Frc consts  --      1.5821                 1.4438                 1.4608
 IR Inten    --      3.3656                 5.0333                 2.6469

                     85                     86                     87
                      A                      A                      A
 Frequencies --   1510.1886              1513.3190              1515.5863
 Red. masses --      1.0957                 1.0868                 1.0762
 Frc consts  --      1.4723                 1.4664                 1.4564
 IR Inten    --     14.8671                 1.7356                 1.9129

                     88                     89                     90
                      A                      A                      A
 Frequencies --   1516.4100              1524.9729              1528.3396
 Red. masses --      1.0858                 1.0951                 1.1181
 Frc consts  --      1.4710                 1.5004                 1.5388
 IR Inten    --      7.1260                 6.5317                 6.9527

                     91                     92                     93
                      A                      A                      A
 Frequencies --   1533.2549              1539.7560              1840.0500
 Red. masses --      1.1702                 1.0928                 9.4611
 Frc consts  --      1.6208                 1.5264                18.8735
 IR Inten    --      8.1163                 3.2089               233.8101

                     94                     95                     96
                      A                      A                      A
 Frequencies --   3003.1447              3027.3027              3039.6716
 Red. masses --      1.0729                 1.0710                 1.0635
 Frc consts  --      5.7013                 5.7828                 5.7897
 IR Inten    --     28.0348                50.1454                50.8989

                     97                     98                     99
                      A                      A                      A
 Frequencies --   3039.8060              3042.6874              3053.1624
 Red. masses --      1.0659                 1.0709                 1.0687
 Frc consts  --      5.8028                 5.8416                 5.8694
 IR Inten    --     14.9799                35.5072                54.4621

                    100                    101                    102
                      A                      A                      A
 Frequencies --   3053.6139              3057.9199              3064.1633
 Red. masses --      1.0611                 1.0840                 1.0727
 Frc consts  --      5.8296                 5.9724                 5.9341
 IR Inten    --     23.2144                 9.9384                25.1682

                    103                    104                    105
                      A                      A                      A
 Frequencies --   3066.7191              3079.5377              3090.7935
 Red. masses --      1.0629                 1.0992                 1.0963
 Frc consts  --      5.8899                 6.1420                 6.1704
 IR Inten    --     16.2653                 5.4772                44.1996

                    106                    107                    108
                      A                      A                      A
 Frequencies --   3099.8427              3105.7245              3118.4720
 Red. masses --      1.1048                 1.0992                 1.0938
 Frc consts  --      6.2550                 6.2470                 6.2669
 IR Inten    --     34.4454                41.3833                12.7519

                    109                    110                    111
                      A                      A                      A
 Frequencies --   3119.4542              3133.8004              3162.2901
 Red. masses --      1.1027                 1.0941                 1.0912
 Frc consts  --      6.3220                 6.3306                 6.4292
 IR Inten    --     25.0756                 9.8663                 3.7278

                    112                    113                    114
                      A                      A                      A
 Frequencies --   3166.3980              3507.1470              3691.3403
 Red. masses --      1.0933                 1.0741                 1.0641
 Frc consts  --      6.4583                 7.7843                 8.5424
 IR Inten    --      1.9244                 1.0638                45.2866

 - Thermochemistry -
 -------------------
 Temperature   298.150 Kelvin.  Pressure   1.00000 Atm.
 Atom     1 has atomic number  6 and mass  12.00000

 Molecular mass:   291.12528 amu.
 Principal axes and moments of inertia in atomic units:
                           1         2         3
     Eigenvalues --  2761.038536933.682407732.13972
           X            0.99993  -0.01104   0.00464
           Y            0.01109   0.99990  -0.00913
           Z           -0.00454   0.00918   0.99995
 This molecule is an asymmetric top.
 Rotational symmetry number  1.
 Warning -- assumption of classical behavior for rotation
           may cause significant error
 Rotational temperatures (Kelvin)      0.03137     0.01249     0.01120
 Rotational constants (GHZ):           0.65365     0.26029     0.23341
 Zero-point vibrational energy     901055.1 (Joules/Mol)
                                  215.35735 (Kcal/Mol)
 Warning -- explicit consideration of  30 degrees of freedom as
           vibrations may cause significant error
 Vibrational temperatures:     39.09    67.97   101.64   109.44   137.79
          (Kelvin)            176.78   188.95   206.49   244.02   258.41
                              330.39   341.51   365.84   414.74   418.81
                              467.00   488.86   507.38   529.51   535.12
                              609.96   627.06   686.78   705.27   722.81
                              776.18   804.44   815.80   836.53   848.57
                              915.96   989.72  1003.70  1030.21  1097.33
                             1129.47  1192.92  1239.88  1247.88  1253.67
                             1264.55  1319.29  1332.57  1354.01  1363.18
                             1402.69  1424.33  1486.66  1504.05  1535.98
                             1544.61  1553.55  1575.55  1604.75  1617.34
                             1642.05  1649.37  1709.81  1719.31  1736.57
                             1748.82  1807.07  1825.23  1837.06  1874.76
                             1882.40  1890.76  1907.40  1933.09  1950.63
                             1981.25  1988.25  1988.79  1991.35  2010.72
                             2015.09  2026.07  2027.12  2030.72  2043.96
                             2056.25  2058.62  2161.08  2168.34  2172.82
                             2177.33  2180.59  2181.78  2194.10  2198.94
                             2206.01  2215.37  2647.42  4320.86  4355.61
                             4373.41  4373.60  4377.75  4392.82  4393.47
                             4399.66  4408.65  4412.32  4430.77  4446.96
                             4459.98  4468.44  4486.79  4488.20  4508.84
                             4549.83  4555.74  5046.00  5311.02

 Zero-point correction=                           0.343194 (Hartree/Particle)
 Thermal correction to Energy=                    0.361409
 Thermal correction to Enthalpy=                  0.362353
 Thermal correction to Gibbs Free Energy=         0.297002
 Sum of electronic and zero-point Energies=          -1294.824590
 Sum of electronic and thermal Energies=             -1294.806375
 Sum of electronic and thermal Enthalpies=           -1294.805430
 Sum of electronic and thermal Free Energies=        -1294.870782

                     E (Thermal)             CV                S
                      KCal/Mol        Cal/Mol-Kelvin    Cal/Mol-Kelvin
 Total                  226.788             71.261            137.543
 Electronic               0.000              0.000              0.000
 Translational            0.889              2.981             42.903
 Rotational               0.889              2.981             33.359
 Vibrational            225.010             65.300             61.281
 Vibration     1          0.593              1.984              6.026
 Vibration     2          0.595              1.979              4.930
 Vibration     3          0.598              1.968              4.135
 Vibration     4          0.599              1.965              3.990
 Vibration     5          0.603              1.952              3.539
 Vibration     6          0.610              1.930              3.055
 Vibration     7          0.612              1.922              2.926
 Vibration     8          0.616              1.910              2.756
 Vibration     9          0.625              1.880              2.440
 Vibration    10          0.629              1.867              2.333
 Vibration    11          0.652              1.796              1.882
 Vibration    12          0.656              1.783              1.823
 Vibration    13          0.665              1.756              1.701
 Vibration    14          0.685              1.696              1.484
 Vibration    15          0.687              1.690              1.468
 Vibration    16          0.709              1.626              1.287
 Vibration    17          0.720              1.596              1.213
 Vibration    18          0.729              1.570              1.154
 Vibration    19          0.741              1.538              1.088
 Vibration    20          0.744              1.530              1.072
 Vibration    21          0.786              1.418              0.879
 Vibration    22          0.796              1.392              0.840
 Vibration    23          0.834              1.300              0.717
 Vibration    24          0.846              1.272              0.683
 Vibration    25          0.858              1.245              0.652
 Vibration    26          0.895              1.163              0.566
 Vibration    27          0.915              1.120              0.526
 Vibration    28          0.923              1.103              0.510
 Vibration    29          0.938              1.072              0.483
 Vibration    30          0.947              1.054              0.468

 Optimization completed.
    -- Stationary point found.
 Normal termination of Gaussian 16 at Mon Dec 14 19:29:46 2020.

 ----------------------------------------------------------------------
 # B3LYP/6-311++G(d,p) empiricaldispersion=gd3bj scf=xqc pop=npa geom=c
 heck
 ----------------------------------------------------------------------

 --------------------------------------
 CID_61404953_JID_9290_Energie_neutraal
 --------------------------------------
 Structure from the checkpoint file:  "JID_9290.chk"
 Charge =  0 Multiplicity = 1

 SCF Done:  E(RB3LYP) =  -1295.45983739     A.U. after   15 cycles
 Normal termination of Gaussian 16 at Mon Dec 14 19:41:22 2020.

 ----------------------------------------------------------------------
 # B3LYP/6-311++G(d,p) empiricaldispersion=gd3bj scf=xqc pop=npa geom=c
 heck
 ----------------------------------------------------------------------

 ------------------------------------
 CID_61404953_JID_9290_Energie_kation
 ------------------------------------
 Structure from the checkpoint file:  "JID_9290.chk"
 Charge =  1 Multiplicity = 2

 SCF Done:  E(UB3LYP) =  -1295.15993077     A.U. after   26 cycles
 Normal termination of Gaussian 16 at Mon Dec 14 20:09:44 2020.
 Gaussian 16:  ES64L-G16RevA.03 25-Dec-2016

 ----------------------------------------------------------------------
 # B3LYP/6-311++G(d,p) empiricaldispersion=gd3bj scf=xqc pop=npa geom=c
 heck
 ----------------------------------------------------------------------

 -----------------------------------
 CID_61404953_JID_9290_Energie_anion
 -----------------------------------
 Structure from the checkpoint file:  "JID_9290.chk"
 Charge = -1 Multiplicity = 2

                         Standard orientation:
 ---------------------------------------------------------------------
 Center     Atomic      Atomic             Coordinates (Angstroms)
 Number     Number       Type             X           Y           Z
 ---------------------------------------------------------------------
      1          6           0        4.308122   -0.168269    0.157243
      2          6           0        3.659846   -1.413049    0.761629
      3          6           0        2.341891   -1.712597    0.058636
      4          7           0        1.408399   -0.556867    0.165050
      5          6           0        1.971537    0.699421   -0.385749
      6          6           0        3.335871    1.004073    0.269160
      7          6           0        1.072728    1.912850   -0.151260
      8          8           0        0.673392    2.645223   -1.028705
      9          8           0        0.902398    2.191624    1.165742
     10         16           0       -0.088205   -0.977530   -0.558188
     11          8           0       -0.029624   -0.818361   -2.014380
     12          8           0       -0.450271   -2.275013    0.018789
     13          7           0       -1.041694    0.251301    0.033508
     14          6           0       -1.995842    0.861741   -0.911757
     15          6           0       -3.189473   -0.030053   -1.269914
     16          6           0       -4.310952   -0.098937   -0.199315
     17          7           0       -3.945569    0.088930    1.203645
     18          6           0       -2.761052   -0.607106    1.690933
     19          6           0       -1.434142    0.125124    1.442789
     20          1           0        5.245881    0.076268    0.668744
     21          1           0        4.554988   -0.354963   -0.896956
     22          1           0        4.312284   -2.288262    0.664204
     23          1           0        3.473978   -1.256817    1.831642
     24          1           0        2.536095   -1.948989   -0.999828
     25          1           0        1.839639   -2.567877    0.509484
     26          1           0        2.087943    0.619642   -1.473984
     27          1           0        3.164231    1.238679    1.324280
     28          1           0        3.741282    1.903795   -0.207719
     29          1           0        0.384506    3.017478    1.190361
     30          1           0       -1.431651    1.129470   -1.804460
     31          1           0       -2.317418    1.798822   -0.441830
     32          1           0       -3.623702    0.329280   -2.212077
     33          1           0       -2.807025   -1.033417   -1.484610
     34          1           0       -5.068210    0.662594   -0.417918
     35          1           0       -4.818285   -1.067513   -0.295172
     36          1           0       -3.879685    1.079296    1.423324
     37          1           0       -2.720477   -1.603524    1.240402
     38          1           0       -2.855783   -0.750133    2.776961
     39          1           0       -0.612939   -0.360649    1.974876
     40          1           0       -1.500701    1.146761    1.839912
 ---------------------------------------------------------------------

 SCF Done:  E(UB3LYP) =  -1295.45290511     A.U. after   33 cycles
 SCF Done:  E(UB3LYP) =  -1295.45290511     a.u. after    1 cycles

 The electronic state is 2-A.
 Alpha  occ. eigenvalues --  -88.98816 -19.06979 -19.03334 -19.03271 -19.02153
 Alpha  occ. eigenvalues --  -14.26408 -14.25907 -14.20633 -10.21491 -10.13900
 Alpha  occ. eigenvalues --  -10.12201 -10.11666 -10.11372 -10.10712 -10.10353
 Alpha  occ. eigenvalues --  -10.09019 -10.08874 -10.08582 -10.08099  -8.04825
 Alpha  occ. eigenvalues --   -6.01076  -6.01062  -6.01003  -1.04360  -1.01413
 Alpha  occ. eigenvalues --   -0.92660  -0.92549  -0.86499  -0.85456  -0.81134
 Alpha  occ. eigenvalues --   -0.72406  -0.69826  -0.69724  -0.64570  -0.60924
 Alpha  occ. eigenvalues --   -0.59662  -0.57261  -0.55081  -0.52392  -0.50299
 Alpha  occ. eigenvalues --   -0.48957  -0.48284  -0.44876  -0.43370  -0.41094
 Alpha  occ. eigenvalues --   -0.40586  -0.39822  -0.39279  -0.38426  -0.38261
 Alpha  occ. eigenvalues --   -0.36841  -0.36293  -0.35998  -0.35688  -0.34810
 Alpha  occ. eigenvalues --   -0.34221  -0.32978  -0.32136  -0.31681  -0.30703
 Alpha  occ. eigenvalues --   -0.30250  -0.29380  -0.28219  -0.27464  -0.27298
 Alpha  occ. eigenvalues --   -0.27030  -0.25855  -0.25663  -0.25101  -0.24711
 Alpha  occ. eigenvalues --   -0.23653  -0.23526  -0.22807  -0.22126  -0.18834
 Alpha  occ. eigenvalues --   -0.18166  -0.16808  -0.13275   0.03870
 Alpha virt. eigenvalues --    0.05454   0.06823   0.07429   0.07774   0.08116
 Alpha virt. eigenvalues --    0.08523   0.08635   0.09606   0.09989   0.10498
 Alpha virt. eigenvalues --    0.10796   0.11202   0.11453   0.11779   0.12342

  Beta  occ. eigenvalues --  -88.98814 -19.06922 -19.03331 -19.03268 -19.02137
  Beta  occ. eigenvalues --  -14.26403 -14.25909 -14.20611 -10.21474 -10.13890
  Beta  occ. eigenvalues --  -10.12197 -10.11648 -10.11346 -10.10704 -10.10348
  Beta  occ. eigenvalues --  -10.09003 -10.08856 -10.08558 -10.08096  -8.04823
  Beta  occ. eigenvalues --   -6.01074  -6.01059  -6.00998  -1.04353  -1.01335
  Beta  occ. eigenvalues --   -0.92637  -0.92500  -0.86488  -0.85443  -0.81098
  Beta  occ. eigenvalues --   -0.72374  -0.69799  -0.69696  -0.64542  -0.60889
  Beta  occ. eigenvalues --   -0.59619  -0.57220  -0.55047  -0.52307  -0.50243
  Beta  occ. eigenvalues --   -0.48909  -0.48237  -0.44845  -0.43355  -0.41067
  Beta  occ. eigenvalues --   -0.40554  -0.39789  -0.39240  -0.38396  -0.38230
  Beta  occ. eigenvalues --   -0.36820  -0.36257  -0.35970  -0.35659  -0.34772
  Beta  occ. eigenvalues --   -0.34190  -0.32952  -0.32103  -0.31640  -0.30661
  Beta  occ. eigenvalues --   -0.30223  -0.29350  -0.28195  -0.27438  -0.27281
  Beta  occ. eigenvalues --   -0.27006  -0.25822  -0.25633  -0.25072  -0.24684
  Beta  occ. eigenvalues --   -0.23635  -0.23506  -0.22751  -0.22117  -0.18788
  Beta  occ. eigenvalues --   -0.18151  -0.16795  -0.13250
  Beta virt. eigenvalues --    0.06110   0.06579   0.07552   0.07714   0.08151
  Beta virt. eigenvalues --    0.08367   0.08828   0.08918   0.09877   0.10261
  Beta virt. eigenvalues --    0.10771   0.11032   0.11297   0.11656   0.11986

 Mulliken charges and spin densities:
               1          2
     1  C   -0.168538  -0.072575
     2  C    0.181676  -0.594703
     3  C   -0.001264  -0.182529
     4  N    0.179819   0.013273
     5  C   -0.199498   0.030780
     6  C    0.001011  -0.356352
     7  C   -0.038781  -0.662606
     8  O   -0.152399   0.046228
     9  O   -0.056072   0.009501
    10  S    0.384346  -0.403483
    11  O   -0.099567  -0.000027
    12  O   -0.076583   0.010810
    13  N   -0.366414   0.112692
    14  C   -0.057244  -0.284002
    15  C   -0.484868   0.372383
    16  C    0.137254  -0.652016
    17  N   -0.187040   0.073413
    18  C   -0.179284  -0.542760
    19  C    0.068999  -0.106010
    20  H   -0.617482   0.810960
    21  H    0.075538   0.042650
    22  H   -0.140682   0.320946
    23  H   -0.014879   0.160665
    24  H    0.141605   0.043867
    25  H    0.203724   0.006170
    26  H    0.245727   0.073061
    27  H    0.083263   0.120157
    28  H   -0.002310   0.184037
    29  H   -0.454019   0.761398
    30  H    0.250935   0.019388
    31  H   -0.222204   0.425877
    32  H    0.095078   0.062302
    33  H    0.200721   0.014864
    34  H   -0.045329   0.199440
    35  H    0.152171   0.008493
    36  H   -0.069677   0.316027
    37  H    0.155769   0.032470
    38  H   -0.001072   0.203374
    39  H    0.301127  -0.078295
    40  H   -0.223555   0.460132
 Sum of Mulliken charges =  -1.00000   1.00000

 Dipole moment (field-independent basis, Debye):
    X=             -1.2146    Y=             -5.0308    Z=             -3.0486  Tot=              6.0065
 Quadrupole moment (field-independent basis, Debye-Ang):
   XX=           -199.7379   YY=           -175.9311   ZZ=           -160.1164
   XY=              5.1286   XZ=              2.0467   YZ=             -8.0201

 Summary of Natural Population Analysis:

                                       Natural Population
                Natural  -----------------------------------------------
    Atom  No    Charge         Core      Valence    Rydberg      Total
 -----------------------------------------------------------------------
      C    1   -0.18991      0.99962     2.18174    0.00855     3.18991
      C    2   -0.19466      0.99962     2.18569    0.00935     3.19466
      C    3   -0.09321      0.99960     2.08254    0.01106     3.09321
      N    4   -0.35887      0.99972     2.84661    0.01253     3.85887
      C    5   -0.05350      0.99950     2.03979    0.01422     3.05350
      C    6   -0.19072      0.99960     2.18177    0.00934     3.19072
      C    7    0.40811      0.99967     1.56436    0.02786     2.59189
      O    8   -0.30339      0.99986     3.29759    0.00593     4.30339
      O    9   -0.34624      0.99987     3.33779    0.00857     4.34624
      S   10    1.17760      4.99918     1.72068    0.10254     6.82240
      O   11   -0.46072      0.99990     3.45597    0.00485     4.46072
      O   12   -0.46313      0.99990     3.45815    0.00507     4.46313
      N   13   -0.37393      0.99973     2.85685    0.01735     3.87393
      C   14   -0.09277      0.99959     2.07989    0.01329     3.09277
      C   15   -0.21168      0.99962     2.20469    0.00737     3.21168
      C   16   -0.08696      0.99963     2.07515    0.01217     3.08696
      N   17   -0.34122      0.99975     2.82935    0.01212     3.84122
      C   18   -0.09949      0.99962     2.08842    0.01146     3.09949
      C   19   -0.09565      0.99958     2.08270    0.01337     3.09565
      H   20    0.10616      0.00000     0.39185    0.00199     0.39384
      H   21    0.09385      0.00000     0.40500    0.00115     0.40615
      H   22    0.10330      0.00000     0.39579    0.00091     0.39670
      H   23    0.10071      0.00000     0.39802    0.00127     0.39929
      H   24    0.08896      0.00000     0.40985    0.00119     0.41104
      H   25    0.11377      0.00000     0.38518    0.00105     0.38623
      H   26    0.10728      0.00000     0.39120    0.00152     0.39272
      H   27    0.10918      0.00000     0.38892    0.00190     0.39082
      H   28    0.10699      0.00000     0.39209    0.00092     0.39301
      H   29    0.24806      0.00000     0.23628    0.01566     0.25194
      H   30    0.11833      0.00000     0.38047    0.00120     0.38167
      H   31    0.10388      0.00000     0.39429    0.00183     0.39612
      H   32    0.10145      0.00000     0.39768    0.00087     0.39855
      H   33    0.10084      0.00000     0.39797    0.00119     0.39916
      H   34    0.09424      0.00000     0.40482    0.00094     0.40576
      H   35    0.08780      0.00000     0.41122    0.00097     0.41220
      H   36    0.17554      0.00000     0.32096    0.00350     0.32446
      H   37    0.10070      0.00000     0.39819    0.00112     0.39930
      H   38    0.09502      0.00000     0.40406    0.00092     0.40498
      H   39    0.11135      0.00000     0.38713    0.00152     0.38865
      H   40    0.10293      0.00000     0.39427    0.00280     0.39707
 =======================================================================
   * Total *   -0.00000     22.99359    54.65496    0.35145    78.00000

 Normal termination of Gaussian 16 at Mon Dec 14 20:45:53 2020.
