 Gaussian 16, Revision A.03,

 -----------------------------------------------------------
 # opt freq B3LYP/6-31G(d) empiricaldispersion=gd3bj scf=xqc
 -----------------------------------------------------------

 ------------------------------
 CID_71326689_JID_6802_neutraal
 ------------------------------
 Symbolic Z-matrix:
 Charge =  0 Multiplicity = 1

 SCF Done:  E(RB3LYP) =  -1444.54385318     A.U. after   16 cycles
 SCF Done:  E(RB3LYP) =  -1444.55085273     A.U. after   14 cycles
 SCF Done:  E(RB3LYP) =  -1444.54316451     A.U. after   17 cycles
 SCF Done:  E(RB3LYP) =  -1444.55230695     A.U. after   13 cycles
 SCF Done:  E(RB3LYP) =  -1444.55247078     A.U. after   14 cycles
 SCF Done:  E(RB3LYP) =  -1444.55267346     A.U. after   13 cycles
 SCF Done:  E(RB3LYP) =  -1444.55284657     A.U. after   16 cycles
 SCF Done:  E(RB3LYP) =  -1444.55314279     A.U. after   13 cycles
 SCF Done:  E(RB3LYP) =  -1444.55333814     A.U. after   14 cycles
 SCF Done:  E(RB3LYP) =  -1444.55335537     A.U. after   12 cycles
 SCF Done:  E(RB3LYP) =  -1444.55336294     A.U. after   10 cycles
 SCF Done:  E(RB3LYP) =  -1444.55336409     A.U. after    9 cycles
 SCF Done:  E(RB3LYP) =  -1444.55336461     A.U. after    9 cycles
 SCF Done:  E(RB3LYP) =  -1444.55336469     A.U. after    8 cycles
 SCF Done:  E(RB3LYP) =  -1444.55336472     A.U. after    7 cycles
 Optimization completed.
    -- Stationary point found.
 Normal termination of Gaussian 16 at Fri Dec 11 00:36:34 2020.

 --------------------------------------------------------------------
 #N Geom=AllCheck Guess=TCheck SCRF=Check GenChk RB3LYP/6-31G(d) Freq
 --------------------------------------------------------------------

 Structure from the checkpoint file:  "JID_6802.chk"
 ------------------------------
 CID_71326689_JID_6802_neutraal
 ------------------------------
 Charge =  0 Multiplicity = 1

 SCF Done:  E(RB3LYP) =  -1444.55336472     A.U. after    1 cycles

  Exact polarizability: 203.120  -6.208 155.673  15.802  -3.480 112.489
 Approx polarizability: 300.858  -5.831 260.565  25.168  -6.281 184.691

                      1                      2                      3
                      A                      A                      A
 Frequencies --     10.2942                34.8969                39.0957
 Red. masses --      6.7873                 4.2130                 5.9367
 Frc consts  --      0.0004                 0.0030                 0.0053
 IR Inten    --      2.4040                 0.5038                 0.0834

                      4                      5                      6
                      A                      A                      A
 Frequencies --     58.2521               105.0927               134.2598
 Red. masses --     12.5791                 4.7114                 4.9711
 Frc consts  --      0.0251                 0.0307                 0.0528
 IR Inten    --      0.4065                 1.5409                 1.7696

                      7                      8                      9
                      A                      A                      A
 Frequencies --    166.1787               198.4580               240.3135
 Red. masses --      8.3341                 5.4761                 2.5888
 Frc consts  --      0.1356                 0.1271                 0.0881
 IR Inten    --      2.1076                 1.0411                 0.7790

                     10                     11                     12
                      A                      A                      A
 Frequencies --    243.7530               286.9736               313.9473
 Red. masses --      2.8984                 5.5952                 4.7520
 Frc consts  --      0.1015                 0.2715                 0.2760
 IR Inten    --      2.4839                 1.0285                 1.4694

                     13                     14                     15
                      A                      A                      A
 Frequencies --    331.0596               361.5109               393.4209
 Red. masses --      9.0857                 5.3716                 2.4819
 Frc consts  --      0.5867                 0.4136                 0.2263
 IR Inten    --      1.8969                 0.6249                 5.4555

                     16                     17                     18
                      A                      A                      A
 Frequencies --    409.5493               432.0758               454.4692
 Red. masses --      4.3839                 3.0997                 5.5052
 Frc consts  --      0.4332                 0.3409                 0.6699
 IR Inten    --      2.7872                 1.2142                 2.5188

                     19                     20                     21
                      A                      A                      A
 Frequencies --    496.6972               521.9347               580.0487
 Red. masses --      3.8064                 4.6162                 4.7604
 Frc consts  --      0.5533                 0.7409                 0.9437
 IR Inten    --      0.3117                 5.1926                 2.4733

                     22                     23                     24
                      A                      A                      A
 Frequencies --    659.9308               664.7882               675.7352
 Red. masses --      4.5822                 6.6084                 2.8419
 Frc consts  --      1.1758                 1.7207                 0.7646
 IR Inten    --      6.6625                 3.1391                 1.6004

                     25                     26                     27
                      A                      A                      A
 Frequencies --    696.6137               715.1862               737.6399
 Red. masses --      4.5472                 6.0262                 6.7892
 Frc consts  --      1.3001                 1.8161                 2.1765
 IR Inten    --      0.8577                12.3574                 6.5799

                     28                     29                     30
                      A                      A                      A
 Frequencies --    753.0858               792.8310               820.9673
 Red. masses --      2.0668                 2.1607                 1.5560
 Frc consts  --      0.6906                 0.8002                 0.6179
 IR Inten    --     31.1201                13.3842                 1.1094

                     31                     32                     33
                      A                      A                      A
 Frequencies --    863.7896               879.5181               896.7993
 Red. masses --      9.9930                 1.4146                 3.2434
 Frc consts  --      4.3930                 0.6447                 1.5369
 IR Inten    --     30.6219                 1.2908                39.6373

                     34                     35                     36
                      A                      A                      A
 Frequencies --    961.3019               988.2876               993.7502
 Red. masses --      1.3616                 1.9365                 1.2971
 Frc consts  --      0.7414                 1.1144                 0.7547
 IR Inten    --      0.9021                 2.9852                 1.8363

                     37                     38                     39
                      A                      A                      A
 Frequencies --    994.7564              1021.3076              1044.5876
 Red. masses --      2.1879                 1.5879                 2.6050
 Frc consts  --      1.2756                 0.9759                 1.6747
 IR Inten    --     33.2594                 1.1559                13.2679

                     40                     41                     42
                      A                      A                      A
 Frequencies --   1067.6046              1075.3096              1079.5785
 Red. masses --      3.3340                 3.6425                 1.8373
 Frc consts  --      2.2389                 2.4815                 1.2616
 IR Inten    --      4.8391                 1.1367                21.2228

                     43                     44                     45
                      A                      A                      A
 Frequencies --   1144.1091              1153.3260              1176.3406
 Red. masses --      3.4352                 2.2771                 1.8875
 Frc consts  --      2.6493                 1.7846                 1.5388
 IR Inten    --     12.1998                 3.9397                 1.1360

                     46                     47                     48
                      A                      A                      A
 Frequencies --   1198.2411              1205.1201              1246.4592
 Red. masses --      1.1109                 1.1748                 1.2062
 Frc consts  --      0.9398                 1.0052                 1.1041
 IR Inten    --      0.0712                 2.7744                 1.3864

                     49                     50                     51
                      A                      A                      A
 Frequencies --   1267.1586              1291.5424              1312.0162
 Red. masses --      1.5629                 1.5356                 1.3808
 Frc consts  --      1.4786                 1.5092                 1.4004
 IR Inten    --      5.4818                 0.1694                 9.0360

                     52                     53                     54
                      A                      A                      A
 Frequencies --   1329.4904              1356.5591              1369.7566
 Red. masses --      1.2012                 7.0329                 1.1759
 Frc consts  --      1.2509                 7.6254                 1.2999
 IR Inten    --     35.3142                 9.1888                 9.3380

                     55                     56                     57
                      A                      A                      A
 Frequencies --   1394.9427              1415.3431              1429.3807
 Red. masses --      1.2550                12.2556                 1.3702
 Frc consts  --      1.4388                14.4646                 1.6494
 IR Inten    --      2.8512               183.0904                13.3490

                     58                     59                     60
                      A                      A                      A
 Frequencies --   1480.4805              1481.2042              1490.5164
 Red. masses --      2.0782                 1.1091                 1.0925
 Frc consts  --      2.6837                 1.4337                 1.4300
 IR Inten    --      1.4126                 1.8014                13.9596

                     61                     62                     63
                      A                      A                      A
 Frequencies --   1509.8261              1514.7947              1526.1766
 Red. masses --      2.2340                 1.1080                 1.0952
 Frc consts  --      3.0005                 1.4980                 1.5029
 IR Inten    --     11.5451                 2.2984                11.1562

                     64                     65                     66
                      A                      A                      A
 Frequencies --   1623.1125              1637.6214              1655.9935
 Red. masses --      6.9808                 6.5499                 8.7757
 Frc consts  --     10.8356                10.3493                14.1792
 IR Inten    --     54.0104                76.6787               154.3189

                     67                     68                     69
                      A                      A                      A
 Frequencies --   2992.4252              3007.1139              3067.9529
 Red. masses --      1.0703                 1.0705                 1.0608
 Frc consts  --      5.6468                 5.7033                 5.8828
 IR Inten    --     55.9908                46.5610                16.9296

                     70                     71                     72
                      A                      A                      A
 Frequencies --   3072.6826              3100.0778              3121.6912
 Red. masses --      1.0600                 1.0921                 1.0936
 Frc consts  --      5.8966                 6.1836                 6.2788
 IR Inten    --     17.8139                20.2902                 4.4220

                     73                     74                     75
                      A                      A                      A
 Frequencies --   3128.5376              3132.0526              3200.2241
 Red. masses --      1.1057                 1.1058                 1.0870
 Frc consts  --      6.3761                 6.3914                 6.5589
 IR Inten    --     16.6401                 8.6092                 2.7564

                     76                     77                     78
                      A                      A                      A
 Frequencies --   3215.9166              3225.9007              3237.8640
 Red. masses --      1.0913                 1.0941                 1.0943
 Frc consts  --      6.6496                 6.7085                 6.7591
 IR Inten    --     10.0054                 6.8053                 2.3188

 - Thermochemistry -
 -------------------
 Temperature   298.150 Kelvin.  Pressure   1.00000 Atm.
 Atom     1 has atomic number  6 and mass  12.00000

 Molecular mass:   256.03402 amu.
 Principal axes and moments of inertia in atomic units:
                           1         2         3
     Eigenvalues --  2244.326787262.942118170.87505
           X            0.99991  -0.01087   0.00806
           Y            0.01078   0.99989   0.01000
           Z           -0.00817  -0.00991   0.99992
 This molecule is an asymmetric top.
 Rotational symmetry number  1.
 Warning -- assumption of classical behavior for rotation
           may cause significant error
 Rotational temperatures (Kelvin)      0.03859     0.01193     0.01060
 Rotational constants (GHZ):           0.80413     0.24849     0.22087
 Zero-point vibrational energy     567673.5 (Joules/Mol)
                                  135.67723 (Kcal/Mol)
 Warning -- explicit consideration of  21 degrees of freedom as
           vibrations may cause significant error
 Vibrational temperatures:     14.81    50.21    56.25    83.81   151.20
          (Kelvin)            193.17   239.09   285.54   345.76   350.71
                              412.89   451.70   476.32   520.13   566.04
                              589.25   621.66   653.88   714.64   750.95
                              834.56   949.49   956.48   972.23  1002.27
                             1028.99  1061.30  1083.52  1140.71  1181.19
                             1242.80  1265.43  1290.29  1383.10  1421.93
                             1429.78  1431.23  1469.43  1502.93  1536.04
                             1547.13  1553.27  1646.12  1659.38  1692.49
                             1724.00  1733.90  1793.38  1823.16  1858.24
                             1887.70  1912.84  1951.79  1970.77  2007.01
                             2036.36  2056.56  2130.08  2131.12  2144.52
                             2172.30  2179.45  2195.83  2335.30  2356.17
                             2382.61  4305.43  4326.57  4414.10  4420.90
                             4460.32  4491.42  4501.27  4506.33  4604.41
                             4626.99  4641.35  4658.56

 Zero-point correction=                           0.216215 (Hartree/Particle)
 Thermal correction to Energy=                    0.231067
 Thermal correction to Enthalpy=                  0.232012
 Thermal correction to Gibbs Free Energy=         0.171017
 Sum of electronic and zero-point Energies=          -1444.337149
 Sum of electronic and thermal Energies=             -1444.322297
 Sum of electronic and thermal Enthalpies=           -1444.321353
 Sum of electronic and thermal Free Energies=        -1444.382347

                     E (Thermal)             CV                S
                      KCal/Mol        Cal/Mol-Kelvin    Cal/Mol-Kelvin
 Total                  144.997             55.614            128.373
 Electronic               0.000              0.000              0.000
 Translational            0.889              2.981             42.520
 Rotational               0.889              2.981             33.254
 Vibrational            143.220             49.653             52.599
 Vibration     1          0.593              1.987              7.953
 Vibration     2          0.594              1.983              5.530
 Vibration     3          0.594              1.981              5.304
 Vibration     4          0.596              1.974              4.516
 Vibration     5          0.605              1.945              3.358
 Vibration     6          0.613              1.919              2.884
 Vibration     7          0.624              1.884              2.478
 Vibration     8          0.637              1.842              2.147
 Vibration     9          0.657              1.779              1.801
 Vibration    10          0.659              1.773              1.775
 Vibration    11          0.684              1.698              1.492
 Vibration    12          0.702              1.647              1.341
 Vibration    13          0.713              1.613              1.255
 Vibration    14          0.736              1.552              1.116
 Vibration    15          0.761              1.484              0.987
 Vibration    16          0.774              1.449              0.928
 Vibration    17          0.793              1.400              0.852
 Vibration    18          0.813              1.351              0.782
 Vibration    19          0.852              1.257              0.666
 Vibration    20          0.877              1.201              0.605
 Vibration    21          0.937              1.074              0.485

                           ! Non-Optimized Parameters !
 Normal termination of Gaussian 16 at Fri Dec 11 00:45:06 2020.

 ----------------------------------------------------------------------
 # B3LYP/6-311++G(d,p) empiricaldispersion=gd3bj scf=xqc pop=npa geom=c
 heck
 ----------------------------------------------------------------------

 --------------------------------------
 CID_71326689_JID_6802_Energie_neutraal
 --------------------------------------
 Structure from the checkpoint file:  "JID_6802.chk"
 Charge =  0 Multiplicity = 1

 SCF Done:  E(RB3LYP) =  -1444.78603229     A.U. after   17 cycles
 Normal termination of Gaussian 16 at Fri Dec 11 00:49:02 2020.

 ----------------------------------------------------------------------
 # B3LYP/6-311++G(d,p) empiricaldispersion=gd3bj scf=xqc pop=npa geom=c
 heck
 ----------------------------------------------------------------------

 ------------------------------------
 CID_71326689_JID_6802_Energie_kation
 ------------------------------------
 Structure from the checkpoint file:  "JID_6802.chk"
 Charge =  1 Multiplicity = 2

 SCF Done:  E(UB3LYP) =  -1444.49246312     A.U. after   29 cycles
 Normal termination of Gaussian 16 at Fri Dec 11 00:57:58 2020.
 Gaussian 16:  ES64L-G16RevA.03 25-Dec-2016

 ----------------------------------------------------------------------
 # B3LYP/6-311++G(d,p) empiricaldispersion=gd3bj scf=xqc pop=npa geom=c
 heck
 ----------------------------------------------------------------------

 -----------------------------------
 CID_71326689_JID_6802_Energie_anion
 -----------------------------------
 Structure from the checkpoint file:  "JID_6802.chk"
 Charge = -1 Multiplicity = 2

                         Standard orientation:
 ---------------------------------------------------------------------
 Center     Atomic      Atomic             Coordinates (Angstroms)
 Number     Number       Type             X           Y           Z
 ---------------------------------------------------------------------
      1          6           0        1.651120   -1.127378   -0.482827
      2          6           0        2.644155   -0.593775   -1.511995
      3         16           0        4.231809   -0.083906   -0.751695
      4          6           0        3.503883    1.029548    0.506979
      5          6           0        2.426950    0.340275    1.343201
      6          7           0        1.304017   -0.077480    0.492040
      7         16           0       -0.128956   -0.457674    1.398047
      8          6           0       -1.305399    0.498075    0.448423
      9          6           0       -1.121751    1.879734    0.303767
     10          6           0       -2.061586    2.664591   -0.356580
     11          6           0       -3.235530    2.089240   -0.852238
     12          6           0       -3.446489    0.722755   -0.710759
     13          6           0       -2.467358   -0.059596   -0.097228
     14          7           0       -2.710190   -1.514434   -0.110075
     15          8           0       -1.806364   -2.244235   -0.508176
     16          8           0       -3.830817   -1.892886    0.226422
     17          1           0        0.727580   -1.422763   -0.987777
     18          1           0        2.068491   -2.017529    0.013855
     19          1           0        2.885312   -1.374846   -2.238806
     20          1           0        2.207064    0.256184   -2.046463
     21          1           0        3.082013    1.911513    0.013166
     22          1           0        4.327922    1.351519    1.150509
     23          1           0        2.036917    1.046991    2.082287
     24          1           0        2.873661   -0.509563    1.885385
     25          1           0       -0.224839    2.325456    0.719534
     26          1           0       -1.891712    3.731806   -0.463108
     27          1           0       -3.982645    2.701928   -1.346481
     28          1           0       -4.342719    0.244124   -1.087921
 ---------------------------------------------------------------------

 SCF Done:  E(UB3LYP) =  -1444.81896884     A.U. after   27 cycles

 The electronic state is 2-A.
 Alpha  occ. eigenvalues --  -88.75112 -88.74063 -18.94689 -18.94552 -14.31808
 Alpha  occ. eigenvalues --  -14.22171 -10.11456 -10.11090 -10.10737 -10.09582
 Alpha  occ. eigenvalues --  -10.07195 -10.06749 -10.05554 -10.05010 -10.04848
 Alpha  occ. eigenvalues --  -10.04545  -7.83751  -7.82476  -5.80124  -5.79803
 Alpha  occ. eigenvalues --   -5.79121  -5.78997  -5.78499  -5.77748  -1.02652
 Alpha  occ. eigenvalues --   -0.85549  -0.83108  -0.74201  -0.71594  -0.67771
 Alpha  occ. eigenvalues --   -0.65218  -0.64165  -0.59040  -0.54597  -0.54193
 Alpha  occ. eigenvalues --   -0.52398  -0.48073  -0.46035  -0.44167  -0.39667
 Alpha  occ. eigenvalues --   -0.37875  -0.37577  -0.36312  -0.35985  -0.34687
 Alpha  occ. eigenvalues --   -0.33185  -0.32889  -0.32548  -0.31490  -0.31276
 Alpha  occ. eigenvalues --   -0.30628  -0.29286  -0.27804  -0.27210  -0.24632
 Alpha  occ. eigenvalues --   -0.24178  -0.23892  -0.22377  -0.21678  -0.15878
 Alpha  occ. eigenvalues --   -0.14326  -0.14176  -0.13668  -0.13225  -0.12029
 Alpha  occ. eigenvalues --   -0.09803  -0.09477   0.03249
 Alpha virt. eigenvalues --    0.06820   0.08009   0.08112   0.08918   0.09366
 Alpha virt. eigenvalues --    0.09779   0.10684   0.11284   0.11596   0.11983
 Alpha virt. eigenvalues --    0.12123   0.12783   0.13218   0.13344   0.14179

  Beta  occ. eigenvalues --  -88.75111 -88.74059 -18.94213 -18.94071 -14.31106
  Beta  occ. eigenvalues --  -14.22115 -10.11456 -10.11088 -10.10735 -10.09580
  Beta  occ. eigenvalues --  -10.07056 -10.06522 -10.05630 -10.04960 -10.04832
  Beta  occ. eigenvalues --  -10.04355  -7.83751  -7.82472  -5.80123  -5.79802
  Beta  occ. eigenvalues --   -5.79121  -5.78983  -5.78505  -5.77743  -1.01536
  Beta  occ. eigenvalues --   -0.84640  -0.83033  -0.73910  -0.71547  -0.67762
  Beta  occ. eigenvalues --   -0.64869  -0.63731  -0.58897  -0.54587  -0.53777
  Beta  occ. eigenvalues --   -0.51910  -0.47905  -0.45994  -0.43686  -0.39433
  Beta  occ. eigenvalues --   -0.37860  -0.37194  -0.36241  -0.34697  -0.34293
  Beta  occ. eigenvalues --   -0.33122  -0.32570  -0.31518  -0.31411  -0.31099
  Beta  occ. eigenvalues --   -0.29589  -0.28910  -0.27776  -0.26989  -0.24181
  Beta  occ. eigenvalues --   -0.24047  -0.23674  -0.22231  -0.21645  -0.15205
  Beta  occ. eigenvalues --   -0.14203  -0.13643  -0.13025  -0.11603  -0.10605
  Beta  occ. eigenvalues --   -0.09061  -0.09013
  Beta virt. eigenvalues --    0.06807   0.07963   0.08102   0.08960   0.09405
  Beta virt. eigenvalues --    0.09732   0.10274   0.10712   0.11270   0.11582
  Beta virt. eigenvalues --    0.11951   0.12673   0.13148   0.13381   0.14227

 Mulliken charges and spin densities:
               1          2
     1  C   -0.425625   0.023721
     2  C   -0.415026  -0.024731
     3  S    0.065730   0.001911
     4  C   -0.468926  -0.001002
     5  C   -0.245904  -0.022549
     6  N    0.127516   0.003066
     7  S    0.027885   0.048251
     8  C    1.489298   0.090969
     9  C   -0.558227  -0.030409
    10  C   -0.583476   0.128258
    11  C   -0.245178   0.035734
    12  C   -0.023378  -0.019959
    13  C   -1.048479   0.154683
    14  N   -0.180634   0.219548
    15  O   -0.168383   0.185134
    16  O   -0.163902   0.179954
    17  H    0.206199   0.013989
    18  H    0.107409  -0.001718
    19  H    0.167223   0.007043
    20  H    0.196412  -0.001611
    21  H    0.181711  -0.000040
    22  H    0.168196  -0.000120
    23  H    0.156618   0.005408
    24  H    0.099739   0.000013
    25  H    0.109648   0.004471
    26  H    0.127601  -0.011965
    27  H    0.117040  -0.004334
    28  H    0.178913   0.016285
 Sum of Mulliken charges =  -1.00000   1.00000

 Dipole moment (field-independent basis, Debye):
    X=              8.5116    Y=              5.6060    Z=             -0.0611  Tot=             10.1920
 Quadrupole moment (field-independent basis, Debye-Ang):
   XX=           -165.3178   YY=           -134.3913   ZZ=           -117.1540
   XY=            -14.7437   XZ=              6.5853   YZ=              1.8686

 Summary of Natural Population Analysis:

                                       Natural Population
                Natural  -----------------------------------------------
    Atom  No    Charge         Core      Valence    Rydberg      Total
 -----------------------------------------------------------------------
      C    1   -0.09383      0.99960     2.08349    0.01074     3.09383
      C    2   -0.25092      0.99959     2.24276    0.00857     3.25092
      S    3    0.07353      4.99964     2.90680    0.02003     7.92647
      C    4   -0.25287      0.99959     2.24455    0.00874     3.25287
      C    5   -0.08762      0.99960     2.07783    0.01019     3.08762
      N    6   -0.34496      0.99973     2.82331    0.02192     3.84496
      S    7    0.20701      4.99950     2.77204    0.02146     7.79299
      C    8   -0.05812      0.99933     2.04712    0.01167     3.05812
      C    9   -0.11214      0.99951     2.10280    0.00983     3.11214
      C   10   -0.07889      0.99957     2.07002    0.00929     3.07889
      C   11   -0.09919      0.99958     2.09046    0.00916     3.09919
      C   12   -0.09643      0.99952     2.08782    0.00909     3.09643
      C   13    0.07048      0.99933     1.91475    0.01544     2.92952
      N   14    0.31502      0.99971     2.15870    0.02657     3.18498
      O   15   -0.19100      0.99989     3.18208    0.00903     4.19100
      O   16   -0.19257      0.99990     3.18497    0.00771     4.19257
      H   17    0.12252      0.00000     0.37618    0.00130     0.37748
      H   18    0.08400      0.00000     0.41459    0.00141     0.41600
      H   19    0.10513      0.00000     0.39381    0.00106     0.39487
      H   20    0.10322      0.00000     0.39527    0.00151     0.39678
      H   21    0.10162      0.00000     0.39682    0.00156     0.39838
      H   22    0.10237      0.00000     0.39655    0.00109     0.39763
      H   23    0.10320      0.00000     0.39540    0.00140     0.39680
      H   24    0.08262      0.00000     0.41577    0.00161     0.41738
      H   25    0.09709      0.00000     0.40124    0.00167     0.40291
      H   26    0.08944      0.00000     0.40896    0.00160     0.41056
      H   27    0.09201      0.00000     0.40692    0.00107     0.40799
      H   28    0.10930      0.00000     0.38954    0.00117     0.39070
 =======================================================================
   * Total *   -0.00000     23.99359    42.78053    0.22588    67.00000

 Normal termination of Gaussian 16 at Fri Dec 11 01:06:18 2020.
