 Gaussian 16, Revision A.03,

 -----------------------------------------------------------
 # opt freq B3LYP/6-31G(d) empiricaldispersion=gd3bj scf=xqc
 -----------------------------------------------------------

 -----------------------------
 CID_91999188_JID_900_neutraal
 -----------------------------
 Symbolic Z-matrix:
 Charge =  0 Multiplicity = 1

 SCF Done:  E(RB3LYP) =  -426.606633246     A.U. after   14 cycles
 SCF Done:  E(RB3LYP) =  -426.606393014     A.U. after   14 cycles
 SCF Done:  E(RB3LYP) =  -426.607446381     A.U. after   13 cycles
 SCF Done:  E(RB3LYP) =  -426.608937377     A.U. after   12 cycles
 SCF Done:  E(RB3LYP) =  -426.608966963     A.U. after   11 cycles
 SCF Done:  E(RB3LYP) =  -426.608979317     A.U. after   11 cycles
 SCF Done:  E(RB3LYP) =  -426.608987459     A.U. after   11 cycles
 SCF Done:  E(RB3LYP) =  -426.608989831     A.U. after   11 cycles
 SCF Done:  E(RB3LYP) =  -426.608990972     A.U. after    9 cycles
 SCF Done:  E(RB3LYP) =  -426.608991117     A.U. after    8 cycles
 Optimization completed.
    -- Stationary point found.

 1\1\GINC-NODE308\FOpt\RB3LYP\6-31G(d)\C9H14O1\VSC10255\14-Dec-2020\0\\
 # opt freq B3LYP/6-31G(d) empiricaldispersion=gd3bj scf=xqc\\CID_91999
 188_JID_900_neutraal\\0,1\C,1.0149278102,0.0335958605,-0.0835100585\C,
 0.4805171894,0.9376965386,-1.2083799951\C,1.0025328325,0.4698542683,-2
 .5786828488\C,-1.0227790849,0.9551940002,-1.2005865977\C,-1.7740323489
 ,2.0541002412,-1.0270858901\C,-3.2373315818,2.1067228032,-1.0250763981
 \C,-3.8878831174,3.2739185904,-0.8831724285\C,-4.0017790328,0.81425842
 71,-1.2339523432\C,-3.8713225769,0.3248823061,-2.666780496\O,-3.446953

 Normal termination of Gaussian 16 at Mon Dec 14 16:25:38 2020.

 --------------------------------------------------------------------
 #N Geom=AllCheck Guess=TCheck SCRF=Check GenChk RB3LYP/6-31G(d) Freq
 --------------------------------------------------------------------

 Structure from the checkpoint file:  "JID_900.chk"
 -----------------------------
 CID_91999188_JID_900_neutraal
 -----------------------------
 Charge =  0 Multiplicity = 1

 SCF Done:  E(RB3LYP) =  -426.608991117     A.U. after    1 cycles

  Exact polarizability: 131.278 -22.387 101.040  -6.039   9.136  72.305
 Approx polarizability: 180.822 -48.603 160.051 -14.942  23.494 103.680

                      1                      2                      3
                      A                      A                      A
 Frequencies --     38.0370                60.0037                69.6166
 Red. masses --      2.9092                 6.6137                 2.8529
 Frc consts  --      0.0025                 0.0140                 0.0081
 IR Inten    --      0.4245                 6.2936                 3.8560

                      4                      5                      6
                      A                      A                      A
 Frequencies --     96.2137               138.7540               182.6372
 Red. masses --      3.4515                 2.8535                 2.6982
 Frc consts  --      0.0188                 0.0324                 0.0530
 IR Inten    --      0.4600                 3.3015                 0.4071

                      7                      8                      9
                      A                      A                      A
 Frequencies --    224.8049               231.7002               260.9081
 Red. masses --      1.7038                 1.1698                 1.1950
 Frc consts  --      0.0507                 0.0370                 0.0479
 IR Inten    --      2.9950                 0.9334                 0.1242

                     10                     11                     12
                      A                      A                      A
 Frequencies --    280.6061               357.6806               389.6497
 Red. masses --      2.8865                 2.4210                 2.5615
 Frc consts  --      0.1339                 0.1825                 0.2291
 IR Inten    --      0.3499                 0.1961                 1.5251

                     13                     14                     15
                      A                      A                      A
 Frequencies --    412.5701               473.8243               523.2584
 Red. masses --      2.3131                 3.2088                 2.0645
 Frc consts  --      0.2320                 0.4245                 0.3330
 IR Inten    --      2.0931                 5.6278                 6.2846

                     16                     17                     18
                      A                      A                      A
 Frequencies --    548.1544               619.6477               718.7802
 Red. masses --      3.0448                 3.7913                 1.0742
 Frc consts  --      0.5390                 0.8577                 0.3270
 IR Inten    --      5.3171                 6.6929                 1.7691

                     19                     20                     21
                      A                      A                      A
 Frequencies --    792.3044               863.5282               885.7188
 Red. masses --      1.9361                 2.3234                 1.8183
 Frc consts  --      0.7161                 1.0208                 0.8404
 IR Inten    --      1.1879                 1.4005                 5.4217

                     22                     23                     24
                      A                      A                      A
 Frequencies --    899.9750               920.9852               942.7660
 Red. masses --      2.2649                 1.5236                 1.1801
 Frc consts  --      1.0808                 0.7614                 0.6180
 IR Inten    --      9.6508                23.8460                 0.3064

                     25                     26                     27
                      A                      A                      A
 Frequencies --    968.8166               974.7268              1013.4274
 Red. masses --      1.7921                 1.5075                 1.5778
 Frc consts  --      0.9911                 0.8439                 0.9547
 IR Inten    --     17.4133                 0.1179                 3.7788

                     28                     29                     30
                      A                      A                      A
 Frequencies --   1020.2572              1038.5943              1074.4750
 Red. masses --      1.1219                 1.7778                 2.8849
 Frc consts  --      0.6880                 1.1299                 1.9624
 IR Inten    --     34.8655                 2.1527                20.6007

                     31                     32                     33
                      A                      A                      A
 Frequencies --   1126.5320              1174.9935              1208.2616
 Red. masses --      2.2655                 1.8368                 1.7227
 Frc consts  --      1.6940                 1.4941                 1.4818
 IR Inten    --      2.3894                 2.6481                 4.6969

                     34                     35                     36
                      A                      A                      A
 Frequencies --   1214.4082              1302.1717              1305.1594
 Red. masses --      1.3163                 1.3811                 1.4259
 Frc consts  --      1.1438                 1.3798                 1.4311
 IR Inten    --     12.1349                 3.4257                 1.5697

                     37                     38                     39
                      A                      A                      A
 Frequencies --   1353.6134              1356.6669              1360.7594
 Red. masses --      2.4082                 1.3295                 1.4263
 Frc consts  --      2.5997                 1.4418                 1.5560
 IR Inten    --      6.3852                 2.5337                 0.0925

                     40                     41                     42
                      A                      A                      A
 Frequencies --   1390.2040              1423.6508              1429.8013
 Red. masses --      1.4391                 1.2269                 1.1837
 Frc consts  --      1.6387                 1.4651                 1.4258
 IR Inten    --     13.8507                 2.8544                 4.7353

                     43                     44                     45
                      A                      A                      A
 Frequencies --   1444.4074              1471.5723              1498.3410
 Red. masses --      1.2249                 1.2136                 1.1144
 Frc consts  --      1.5056                 1.5484                 1.4740
 IR Inten    --      1.2401                 2.1541                 9.6452

                     46                     47                     48
                      A                      A                      A
 Frequencies --   1518.0257              1519.5474              1531.1657
 Red. masses --      1.0426                 1.0499                 1.0479
 Frc consts  --      1.4155                 1.4283                 1.4475
 IR Inten    --      0.3690                 2.0486                 6.0964

                     49                     50                     51
                      A                      A                      A
 Frequencies --   1540.1513              1689.0898              1729.6943
 Red. masses --      1.0548                 4.4962                 5.5913
 Frc consts  --      1.4741                 7.5578                 9.8561
 IR Inten    --      6.9874                13.9852                16.7029

                     52                     53                     54
                      A                      A                      A
 Frequencies --   1832.1180              2913.3642              3032.0815
 Red. masses --      9.7383                 1.0847                 1.0840
 Frc consts  --     19.2593                 5.4242                 5.8715
 IR Inten    --    134.1776                99.8797                14.2555

                     55                     56                     57
                      A                      A                      A
 Frequencies --   3041.6996              3045.9080              3052.4575
 Red. masses --      1.0349                 1.0354                 1.0622
 Frc consts  --      5.6414                 5.6596                 5.8310
 IR Inten    --     26.1419                36.6168                10.2326

                     58                     59                     60
                      A                      A                      A
 Frequencies --   3106.3941              3112.7694              3116.5661
 Red. masses --      1.1025                 1.1018                 1.1006
 Frc consts  --      6.2684                 6.2901                 6.2982
 IR Inten    --      1.9458                67.4944                11.8509

                     61                     62                     63
                      A                      A                      A
 Frequencies --   3121.0765              3123.3333              3145.1778
 Red. masses --      1.1027                 1.1023                 1.0891
 Frc consts  --      6.3290                 6.3355                 6.3475
 IR Inten    --     28.3580                34.5499                14.9402

                     64                     65                     66
                      A                      A                      A
 Frequencies --   3166.3019              3167.5400              3246.1089
 Red. masses --      1.0623                 1.0847                 1.1165
 Frc consts  --      6.2746                 6.4120                 6.9314
 IR Inten    --      4.1660                13.4755                13.9421

 - Thermochemistry -
 -------------------
 Temperature   298.150 Kelvin.  Pressure   1.00000 Atm.
 Atom     1 has atomic number  6 and mass  12.00000

 Molecular mass:   138.10447 amu.
 Principal axes and moments of inertia in atomic units:
                           1         2         3
     Eigenvalues --  1051.161842381.663682996.81689
           X            0.99968  -0.02512  -0.00196
           Y            0.02512   0.99968   0.00048
           Z            0.00195  -0.00053   1.00000
 This molecule is an asymmetric top.
 Rotational symmetry number  1.
 Warning -- assumption of classical behavior for rotation
           may cause significant error
 Rotational temperatures (Kelvin)      0.08240     0.03637     0.02890
 Rotational constants (GHZ):           1.71690     0.75776     0.60222
 Zero-point vibrational energy     549286.5 (Joules/Mol)
                                  131.28263 (Kcal/Mol)
 Warning -- explicit consideration of  17 degrees of freedom as
           vibrations may cause significant error
 Vibrational temperatures:     54.73    86.33   100.16   138.43   199.64
          (Kelvin)            262.77   323.44   333.36   375.39   403.73
                              514.62   560.62   593.60   681.73   752.85
                              788.67   891.53  1034.16  1139.95  1242.42
                             1274.35  1294.86  1325.09  1356.43  1393.91
                             1402.41  1458.10  1467.92  1494.31  1545.93
                             1620.83  1690.55  1738.42  1747.26  1873.53
                             1877.83  1947.55  1951.94  1957.83  2000.19
                             2048.32  2057.17  2078.18  2117.26  2155.78
                             2184.10  2186.29  2203.01  2215.93  2430.22
                             2488.64  2636.01  4191.68  4362.49  4376.33
                             4382.38  4391.81  4469.41  4478.58  4484.04
                             4490.53  4493.78  4525.21  4555.60  4557.38
                             4670.43

 Zero-point correction=                           0.209212 (Hartree/Particle)
 Thermal correction to Energy=                    0.221068
 Thermal correction to Enthalpy=                  0.222012
 Thermal correction to Gibbs Free Energy=         0.170604
 Sum of electronic and zero-point Energies=           -426.399779
 Sum of electronic and thermal Energies=              -426.387923
 Sum of electronic and thermal Enthalpies=            -426.386979
 Sum of electronic and thermal Free Energies=         -426.438387

                     E (Thermal)             CV                S
                      KCal/Mol        Cal/Mol-Kelvin    Cal/Mol-Kelvin
 Total                  138.722             42.375            108.197
 Electronic               0.000              0.000              0.000
 Translational            0.889              2.981             40.680
 Rotational               0.889              2.981             30.396
 Vibrational            136.945             36.414             37.120
 Vibration     1          0.594              1.982              5.359
 Vibration     2          0.597              1.973              4.457
 Vibration     3          0.598              1.969              4.164
 Vibration     4          0.603              1.952              3.530
 Vibration     5          0.614              1.915              2.821
 Vibration     6          0.630              1.863              2.301
 Vibration     7          0.649              1.803              1.920
 Vibration     8          0.653              1.793              1.866
 Vibration     9          0.669              1.744              1.656
 Vibration    10          0.680              1.709              1.530
 Vibration    11          0.733              1.559              1.132
 Vibration    12          0.758              1.492              1.001
 Vibration    13          0.776              1.443              0.918
 Vibration    14          0.831              1.308              0.727
 Vibration    15          0.878              1.199              0.602
 Vibration    16          0.903              1.144              0.548
 Vibration    17          0.980              0.990              0.417

                           ! Non-Optimized Parameters !

 1\1\GINC-NODE308\Freq\RB3LYP\6-31G(d)\C9H14O1\VSC10255\14-Dec-2020\0\\
 #N Geom=AllCheck Guess=TCheck SCRF=Check GenChk RB3LYP/6-31G(d) Freq\\
 CID_91999188_JID_900_neutraal\\0,1\C,1.0149278102,0.0335958605,-0.0835
 100585\C,0.4805171894,0.9376965386,-1.2083799951\C,1.0025328325,0.4698
 542683,-2.5786828488\C,-1.0227790849,0.9551940002,-1.2005865977\C,-1.7
 740323489,2.0541002412,-1.0270858901\C,-3.2373315818,2.1067228032,-1.0
 250763981\C,-3.8878831174,3.2739185904,-0.8831724285\C,-4.0017790328,0
 .8142584271,-1.2339523432\C,-3.8713225769,0.3248823061,-2.666780496\O,

 Normal termination of Gaussian 16 at Mon Dec 14 16:29:28 2020.

 ----------------------------------------------------------------------
 # B3LYP/6-311++G(d,p) empiricaldispersion=gd3bj scf=xqc pop=npa geom=c
 heck
 ----------------------------------------------------------------------

 -------------------------------------
 CID_91999188_JID_900_Energie_neutraal
 -------------------------------------
 Structure from the checkpoint file:  "JID_900.chk"
 Charge =  0 Multiplicity = 1

 SCF Done:  E(RB3LYP) =  -426.733619633     A.U. after   14 cycles
 Normal termination of Gaussian 16 at Mon Dec 14 16:30:52 2020.

 ----------------------------------------------------------------------
 # B3LYP/6-311++G(d,p) empiricaldispersion=gd3bj scf=xqc pop=npa geom=c
 heck
 ----------------------------------------------------------------------

 -----------------------------------
 CID_91999188_JID_900_Energie_kation
 -----------------------------------
 Structure from the checkpoint file:  "JID_900.chk"
 Charge =  1 Multiplicity = 2

 SCF Done:  E(UB3LYP) =  -426.425981262     A.U. after   22 cycles
 Normal termination of Gaussian 16 at Mon Dec 14 16:33:47 2020.
 Gaussian 16:  ES64L-G16RevA.03 25-Dec-2016

 ----------------------------------
 CID_91999188_JID_900_Energie_anion
 ----------------------------------
 Structure from the checkpoint file:  "JID_900.chk"
 Charge = -1 Multiplicity = 2

                         Standard orientation:
 ---------------------------------------------------------------------
 Center     Atomic      Atomic             Coordinates (Angstroms)
 Number     Number       Type             X           Y           Z
 ---------------------------------------------------------------------
      1          6           0       -3.046435   -0.380797    1.142446
      2          6           0       -2.244461   -0.387830   -0.170990
      3          6           0       -2.728599    0.730087   -1.111723
      4          6           0       -0.775115   -0.235291    0.108333
      5          6           0        0.164451   -1.133659   -0.226673
      6          6           0        1.602374   -1.010494    0.020764
      7          6           0        2.460247   -1.956676   -0.396962
      8          6           0        2.105414    0.236553    0.720977
      9          6           0        2.004356    1.452919   -0.184420
     10          8           0        1.399126    2.465649    0.085284
     11          1           0       -2.902876    0.564971    1.679543
     12          1           0       -2.730324   -1.194722    1.803375
     13          1           0       -4.118632   -0.493773    0.944152
     14          1           0       -2.404660   -1.354042   -0.669113
     15          1           0       -2.564979    1.715876   -0.659580
     16          1           0       -2.189092    0.705081   -2.064169
     17          1           0       -3.800391    0.627778   -1.318367
     18          1           0       -0.492624    0.692103    0.605597
     19          1           0       -0.144232   -2.048064   -0.734399
     20          1           0        3.529240   -1.880733   -0.221589
     21          1           0        2.112717   -2.842063   -0.922627
     22          1           0        1.551922    0.443702    1.642129
     23          1           0        3.165255    0.104413    0.974946
     24          1           0        2.542283    1.345407   -1.152683
 ---------------------------------------------------------------------

 SCF Done:  E(UB3LYP) =  -426.727811760     A.U. after   33 cycles
 SCF Done:  E(UB3LYP) =  -426.727811760     a.u. after    1 cycles

 The electronic state is 2-A.
 Alpha  occ. eigenvalues --  -18.96558 -10.09747 -10.05669 -10.04612 -10.04214
 Alpha  occ. eigenvalues --  -10.03729 -10.03393 -10.02663 -10.01887 -10.00872
 Alpha  occ. eigenvalues --   -0.89841  -0.69623  -0.67174  -0.59878  -0.56976
 Alpha  occ. eigenvalues --   -0.56916  -0.48717  -0.43800  -0.42899  -0.39310
 Alpha  occ. eigenvalues --   -0.35026  -0.34024  -0.32144  -0.29755  -0.29576
 Alpha  occ. eigenvalues --   -0.29229  -0.28954  -0.27215  -0.25652  -0.24690
 Alpha  occ. eigenvalues --   -0.23306  -0.22958  -0.22005  -0.21209  -0.18892
 Alpha  occ. eigenvalues --   -0.17222  -0.11157  -0.09106   0.05566
 Alpha virt. eigenvalues --    0.07403   0.09378   0.09865   0.10253   0.10857
 Alpha virt. eigenvalues --    0.11151   0.11477   0.11828   0.12754   0.13406
 Alpha virt. eigenvalues --    0.13911   0.14101   0.14660   0.15775   0.16567

  Beta  occ. eigenvalues --  -18.96330 -10.09487 -10.05683 -10.04594 -10.04165
  Beta  occ. eigenvalues --  -10.03758 -10.03267 -10.02664 -10.01660 -10.00617
  Beta  occ. eigenvalues --   -0.89384  -0.69395  -0.66918  -0.59663  -0.56873
  Beta  occ. eigenvalues --   -0.56517  -0.48436  -0.43200  -0.42615  -0.39026
  Beta  occ. eigenvalues --   -0.34886  -0.33887  -0.32070  -0.29488  -0.29391
  Beta  occ. eigenvalues --   -0.29030  -0.28650  -0.27166  -0.25085  -0.24532
  Beta  occ. eigenvalues --   -0.22981  -0.22742  -0.21586  -0.21143  -0.18599
  Beta  occ. eigenvalues --   -0.16372  -0.10907  -0.07743
  Beta virt. eigenvalues --    0.07824   0.09343   0.09541   0.10185   0.10806
  Beta virt. eigenvalues --    0.11106   0.11481   0.12064   0.12582   0.13290
  Beta virt. eigenvalues --    0.13450   0.14016   0.14029   0.14693   0.15751

 Mulliken charges and spin densities:
               1          2
     1  C    0.322366  -0.973720
     2  C   -0.685739   0.962699
     3  C   -0.554440  -0.104304
     4  C    0.748634  -0.301859
     5  C   -1.110547   0.111266
     6  C    0.732894   0.306500
     7  C   -0.391604  -0.059492
     8  C   -0.023032  -0.399829
     9  C   -0.269789   0.239294
    10  O   -0.307197   0.076326
    11  H   -0.032166   0.168616
    12  H   -0.025643   0.157989
    13  H   -0.399636   0.528388
    14  H    0.077930   0.054496
    15  H    0.146659  -0.000004
    16  H    0.126768   0.003520
    17  H    0.091334   0.027508
    18  H    0.227447  -0.078290
    19  H    0.058496   0.036202
    20  H    0.015475   0.065919
    21  H    0.095288  -0.012770
    22  H    0.039248   0.122257
    23  H    0.069411   0.083759
    24  H    0.047842  -0.014472
 Sum of Mulliken charges =  -1.00000   1.00000

 Dipole moment (field-independent basis, Debye):
    X=             -0.7093    Y=             -0.2948    Z=             -2.3032  Tot=              2.4279
 Quadrupole moment (field-independent basis, Debye-Ang):
   XX=           -107.4025   YY=            -92.6750   ZZ=            -79.8406
   XY=             -0.1531   XZ=              5.6316   YZ=              2.4746

 Summary of Natural Population Analysis:

                                       Natural Population
                Natural  -----------------------------------------------
    Atom  No    Charge         Core      Valence    Rydberg      Total
 -----------------------------------------------------------------------
      C    1   -0.27896      0.99965     2.27376    0.00555     3.27896
      C    2   -0.12773      0.99961     2.11900    0.00912     3.12773
      C    3   -0.27790      0.99965     2.27307    0.00518     3.27790
      C    4   -0.04448      0.99952     2.03455    0.01041     3.04448
      C    5   -0.11374      0.99948     2.10483    0.00943     3.11374
      C    6   -0.01035      0.99950     1.99943    0.01143     3.01035
      C    7   -0.15018      0.99952     2.14197    0.00869     3.15018
      C    8   -0.25000      0.99958     2.24063    0.00979     3.25000
      C    9    0.26422      0.99974     1.71466    0.02138     2.73578
      O   10   -0.27248      0.99988     3.26552    0.00708     4.27248
      H   11    0.09530      0.00000     0.40377    0.00093     0.40470
      H   12    0.10053      0.00000     0.39857    0.00090     0.39947
      H   13    0.09419      0.00000     0.40434    0.00147     0.40581
      H   14    0.08759      0.00000     0.41027    0.00213     0.41241
      H   15    0.09726      0.00000     0.40190    0.00084     0.40274
      H   16    0.09878      0.00000     0.40054    0.00068     0.40122
      H   17    0.09082      0.00000     0.40845    0.00073     0.40918
      H   18    0.09515      0.00000     0.40337    0.00148     0.40485
      H   19    0.08602      0.00000     0.41232    0.00166     0.41398
      H   20    0.08458      0.00000     0.41454    0.00089     0.41542
      H   21    0.08275      0.00000     0.41637    0.00089     0.41725
      H   22    0.10588      0.00000     0.39215    0.00197     0.39412
      H   23    0.10801      0.00000     0.39085    0.00114     0.39199
      H   24    0.03475      0.00000     0.46295    0.00230     0.46525
 =======================================================================
   * Total *   -0.00000      9.99612    27.88780    0.11608    38.00000

 Normal termination of Gaussian 16 at Mon Dec 14 16:38:08 2020.
