 Gaussian 16, Revision A.03,

 -----------------------------------------------------------
 # opt freq B3LYP/6-31G(d) empiricaldispersion=gd3bj scf=xqc
 -----------------------------------------------------------

 -------------------------------
 CID_103821996_JID_7739_neutraal
 -------------------------------
 Symbolic Z-matrix:
 Charge =  0 Multiplicity = 1

 SCF Done:  E(RB3LYP) =  -785.917833389     A.U. after   14 cycles
 SCF Done:  E(RB3LYP) =  -785.920248129     A.U. after   13 cycles
 SCF Done:  E(RB3LYP) =  -785.919905401     A.U. after   14 cycles
 SCF Done:  E(RB3LYP) =  -785.922483740     A.U. after   13 cycles
 SCF Done:  E(RB3LYP) =  -785.922283773     A.U. after   15 cycles
 SCF Done:  E(RB3LYP) =  -785.923453345     A.U. after   13 cycles
 SCF Done:  E(RB3LYP) =  -785.926129973     A.U. after   13 cycles
 SCF Done:  E(RB3LYP) =  -785.925254365     A.U. after   13 cycles
 SCF Done:  E(RB3LYP) =  -785.927519352     A.U. after   13 cycles
 SCF Done:  E(RB3LYP) =  -785.927979573     A.U. after   13 cycles
 SCF Done:  E(RB3LYP) =  -785.928428495     A.U. after    7 cycles
 SCF Done:  E(RB3LYP) =  -785.928428706     A.U. after    7 cycles
 SCF Done:  E(RB3LYP) =  -785.928428900     A.U. after    7 cycles
 SCF Done:  E(RB3LYP) =  -785.928429051     A.U. after    7 cycles
 SCF Done:  E(RB3LYP) =  -785.928429232     A.U. after    7 cycles
 Optimization completed.
    -- Stationary point found.
 Normal termination of Gaussian 16 at Fri Dec 11 13:32:05 2020.

 --------------------------------------------------------------------
 #N Geom=AllCheck Guess=TCheck SCRF=Check GenChk RB3LYP/6-31G(d) Freq
 --------------------------------------------------------------------

 Structure from the checkpoint file:  "JID_7739.chk"
 -------------------------------
 CID_103821996_JID_7739_neutraal
 -------------------------------
 Charge =  0 Multiplicity = 1

 SCF Done:  E(RB3LYP) =  -785.928429232     A.U. after    1 cycles

  Exact polarizability: 161.847   4.699 144.471   2.910  -5.675 133.275
 Approx polarizability: 208.583   7.813 221.263   5.599  -9.290 196.713

                      1                      2                      3
                      A                      A                      A
 Frequencies --     22.2439                28.6416                64.1928
 Red. masses --      4.4719                 4.1997                 4.0351
 Frc consts  --      0.0013                 0.0020                 0.0098
 IR Inten    --      3.5883                 5.4379                 0.1083

                      4                      5                      6
                      A                      A                      A
 Frequencies --     66.5983                75.8886               114.8113
 Red. masses --      3.9609                 6.7497                 3.3448
 Frc consts  --      0.0104                 0.0229                 0.0260
 IR Inten    --      0.9842                13.9721                 0.3448

                      7                      8                      9
                      A                      A                      A
 Frequencies --    157.9673               181.9525               200.3924
 Red. masses --      5.3920                 3.1958                 1.6324
 Frc consts  --      0.0793                 0.0623                 0.0386
 IR Inten    --      0.7072                 1.6524                 1.4792

                     10                     11                     12
                      A                      A                      A
 Frequencies --    213.8669               239.1290               250.3476
 Red. masses --      2.1103                 1.1047                 1.8181
 Frc consts  --      0.0569                 0.0372                 0.0671
 IR Inten    --      1.0108                 0.0526                 4.9210

                     13                     14                     15
                      A                      A                      A
 Frequencies --    263.4226               282.2093               289.3639
 Red. masses --      1.9619                 1.6413                 2.3738
 Frc consts  --      0.0802                 0.0770                 0.1171
 IR Inten    --      8.9623                50.3987                47.6549

                     16                     17                     18
                      A                      A                      A
 Frequencies --    320.9081               335.3430               342.9536
 Red. masses --      1.9413                 2.4352                 1.3974
 Frc consts  --      0.1178                 0.1613                 0.0968
 IR Inten    --     62.4169                 6.4401                77.2769

                     19                     20                     21
                      A                      A                      A
 Frequencies --    345.3427               380.2854               382.9978
 Red. masses --      2.8902                 2.5245                 3.5260
 Frc consts  --      0.2031                 0.2151                 0.3047
 IR Inten    --      7.3191                 2.4000                 3.5268

                     22                     23                     24
                      A                      A                      A
 Frequencies --    394.7304               413.8203               422.3808
 Red. masses --      2.0748                 2.0135                 2.2523
 Frc consts  --      0.1905                 0.2032                 0.2367
 IR Inten    --      0.6821                 4.6778                 1.9772

                     25                     26                     27
                      A                      A                      A
 Frequencies --    472.4772               481.3641               526.0391
 Red. masses --      3.2640                 2.9066                 1.9615
 Frc consts  --      0.4293                 0.3968                 0.3198
 IR Inten    --      8.6903                 2.9767                 9.1506

                     28                     29                     30
                      A                      A                      A
 Frequencies --    552.3636               558.5391               603.7287
 Red. masses --      2.5752                 3.0758                 1.4567
 Frc consts  --      0.4629                 0.5653                 0.3128
 IR Inten    --      4.7338                 3.9877                67.7411

                     31                     32                     33
                      A                      A                      A
 Frequencies --    628.6979               657.8899               708.2853
 Red. masses --      1.7596                 2.3458                 3.1408
 Frc consts  --      0.4098                 0.5982                 0.9283
 IR Inten    --     42.6780                38.3457                11.2766

                     34                     35                     36
                      A                      A                      A
 Frequencies --    718.1428               748.9312               785.4948
 Red. masses --      3.2784                 3.5105                 4.7582
 Frc consts  --      0.9962                 1.1601                 1.7297
 IR Inten    --      0.7385                34.2479                13.1710

                     37                     38                     39
                      A                      A                      A
 Frequencies --    787.5629               856.7776               873.8753
 Red. masses --      1.5856                 2.8905                 2.3032
 Frc consts  --      0.5794                 1.2502                 1.0363
 IR Inten    --     60.3168                 4.5677                 3.3955

                     40                     41                     42
                      A                      A                      A
 Frequencies --    893.2178               901.7552               928.1448
 Red. masses --      2.1098                 1.5373                 1.8145
 Frc consts  --      0.9918                 0.7365                 0.9210
 IR Inten    --      4.3419                 8.3251                 8.0411

                     43                     44                     45
                      A                      A                      A
 Frequencies --    932.0911               949.0527               963.5256
 Red. masses --      1.8999                 2.0411                 1.4723
 Frc consts  --      0.9725                 1.0832                 0.8053
 IR Inten    --     32.8988                 0.8527                 1.2264

                     46                     47                     48
                      A                      A                      A
 Frequencies --   1011.4964              1015.3309              1028.1536
 Red. masses --      1.6833                 1.5978                 1.8522
 Frc consts  --      1.0147                 0.9705                 1.1536
 IR Inten    --      1.7460                 2.1128                 0.4572

                     49                     50                     51
                      A                      A                      A
 Frequencies --   1038.5820              1055.2997              1076.7334
 Red. masses --      1.5273                 1.7874                 1.6592
 Frc consts  --      0.9707                 1.1728                 1.1333
 IR Inten    --      1.1675                 2.0842                 2.2170

                     52                     53                     54
                      A                      A                      A
 Frequencies --   1106.7269              1127.2305              1154.7997
 Red. masses --      1.8961                 2.4110                 2.9542
 Frc consts  --      1.3683                 1.8050                 2.3212
 IR Inten    --      9.7249                21.1142                21.0181

                     55                     56                     57
                      A                      A                      A
 Frequencies --   1174.7779              1181.9956              1198.7342
 Red. masses --      1.8235                 1.9129                 2.5537
 Frc consts  --      1.4827                 1.5746                 2.1620
 IR Inten    --      2.0895                 2.2868                 9.2159

                     58                     59                     60
                      A                      A                      A
 Frequencies --   1208.5499              1218.1823              1236.6881
 Red. masses --      2.7035                 2.0277                 1.3881
 Frc consts  --      2.3265                 1.7729                 1.2508
 IR Inten    --      2.1420                45.2410                27.9375

                     61                     62                     63
                      A                      A                      A
 Frequencies --   1252.2172              1261.8529              1306.3014
 Red. masses --      2.6350                 1.6223                 1.7731
 Frc consts  --      2.4344                 1.5220                 1.7827
 IR Inten    --     21.9544                 0.5369                90.6373

                     64                     65                     66
                      A                      A                      A
 Frequencies --   1330.3436              1342.8516              1361.3916
 Red. masses --      1.2568                 1.4399                 1.5179
 Frc consts  --      1.3105                 1.5298                 1.6575
 IR Inten    --      8.6947                 7.7898                79.4691

                     67                     68                     69
                      A                      A                      A
 Frequencies --   1369.4049              1381.4673              1387.8944
 Red. masses --      1.3874                 2.3961                 1.4709
 Frc consts  --      1.5329                 2.6942                 1.6694
 IR Inten    --     48.1645                82.3335                 6.2942

                     70                     71                     72
                      A                      A                      A
 Frequencies --   1397.3580              1409.9662              1422.7857
 Red. masses --      1.5884                 1.5802                 1.2290
 Frc consts  --      1.8274                 1.8509                 1.4658
 IR Inten    --     21.8447                43.2641                11.0414

                     73                     74                     75
                      A                      A                      A
 Frequencies --   1431.6730              1452.5496              1454.8310
 Red. masses --      1.2677                 1.3227                 1.3603
 Frc consts  --      1.5309                 1.6442                 1.6964
 IR Inten    --     13.2195                11.1641                18.6735

                     76                     77                     78
                      A                      A                      A
 Frequencies --   1498.2970              1502.9448              1509.1698
 Red. masses --      1.2981                 1.4060                 1.0781
 Frc consts  --      1.7169                 1.8713                 1.4468
 IR Inten    --      0.4673                26.7351                 2.7612

                     79                     80                     81
                      A                      A                      A
 Frequencies --   1514.3412              1516.5224              1522.0804
 Red. masses --      1.0777                 1.0652                 1.0902
 Frc consts  --      1.4561                 1.4433                 1.4881
 IR Inten    --      1.7118                 5.2310                17.0988

                     82                     83                     84
                      A                      A                      A
 Frequencies --   1526.9592              1531.0621              1535.0587
 Red. masses --      1.1011                 1.0932                 1.0591
 Frc consts  --      1.5127                 1.5098                 1.4704
 IR Inten    --      0.7986                 9.8303                 9.2883

                     85                     86                     87
                      A                      A                      A
 Frequencies --   1536.6578              1538.9241              1549.3685
 Red. masses --      1.0767                 1.0785                 1.0985
 Frc consts  --      1.4980                 1.5048                 1.5537
 IR Inten    --      5.7328                 3.0546                 1.8834

                     88                     89                     90
                      A                      A                      A
 Frequencies --   1557.1399              1648.5115              1758.5800
 Red. masses --      1.0733                 1.2650                 7.1866
 Frc consts  --      1.5333                 2.0255                13.0947
 IR Inten    --     22.5126                95.0042               305.4202

                     91                     92                     93
                      A                      A                      A
 Frequencies --   1782.3167              2906.0443              3003.5119
 Red. masses --      8.0805                 1.0734                 1.0746
 Frc consts  --     15.1238                 5.3408                 5.7115
 IR Inten    --    260.3485                84.3252                43.0389

                     94                     95                     96
                      A                      A                      A
 Frequencies --   3045.3714              3045.8172              3052.6143
 Red. masses --      1.0379                 1.0580                 1.0641
 Frc consts  --      5.6711                 5.7827                 5.8419
 IR Inten    --     24.8735                22.8750                18.1668

                     97                     98                     99
                      A                      A                      A
 Frequencies --   3056.9596              3063.0919              3079.6911
 Red. masses --      1.0370                 1.0646                 1.0408
 Frc consts  --      5.7098                 5.8850                 5.8159
 IR Inten    --     23.2879                42.8218                16.7296

                    100                    101                    102
                      A                      A                      A
 Frequencies --   3081.6587              3085.9477              3095.1195
 Red. masses --      1.0876                 1.1004                 1.0990
 Frc consts  --      6.0854                 6.1741                 6.2028
 IR Inten    --     64.9716                25.2906                 4.8934

                    103                    104                    105
                      A                      A                      A
 Frequencies --   3106.7606              3115.2751              3118.4299
 Red. masses --      1.0996                 1.0978                 1.1029
 Frc consts  --      6.2531                 6.2773                 6.3189
 IR Inten    --     34.2594                66.6761                 3.7343

                    106                    107                    108
                      A                      A                      A
 Frequencies --   3123.7579              3146.6919              3153.9575
 Red. masses --      1.1021                 1.1018                 1.1010
 Frc consts  --      6.3361                 6.4279                 6.4529
 IR Inten    --     39.6178                22.0548                10.6249

                    109                    110                    111
                      A                      A                      A
 Frequencies --   3168.3038              3198.6103              3504.3965
 Red. masses --      1.1024                 1.0875                 1.0747
 Frc consts  --      6.5198                 6.5554                 7.7760
 IR Inten    --     15.2735                 3.2812                 0.7456

                    112                    113                    114
                      A                      A                      A
 Frequencies --   3577.4823              3595.8712              3723.9802
 Red. masses --      1.0739                 1.0466                 1.1024
 Frc consts  --      8.0978                 7.9736                 9.0078
 IR Inten    --      8.8232                31.3519                32.1451

 - Thermochemistry -
 -------------------
 Temperature   298.150 Kelvin.  Pressure   1.00000 Atm.
 Atom     1 has atomic number  6 and mass  12.00000

 Molecular mass:   241.17903 amu.
 Principal axes and moments of inertia in atomic units:
                           1         2         3
     Eigenvalues --  2561.818215763.310596454.47880
           X            0.99988   0.01260   0.00863
           Y           -0.01222   0.99901  -0.04267
           Z           -0.00916   0.04256   0.99905
 This molecule is an asymmetric top.
 Rotational symmetry number  1.
 Warning -- assumption of classical behavior for rotation
           may cause significant error
 Rotational temperatures (Kelvin)      0.03381     0.01503     0.01342
 Rotational constants (GHZ):           0.70448     0.31314     0.27961
 Zero-point vibrational energy     937819.6 (Joules/Mol)
                                  224.14427 (Kcal/Mol)
 Warning -- explicit consideration of  30 degrees of freedom as
           vibrations may cause significant error
 Vibrational temperatures:     32.00    41.21    92.36    95.82   109.19
          (Kelvin)            165.19   227.28   261.79   288.32   307.71
                              344.05   360.19   379.01   406.04   416.33
                              461.72   482.48   493.43   496.87   547.15
                              551.05   567.93   595.40   607.71   679.79
                              692.58   756.85   794.73   803.61   868.63
                              904.56   946.56  1019.06  1033.25  1077.55
                             1130.15  1133.13  1232.71  1257.31  1285.14
                             1297.42  1335.39  1341.07  1365.48  1386.30
                             1455.32  1460.83  1479.28  1494.29  1518.34
                             1549.18  1592.33  1621.83  1661.50  1690.24
                             1700.63  1724.71  1738.83  1752.69  1779.32
                             1801.66  1815.52  1879.48  1914.07  1932.06
                             1958.74  1970.27  1987.62  1996.87  2010.49
                             2028.63  2047.07  2059.86  2089.89  2093.18
                             2155.72  2162.40  2171.36  2178.80  2181.94
                             2189.93  2196.95  2202.86  2208.61  2210.91
                             2214.17  2229.20  2240.38  2371.84  2530.20
                             2564.36  4181.15  4321.38  4381.61  4382.25
                             4392.03  4398.28  4407.11  4430.99  4433.82
                             4439.99  4453.19  4469.94  4482.19  4486.73
                             4494.39  4527.39  4537.84  4558.48  4602.09
                             5042.04  5147.20  5173.66  5357.98

 Zero-point correction=                           0.357197 (Hartree/Particle)
 Thermal correction to Energy=                    0.375548
 Thermal correction to Enthalpy=                  0.376492
 Thermal correction to Gibbs Free Energy=         0.310760
 Sum of electronic and zero-point Energies=           -785.571233
 Sum of electronic and thermal Energies=              -785.552881
 Sum of electronic and thermal Enthalpies=            -785.551937
 Sum of electronic and thermal Free Energies=         -785.617669

                     E (Thermal)             CV                S
                      KCal/Mol        Cal/Mol-Kelvin    Cal/Mol-Kelvin
 Total                  235.660             70.981            138.344
 Electronic               0.000              0.000              0.000
 Translational            0.889              2.981             42.342
 Rotational               0.889              2.981             32.921
 Vibrational            233.882             65.019             63.080
 Vibration     1          0.593              1.985              6.423
 Vibration     2          0.593              1.984              5.921
 Vibration     3          0.597              1.971              4.324
 Vibration     4          0.598              1.970              4.251
 Vibration     5          0.599              1.965              3.994
 Vibration     6          0.608              1.937              3.186
 Vibration     7          0.621              1.894              2.574
 Vibration     8          0.630              1.864              2.308
 Vibration     9          0.638              1.839              2.129
 Vibration    10          0.644              1.820              2.010
 Vibration    11          0.657              1.781              1.809
 Vibration    12          0.663              1.762              1.728
 Vibration    13          0.670              1.740              1.639
 Vibration    14          0.681              1.707              1.520
 Vibration    15          0.686              1.694              1.478
 Vibration    16          0.706              1.634              1.305
 Vibration    17          0.716              1.605              1.234
 Vibration    18          0.722              1.590              1.198
 Vibration    19          0.724              1.585              1.187
 Vibration    20          0.750              1.512              1.038
 Vibration    21          0.752              1.506              1.027
 Vibration    22          0.762              1.481              0.982
 Vibration    23          0.777              1.440              0.913
 Vibration    24          0.785              1.422              0.884
 Vibration    25          0.829              1.311              0.731
 Vibration    26          0.838              1.291              0.706
 Vibration    27          0.881              1.192              0.596
 Vibration    28          0.908              1.135              0.539
 Vibration    29          0.914              1.121              0.527
 Vibration    30          0.962              1.024              0.443

 Optimization completed.
    -- Stationary point found.
 Normal termination of Gaussian 16 at Fri Dec 11 13:50:55 2020.

 ----------------------------------------------------------------------
 # B3LYP/6-311++G(d,p) empiricaldispersion=gd3bj scf=xqc pop=npa geom=c
 heck
 ----------------------------------------------------------------------

 ---------------------------------------
 CID_103821996_JID_7739_Energie_neutraal
 ---------------------------------------
 Structure from the checkpoint file:  "JID_7739.chk"
 Charge =  0 Multiplicity = 1

 SCF Done:  E(RB3LYP) =  -786.166940654     A.U. after   15 cycles
 Normal termination of Gaussian 16 at Fri Dec 11 14:00:34 2020.

 ----------------------------------------------------------------------
 # B3LYP/6-311++G(d,p) empiricaldispersion=gd3bj scf=xqc pop=npa geom=c
 heck
 ----------------------------------------------------------------------

 -------------------------------------
 CID_103821996_JID_7739_Energie_kation
 -------------------------------------
 Structure from the checkpoint file:  "JID_7739.chk"
 Charge =  1 Multiplicity = 2

 SCF Done:  E(UB3LYP) =  -785.869207684     A.U. after   30 cycles
 Normal termination of Gaussian 16 at Fri Dec 11 14:27:38 2020.
 Gaussian 16:  ES64L-G16RevA.03 25-Dec-2016

 ----------------------------------------------------------------------
 # B3LYP/6-311++G(d,p) empiricaldispersion=gd3bj scf=xqc pop=npa geom=c
 heck
 ----------------------------------------------------------------------

 ------------------------------------
 CID_103821996_JID_7739_Energie_anion
 ------------------------------------
 Structure from the checkpoint file:  "JID_7739.chk"
 Charge = -1 Multiplicity = 2

                         Standard orientation:
 ---------------------------------------------------------------------
 Center     Atomic      Atomic             Coordinates (Angstroms)
 Number     Number       Type             X           Y           Z
 ---------------------------------------------------------------------
      1          6           0       -3.035765    1.481273   -0.614522
      2          6           0       -1.822380    0.700996   -0.080185
      3          6           0       -2.170781    0.083639    1.304260
      4          6           0       -3.182280   -1.066408    1.188972
      5          6           0       -2.724498   -2.084065    0.142432
      6          7           0       -2.557117   -1.405610   -1.141770
      7          6           0       -1.470192   -0.423621   -1.089775
      8          6           0       -0.652768    1.696916    0.055429
      9          8           0       -0.793596    2.884031   -0.222079
     10          7           0        0.601469    1.290708    0.476115
     11          6           0        1.118881    0.072794    1.076386
     12          6           0        2.541016   -0.274916    0.571575
     13          6           0        3.537265    0.844709    0.910103
     14          6           0        2.984646   -1.576517    1.265577
     15          6           0        2.413048   -0.582334   -0.935506
     16          8           0        1.718012   -1.514169   -1.325043
     17          7           0        3.122744    0.191348   -1.804651
     18          1           0       -3.853685    0.791771   -0.828780
     19          1           0       -2.773564    2.008129   -1.534971
     20          1           0       -3.367186    2.231951    0.108227
     21          1           0       -1.272090   -0.304459    1.792770
     22          1           0       -2.559860    0.873836    1.957652
     23          1           0       -4.166872   -0.682838    0.901417
     24          1           0       -3.295359   -1.556065    2.164031
     25          1           0       -3.474382   -2.874436    0.025992
     26          1           0       -1.788496   -2.566850    0.492706
     27          1           0       -2.345228   -2.087825   -1.866006
     28          1           0       -1.358651    0.022264   -2.084788
     29          1           0       -0.509772   -0.896759   -0.847001
     30          1           0        1.186296    2.111026    0.585206
     31          1           0        1.153542    0.160373    2.173554
     32          1           0        0.468911   -0.761923    0.831060
     33          1           0        3.576003    0.992994    1.994895
     34          1           0        4.548134    0.586736    0.577064
     35          1           0        3.270701    1.809168    0.461118
     36          1           0        2.315139   -2.396335    0.995470
     37          1           0        4.000545   -1.851480    0.962376
     38          1           0        2.977563   -1.450571    2.354132
     39          1           0        3.544964    1.062578   -1.526336
     40          1           0        2.941193    0.049895   -2.789158
 ---------------------------------------------------------------------

 SCF Done:  E(UB3LYP) =  -786.159680933     A.U. after   33 cycles
 SCF Done:  E(UB3LYP) =  -786.159680933     a.u. after    1 cycles

 The electronic state is 2-A.
 Alpha  occ. eigenvalues --  -18.99466 -18.99094 -14.23897 -14.23695 -14.21020
 Alpha  occ. eigenvalues --  -10.18008 -10.17800 -10.11872 -10.10627 -10.10621
 Alpha  occ. eigenvalues --  -10.10138 -10.09837 -10.08371 -10.08204 -10.07180
 Alpha  occ. eigenvalues --  -10.07013 -10.05876  -0.94656  -0.94368  -0.82882
 Alpha  occ. eigenvalues --   -0.82439  -0.81063  -0.72514  -0.71691  -0.67953
 Alpha  occ. eigenvalues --   -0.60946  -0.60040  -0.59282  -0.55554  -0.54705
 Alpha  occ. eigenvalues --   -0.54200  -0.48535  -0.47169  -0.45056  -0.44344
 Alpha  occ. eigenvalues --   -0.43048  -0.40657  -0.38415  -0.37865  -0.37184
 Alpha  occ. eigenvalues --   -0.36299  -0.35588  -0.35127  -0.33897  -0.33301
 Alpha  occ. eigenvalues --   -0.32516  -0.32104  -0.31332  -0.30790  -0.29738
 Alpha  occ. eigenvalues --   -0.29484  -0.28391  -0.28270  -0.27464  -0.27269
 Alpha  occ. eigenvalues --   -0.25831  -0.25643  -0.25302  -0.24022  -0.23430
 Alpha  occ. eigenvalues --   -0.22308  -0.18260  -0.16675  -0.16232  -0.15650
 Alpha  occ. eigenvalues --   -0.14076   0.03920
 Alpha virt. eigenvalues --    0.05692   0.06556   0.07587   0.08062   0.08213
 Alpha virt. eigenvalues --    0.08553   0.09485   0.09749   0.10011   0.10303
 Alpha virt. eigenvalues --    0.10497   0.11160   0.11256   0.11447   0.12149

  Beta  occ. eigenvalues --  -18.99458 -18.99089 -14.23886 -14.23632 -14.21014
  Beta  occ. eigenvalues --  -10.18005 -10.17796 -10.11855 -10.10616 -10.10616
  Beta  occ. eigenvalues --  -10.10137 -10.09833 -10.08363 -10.08197 -10.07112
  Beta  occ. eigenvalues --  -10.06986 -10.05874  -0.94641  -0.94357  -0.82868
  Beta  occ. eigenvalues --   -0.82423  -0.80981  -0.72487  -0.71675  -0.67938
  Beta  occ. eigenvalues --   -0.60880  -0.59973  -0.59268  -0.55534  -0.54678
  Beta  occ. eigenvalues --   -0.54127  -0.48504  -0.47068  -0.45035  -0.44290
  Beta  occ. eigenvalues --   -0.43018  -0.40606  -0.38380  -0.37829  -0.37153
  Beta  occ. eigenvalues --   -0.36285  -0.35573  -0.35104  -0.33873  -0.33276
  Beta  occ. eigenvalues --   -0.32495  -0.32076  -0.31298  -0.30761  -0.29709
  Beta  occ. eigenvalues --   -0.29444  -0.28380  -0.28239  -0.27433  -0.27251
  Beta  occ. eigenvalues --   -0.25797  -0.25629  -0.25263  -0.24001  -0.23415
  Beta  occ. eigenvalues --   -0.22294  -0.18210  -0.16643  -0.16213  -0.15634
  Beta  occ. eigenvalues --   -0.14056
  Beta virt. eigenvalues --    0.05828   0.06879   0.07306   0.07724   0.08462
  Beta virt. eigenvalues --    0.08719   0.08849   0.09696   0.10093   0.10205
  Beta virt. eigenvalues --    0.10608   0.10662   0.11299   0.11476   0.11984

 Mulliken charges and spin densities:
               1          2
     1  C   -0.425616  -0.177997
     2  C    0.670484  -0.043789
     3  C   -0.101854  -0.054706
     4  C   -0.042603  -0.474719
     5  C   -0.125574  -0.140653
     6  N   -0.156152   0.035583
     7  C   -0.689637  -0.008131
     8  C   -0.126130  -0.013905
     9  O   -0.286687  -0.001357
    10  N   -0.138904   0.052210
    11  C   -1.002506   0.240683
    12  C   -1.019313   1.948364
    13  C    2.448973  -2.975755
    14  C    0.792135  -1.240752
    15  C   -0.154436  -0.500186
    16  O   -0.262654  -0.008939
    17  N   -0.365753   0.152079
    18  H    0.172182  -0.030739
    19  H    0.155609   0.011674
    20  H    0.118110   0.045687
    21  H   -0.129704   0.277093
    22  H    0.078009   0.103542
    23  H    0.145849  -0.017799
    24  H   -0.083922   0.249007
    25  H   -0.021041   0.205407
    26  H   -0.019591   0.130259
    27  H    0.163856   0.079617
    28  H    0.167574   0.029731
    29  H    0.371126  -0.190089
    30  H    0.250794   0.092754
    31  H   -0.281201   0.484587
    32  H    0.658790  -0.532603
    33  H   -0.254244   0.426406
    34  H   -0.502325   0.696672
    35  H   -0.306883   0.424091
    36  H    0.033639   0.127362
    37  H   -0.162867   0.328368
    38  H   -0.071762   0.222757
    39  H   -0.384062   0.649357
    40  H   -0.111709   0.398829
 Sum of Mulliken charges =  -1.00000   1.00000

 Dipole moment (field-independent basis, Debye):
    X=             -7.4464    Y=             -2.9396    Z=              0.2607  Tot=              8.0099
 Quadrupole moment (field-independent basis, Debye-Ang):
   XX=           -186.5371   YY=           -154.7334   ZZ=           -145.5416
   XY=             -6.6501   XZ=              1.4805   YZ=              3.3743

 Summary of Natural Population Analysis:

                                       Natural Population
                Natural  -----------------------------------------------
    Atom  No    Charge         Core      Valence    Rydberg      Total
 -----------------------------------------------------------------------
      C    1   -0.28614      0.99964     2.27954    0.00696     3.28614
      C    2   -0.07569      0.99953     2.06643    0.00973     3.07569
      C    3   -0.18888      0.99959     2.17968    0.00960     3.18888
      C    4   -0.19385      0.99963     2.18568    0.00854     3.19385
      C    5   -0.08876      0.99963     2.07831    0.01082     3.08876
      N    6   -0.34332      0.99974     2.83323    0.01034     3.84332
      C    7   -0.09194      0.99957     2.08035    0.01202     3.09194
      C    8    0.35424      0.99961     1.62171    0.02445     2.64576
      O    9   -0.32300      0.99988     3.31780    0.00532     4.32300
      N   10   -0.32262      0.99966     2.81318    0.00978     3.82262
      C   11   -0.08713      0.99955     2.07549    0.01210     3.08713
      C   12   -0.08045      0.99953     2.06643    0.01449     3.08045
      C   13   -0.29744      0.99963     2.28947    0.00834     3.29744
      C   14   -0.28114      0.99963     2.27449    0.00702     3.28114
      C   15    0.34869      0.99962     1.62641    0.02528     2.65131
      O   16   -0.33298      0.99987     3.32694    0.00616     4.33298
      N   17   -0.39358      0.99969     2.88522    0.00867     3.89358
      H   18    0.10362      0.00000     0.39531    0.00108     0.39638
      H   19    0.10663      0.00000     0.39257    0.00080     0.39337
      H   20    0.10103      0.00000     0.39823    0.00074     0.39897
      H   21    0.10033      0.00000     0.39807    0.00159     0.39967
      H   22    0.10143      0.00000     0.39764    0.00093     0.39857
      H   23    0.09651      0.00000     0.40241    0.00108     0.40349
      H   24    0.09973      0.00000     0.39937    0.00090     0.40027
      H   25    0.09356      0.00000     0.40553    0.00091     0.40644
      H   26    0.07904      0.00000     0.41937    0.00159     0.42096
      H   27    0.17556      0.00000     0.32231    0.00214     0.32444
      H   28    0.09827      0.00000     0.40076    0.00098     0.40173
      H   29    0.09995      0.00000     0.39814    0.00191     0.40005
      H   30    0.19474      0.00000     0.30250    0.00276     0.30526
      H   31    0.09426      0.00000     0.40428    0.00146     0.40574
      H   32    0.10870      0.00000     0.38872    0.00258     0.39130
      H   33    0.10754      0.00000     0.39063    0.00182     0.39246
      H   34    0.11046      0.00000     0.38722    0.00232     0.38954
      H   35    0.09970      0.00000     0.39767    0.00263     0.40030
      H   36    0.10947      0.00000     0.38940    0.00113     0.39053
      H   37    0.10401      0.00000     0.39502    0.00097     0.39599
      H   38    0.10064      0.00000     0.39825    0.00111     0.39936
      H   39    0.20273      0.00000     0.29051    0.00676     0.29727
      H   40    0.19606      0.00000     0.30159    0.00235     0.30394
 =======================================================================
   * Total *    0.00000     16.99401    48.77580    0.23018    66.00000

 Normal termination of Gaussian 16 at Fri Dec 11 14:57:10 2020.
