 Gaussian 16, Revision A.03,

 -----------------------------------------------------------
 # opt freq B3LYP/6-31G(d) empiricaldispersion=gd3bj scf=xqc
 -----------------------------------------------------------

 -------------------------------
 CID_106628381_JID_9857_neutraal
 -------------------------------
 Symbolic Z-matrix:
 Charge =  0 Multiplicity = 1

 SCF Done:  E(RB3LYP) =  -825.012597846     A.U. after   15 cycles
 SCF Done:  E(RB3LYP) =  -825.017538333     A.U. after   12 cycles
 SCF Done:  E(RB3LYP) =  -825.018299339     A.U. after   12 cycles
 SCF Done:  E(RB3LYP) =  -825.018151402     A.U. after   12 cycles
 SCF Done:  E(RB3LYP) =  -825.018499230     A.U. after   11 cycles
 SCF Done:  E(RB3LYP) =  -825.018546825     A.U. after   12 cycles
 SCF Done:  E(RB3LYP) =  -825.018562264     A.U. after   12 cycles
 SCF Done:  E(RB3LYP) =  -825.018584013     A.U. after   10 cycles
 SCF Done:  E(RB3LYP) =  -825.018590578     A.U. after    9 cycles
 SCF Done:  E(RB3LYP) =  -825.018593519     A.U. after    9 cycles
 SCF Done:  E(RB3LYP) =  -825.018593861     A.U. after    8 cycles
 SCF Done:  E(RB3LYP) =  -825.018593968     A.U. after    8 cycles
 Optimization completed.
    -- Stationary point found.
 Normal termination of Gaussian 16 at Sun Dec 13 16:18:20 2020.

 --------------------------------------------------------------------
 #N Geom=AllCheck Guess=TCheck SCRF=Check GenChk RB3LYP/6-31G(d) Freq
 --------------------------------------------------------------------

 Structure from the checkpoint file:  "JID_9857.chk"
 -------------------------------
 CID_106628381_JID_9857_neutraal
 -------------------------------
 Charge =  0 Multiplicity = 1

 SCF Done:  E(RB3LYP) =  -825.018593968     A.U. after    1 cycles

  Exact polarizability: 188.945  26.163 174.457  -6.925  10.793 154.882
 Approx polarizability: 252.437  41.503 249.673 -24.287  26.203 264.728

                      1                      2                      3
                      A                      A                      A
 Frequencies --     26.3625                30.9887                37.9109
 Red. masses --      4.0214                 3.6896                 4.8464
 Frc consts  --      0.0016                 0.0021                 0.0041
 IR Inten    --      0.5293                 0.3209                 1.6516

                      4                      5                      6
                      A                      A                      A
 Frequencies --     44.6693                52.6631                83.3956
 Red. masses --      3.2781                 3.6478                 5.8605
 Frc consts  --      0.0039                 0.0060                 0.0240
 IR Inten    --      0.1916                 1.1178                 3.4915

                      7                      8                      9
                      A                      A                      A
 Frequencies --    112.0394               121.7505               151.8043
 Red. masses --      2.6984                 2.6450                 4.2039
 Frc consts  --      0.0200                 0.0231                 0.0571
 IR Inten    --      0.9916                 0.4038                 2.0970

                     10                     11                     12
                      A                      A                      A
 Frequencies --    181.3707               209.4324               220.7701
 Red. masses --      3.0717                 2.6522                 2.4677
 Frc consts  --      0.0595                 0.0685                 0.0709
 IR Inten    --      0.8272                 0.8610                 2.1712

                     13                     14                     15
                      A                      A                      A
 Frequencies --    261.0224               298.3173               318.8960
 Red. masses --      1.5710                 2.1389                 3.5885
 Frc consts  --      0.0631                 0.1121                 0.2150
 IR Inten    --      3.1624                 0.2503                 0.7772

                     16                     17                     18
                      A                      A                      A
 Frequencies --    328.0489               353.5113               390.3989
 Red. masses --      3.2671                 2.9334                 2.7409
 Frc consts  --      0.2072                 0.2160                 0.2461
 IR Inten    --      0.0394                 4.9793                 3.3172

                     19                     20                     21
                      A                      A                      A
 Frequencies --    402.8071               419.0918               429.5633
 Red. masses --      3.3764                 3.9494                 2.0546
 Frc consts  --      0.3228                 0.4087                 0.2234
 IR Inten    --      6.9561                 4.0359                 4.6080

                     22                     23                     24
                      A                      A                      A
 Frequencies --    445.1704               466.8681               494.5923
 Red. masses --      2.1417                 2.9450                 2.3024
 Frc consts  --      0.2501                 0.3782                 0.3318
 IR Inten    --      5.5126                10.2857                 3.7389

                     25                     26                     27
                      A                      A                      A
 Frequencies --    544.1350               570.6016               632.5695
 Red. masses --      3.2243                 3.0395                 2.1960
 Frc consts  --      0.5625                 0.5831                 0.5177
 IR Inten    --      3.6413                10.2543                22.4964

                     28                     29                     30
                      A                      A                      A
 Frequencies --    637.7737               689.6108               720.0740
 Red. masses --      6.5567                 4.6524                 4.7317
 Frc consts  --      1.5713                 1.3036                 1.4455
 IR Inten    --      3.6002                17.3235                26.4687

                     31                     32                     33
                      A                      A                      A
 Frequencies --    761.1694               767.3895               785.2642
 Red. masses --      1.9269                 2.4415                 1.9987
 Frc consts  --      0.6578                 0.8471                 0.7262
 IR Inten    --     23.3793                 6.4461                29.9129

                     34                     35                     36
                      A                      A                      A
 Frequencies --    794.3237               799.9155               829.7467
 Red. masses --      1.6379                 2.2230                 2.9314
 Frc consts  --      0.6089                 0.8381                 1.1891
 IR Inten    --      3.8941                24.5620                11.9760

                     37                     38                     39
                      A                      A                      A
 Frequencies --    870.7545               872.7084               886.2172
 Red. masses --      2.7433                 2.5494                 1.8907
 Frc consts  --      1.2255                 1.1440                 0.8749
 IR Inten    --      0.8807                 3.8477                 7.5787

                     40                     41                     42
                      A                      A                      A
 Frequencies --    898.5725               906.6360               919.7210
 Red. masses --      1.6204                 1.7974                 1.3393
 Frc consts  --      0.7709                 0.8705                 0.6675
 IR Inten    --      3.4228                12.3856                 1.4370

                     43                     44                     45
                      A                      A                      A
 Frequencies --    945.1739               957.6646               976.6705
 Red. masses --      1.6515                 1.7412                 1.4841
 Frc consts  --      0.8693                 0.9409                 0.8341
 IR Inten    --      7.4026                15.7215                 1.8918

                     46                     47                     48
                      A                      A                      A
 Frequencies --    982.4809              1010.0759              1018.9441
 Red. masses --      1.9454                 1.2986                 7.1181
 Frc consts  --      1.1064                 0.7806                 4.3543
 IR Inten    --      5.6678                 0.2062                 8.7887

                     49                     50                     51
                      A                      A                      A
 Frequencies --   1029.8870              1056.4595              1062.4798
 Red. masses --      1.6416                 2.2444                 2.1143
 Frc consts  --      1.0259                 1.4759                 1.4062
 IR Inten    --      1.4227                 2.8614                 5.9103

                     52                     53                     54
                      A                      A                      A
 Frequencies --   1076.0306              1078.4239              1111.0291
 Red. masses --      1.9033                 2.2372                 1.6658
 Frc consts  --      1.2984                 1.5330                 1.2115
 IR Inten    --      7.3033                 7.9337                10.9277

                     55                     56                     57
                      A                      A                      A
 Frequencies --   1118.5694              1125.7429              1137.3259
 Red. masses --      1.8982                 1.5380                 1.9622
 Frc consts  --      1.3993                 1.1484                 1.4954
 IR Inten    --      5.7281                 8.7043                32.4851

                     58                     59                     60
                      A                      A                      A
 Frequencies --   1153.0924              1165.3980              1184.8735
 Red. masses --      2.5274                 1.9386                 1.1198
 Frc consts  --      1.9800                 1.5513                 0.9263
 IR Inten    --     21.3729                34.6528                 1.5221

                     61                     62                     63
                      A                      A                      A
 Frequencies --   1197.7933              1199.2241              1227.8949
 Red. masses --      1.3133                 1.8985                 1.5389
 Frc consts  --      1.1102                 1.6086                 1.3671
 IR Inten    --      2.4306                35.3599                 5.7402

                     64                     65                     66
                      A                      A                      A
 Frequencies --   1243.0488              1288.8566              1307.5645
 Red. masses --      2.2689                 1.6282                 1.3272
 Frc consts  --      2.0656                 1.5936                 1.3369
 IR Inten    --     10.0955                13.9512                24.3239

                     67                     68                     69
                      A                      A                      A
 Frequencies --   1312.6962              1321.9976              1325.1236
 Red. masses --      1.5879                 1.4940                 1.3598
 Frc consts  --      1.6121                 1.5384                 1.4068
 IR Inten    --     13.3475                 0.6849                 2.3602

                     70                     71                     72
                      A                      A                      A
 Frequencies --   1326.9247              1333.2590              1342.3822
 Red. masses --      2.0912                 1.5609                 1.5028
 Frc consts  --      2.1694                 1.6347                 1.5956
 IR Inten    --     18.4762                18.1362                28.8463

                     73                     74                     75
                      A                      A                      A
 Frequencies --   1367.3594              1383.5382              1393.0405
 Red. masses --      1.3370                 1.3198                 1.5087
 Frc consts  --      1.4728                 1.4885                 1.7250
 IR Inten    --     22.4018                 9.4770                19.3047

                     76                     77                     78
                      A                      A                      A
 Frequencies --   1396.5530              1408.5994              1417.7501
 Red. masses --      1.3909                 1.3759                 1.3686
 Frc consts  --      1.5983                 1.6085                 1.6208
 IR Inten    --     12.0552                 3.8625                 5.9582

                     79                     80                     81
                      A                      A                      A
 Frequencies --   1423.8884              1445.5858              1446.7635
 Red. masses --      1.4736                 1.3017                 1.4240
 Frc consts  --      1.7602                 1.6027                 1.7561
 IR Inten    --     11.8644                 5.7698                 6.5455

                     82                     83                     84
                      A                      A                      A
 Frequencies --   1463.6710              1482.6388              1499.0055
 Red. masses --      1.9783                 2.1326                 1.2770
 Frc consts  --      2.4970                 2.7621                 1.6906
 IR Inten    --     98.2926                31.0621                 0.6997

                     85                     86                     87
                      A                      A                      A
 Frequencies --   1509.6956              1511.9957              1515.5744
 Red. masses --      1.0868                 1.1088                 1.0785
 Frc consts  --      1.4594                 1.4935                 1.4596
 IR Inten    --     10.4363                 3.3800                 1.1270

                     88                     89                     90
                      A                      A                      A
 Frequencies --   1521.3152              1523.0298              1525.8604
 Red. masses --      1.3550                 1.5893                 1.1339
 Frc consts  --      1.8477                 2.1720                 1.5555
 IR Inten    --      3.5629                 9.6170                 3.4561

                     91                     92                     93
                      A                      A                      A
 Frequencies --   1528.1606              1538.2227              1540.0551
 Red. masses --      1.0605                 1.1149                 1.0633
 Frc consts  --      1.4592                 1.5543                 1.4859
 IR Inten    --      8.7767                17.5786                11.5633

                     94                     95                     96
                      A                      A                      A
 Frequencies --   1546.0846              1627.9004              1647.4928
 Red. masses --      1.2074                 5.9738                 5.4322
 Frc consts  --      1.7005                 9.3273                 8.6871
 IR Inten    --     55.0200                23.7551                21.6466

                     97                     98                     99
                      A                      A                      A
 Frequencies --   1721.7539              2913.9071              2924.7509
 Red. masses --     10.0657                 1.0739                 1.0730
 Frc consts  --     17.5808                 5.3725                 5.4078
 IR Inten    --    259.3607                58.3357               115.7740

                    100                    101                    102
                      A                      A                      A
 Frequencies --   3032.7439              3033.0736              3051.5143
 Red. masses --      1.0672                 1.0616                 1.0612
 Frc consts  --      5.7829                 5.7539                 5.8219
 IR Inten    --     15.0615                35.5811                18.8151

                    103                    104                    105
                      A                      A                      A
 Frequencies --   3055.3419              3063.0149              3063.8247
 Red. masses --      1.0356                 1.0840                 1.0943
 Frc consts  --      5.6956                 5.9920                 6.0524
 IR Inten    --     24.8380                33.4518                22.0119

                    106                    107                    108
                      A                      A                      A
 Frequencies --   3072.1079              3074.6970              3081.5258
 Red. masses --      1.0762                 1.0875                 1.0878
 Frc consts  --      5.9842                 6.0576                 6.0861
 IR Inten    --     47.6602                55.0319                54.5515

                    109                    110                    111
                      A                      A                      A
 Frequencies --   3085.3767              3094.0679              3118.6794
 Red. masses --      1.0948                 1.1034                 1.0604
 Frc consts  --      6.1405                 6.2234                 6.0768
 IR Inten    --     25.7603                57.6193                19.1004

                    112                    113                    114
                      A                      A                      A
 Frequencies --   3121.3709              3129.0081              3153.9814
 Red. masses --      1.1019                 1.1028                 1.0964
 Frc consts  --      6.3251                 6.3618                 6.4261
 IR Inten    --     49.1545                25.5462                 9.9545

                    115                    116                    117
                      A                      A                      A
 Frequencies --   3163.5436              3174.1667              3197.9060
 Red. masses --      1.1058                 1.0891                 1.0890
 Frc consts  --      6.5204                 6.4654                 6.5619
 IR Inten    --      6.6385                19.9243                11.9362

                    118                    119                    120
                      A                      A                      A
 Frequencies --   3216.4551              3242.1572              3505.0796
 Red. masses --      1.0961                 1.0934                 1.0748
 Frc consts  --      6.6813                 6.7719                 7.7796
 IR Inten    --     22.6623                 1.3985                 1.4004

 - Thermochemistry -
 -------------------
 Temperature   298.150 Kelvin.  Pressure   1.00000 Atm.
 Atom     1 has atomic number  6 and mass  12.00000

 Molecular mass:   261.18411 amu.
 Principal axes and moments of inertia in atomic units:
                           1         2         3
     Eigenvalues --  4026.132396121.650918401.72175
           X            0.99998  -0.00258   0.00559
           Y            0.00268   0.99985  -0.01702
           Z           -0.00555   0.01703   0.99984
 This molecule is an asymmetric top.
 Rotational symmetry number  1.
 Warning -- assumption of classical behavior for rotation
           may cause significant error
 Rotational temperatures (Kelvin)      0.02151     0.01415     0.01031
 Rotational constants (GHZ):           0.44826     0.29481     0.21481
 Zero-point vibrational energy     976987.4 (Joules/Mol)
                                  233.50560 (Kcal/Mol)
 Warning -- explicit consideration of  26 degrees of freedom as
           vibrations may cause significant error
 Vibrational temperatures:     37.93    44.59    54.55    64.27    75.77
          (Kelvin)            119.99   161.20   175.17   218.41   260.95
                              301.33   317.64   375.55   429.21   458.82
                              471.99   508.62   561.70   579.55   602.98
                              618.05   640.50   671.72   711.61   782.89
                              820.97   910.13   917.61   992.20  1036.03
                             1095.15  1104.10  1129.82  1142.85  1150.90
                             1193.82  1252.82  1255.63  1275.07  1292.85
                             1304.45  1323.27  1359.89  1377.87  1405.21
                             1413.57  1453.27  1466.03  1481.78  1520.01
                             1528.67  1548.17  1551.61  1598.52  1609.37
                             1619.69  1636.36  1659.04  1676.75  1704.77
                             1723.36  1725.42  1766.67  1788.47  1854.38
                             1881.29  1888.68  1902.06  1906.56  1909.15
                             1918.26  1931.39  1967.33  1990.60  2004.27
                             2009.33  2026.66  2039.83  2048.66  2079.88
                             2081.57  2105.90  2133.19  2156.73  2172.12
                             2175.42  2180.57  2188.83  2191.30  2195.37
                             2198.68  2213.16  2215.80  2224.47  2342.19
                             2370.37  2477.22  4192.46  4208.06  4363.44
                             4363.92  4390.45  4395.96  4407.00  4408.16
                             4420.08  4423.80  4433.63  4439.17  4451.67
                             4487.08  4490.96  4501.94  4537.88  4551.63
                             4566.92  4601.07  4627.76  4664.74  5043.03

 Zero-point correction=                           0.372115 (Hartree/Particle)
 Thermal correction to Energy=                    0.390211
 Thermal correction to Enthalpy=                  0.391155
 Thermal correction to Gibbs Free Energy=         0.323826
 Sum of electronic and zero-point Energies=           -824.646479
 Sum of electronic and thermal Energies=              -824.628383
 Sum of electronic and thermal Enthalpies=            -824.627439
 Sum of electronic and thermal Free Energies=         -824.694768

                     E (Thermal)             CV                S
                      KCal/Mol        Cal/Mol-Kelvin    Cal/Mol-Kelvin
 Total                  244.861             69.535            141.706
 Electronic               0.000              0.000              0.000
 Translational            0.889              2.981             42.580
 Rotational               0.889              2.981             33.693
 Vibrational            243.083             63.573             65.434
 Vibration     1          0.593              1.985              6.086
 Vibration     2          0.594              1.984              5.765
 Vibration     3          0.594              1.982              5.365
 Vibration     4          0.595              1.980              5.040
 Vibration     5          0.596              1.977              4.715
 Vibration     6          0.600              1.961              3.809
 Vibration     7          0.607              1.939              3.233
 Vibration     8          0.609              1.931              3.072
 Vibration     9          0.619              1.901              2.649
 Vibration    10          0.630              1.865              2.314
 Vibration    11          0.642              1.826              2.049
 Vibration    12          0.647              1.809              1.953
 Vibration    13          0.669              1.744              1.655
 Vibration    14          0.691              1.677              1.426
 Vibration    15          0.705              1.637              1.316
 Vibration    16          0.711              1.619              1.270
 Vibration    17          0.730              1.568              1.151
 Vibration    18          0.758              1.491              0.999
 Vibration    19          0.768              1.464              0.952
 Vibration    20          0.782              1.429              0.895
 Vibration    21          0.791              1.406              0.860
 Vibration    22          0.805              1.372              0.811
 Vibration    23          0.824              1.324              0.746
 Vibration    24          0.850              1.262              0.672
 Vibration    25          0.899              1.153              0.556
 Vibration    26          0.927              1.095              0.503

 Optimization completed.
    -- Stationary point found.
 Normal termination of Gaussian 16 at Sun Dec 13 16:44:28 2020.

 ----------------------------------------------------------------------
 # B3LYP/6-311++G(d,p) empiricaldispersion=gd3bj scf=xqc pop=npa geom=c
 heck
 ----------------------------------------------------------------------

 ---------------------------------------
 CID_106628381_JID_9857_Energie_neutraal
 ---------------------------------------
 Structure from the checkpoint file:  "JID_9857.chk"
 Charge =  0 Multiplicity = 1

 SCF Done:  E(RB3LYP) =  -825.244027261     A.U. after   16 cycles
 Normal termination of Gaussian 16 at Sun Dec 13 16:57:36 2020.

 ----------------------------------------------------------------------
 # B3LYP/6-311++G(d,p) empiricaldispersion=gd3bj scf=xqc pop=npa geom=c
 heck
 ----------------------------------------------------------------------

 -------------------------------------
 CID_106628381_JID_9857_Energie_kation
 -------------------------------------
 Structure from the checkpoint file:  "JID_9857.chk"
 Charge =  1 Multiplicity = 2

 SCF Done:  E(UB3LYP) =  -824.952834276     A.U. after   28 cycles
 Normal termination of Gaussian 16 at Sun Dec 13 17:28:24 2020.
 Gaussian 16:  ES64L-G16RevA.03 25-Dec-2016

 ----------------------------------------------------------------------
 # B3LYP/6-311++G(d,p) empiricaldispersion=gd3bj scf=xqc pop=npa geom=c
 heck
 ----------------------------------------------------------------------

 ------------------------------------
 CID_106628381_JID_9857_Energie_anion
 ------------------------------------
 Structure from the checkpoint file:  "JID_9857.chk"
 Charge = -1 Multiplicity = 2

                         Standard orientation:
 ---------------------------------------------------------------------
 Center     Atomic      Atomic             Coordinates (Angstroms)
 Number     Number       Type             X           Y           Z
 ---------------------------------------------------------------------
      1          6           0       -0.543254    3.804727   -1.190679
      2          6           0        0.843346    3.385571   -0.698072
      3          6           0        0.790932    2.397025    0.473901
      4          7           0        0.068505    1.166935    0.137775
      5          6           0        0.785248    0.161660   -0.657382
      6          6           0        1.131858   -1.115969    0.128179
      7          6           0        1.960340   -0.852448    1.399439
      8          6           0        3.410855   -0.461069    1.079513
      9          6           0        4.042984   -1.469288    0.116659
     10          7           0        3.217191   -1.571040   -1.087663
     11          6           0        1.885929   -2.097659   -0.780951
     12          6           0       -1.196201    1.022680    0.629374
     13          8           0       -1.708739    1.827781    1.412029
     14          6           0       -2.033853   -0.168246    0.213861
     15          6           0       -2.894554   -0.709330    1.176602
     16          6           0       -3.722654   -1.766036    0.813797
     17          6           0       -3.688060   -2.224527   -0.503363
     18          6           0       -2.818734   -1.600305   -1.396954
     19          7           0       -1.999218   -0.599950   -1.055125
     20          1           0       -1.096177    2.941675   -1.576191
     21          1           0       -0.467458    4.543029   -1.996469
     22          1           0       -1.135919    4.238419   -0.378324
     23          1           0        1.413834    2.943773   -1.526586
     24          1           0        1.411665    4.265292   -0.367255
     25          1           0        1.805789    2.126320    0.785572
     26          1           0        0.279369    2.846737    1.325789
     27          1           0        0.191519   -0.103718   -1.531873
     28          1           0        1.704237    0.628826   -1.013998
     29          1           0        0.190198   -1.593799    0.423633
     30          1           0        1.476416   -0.084777    2.014003
     31          1           0        1.970122   -1.772855    1.999786
     32          1           0        3.446368    0.531856    0.615784
     33          1           0        3.999735   -0.406318    2.003049
     34          1           0        5.047938   -1.143827   -0.174610
     35          1           0        4.148153   -2.443335    0.636779
     36          1           0        3.673877   -2.170910   -1.770362
     37          1           0        1.929821   -3.082658   -0.275177
     38          1           0        1.339347   -2.236432   -1.721144
     39          1           0       -2.902820   -0.285173    2.173461
     40          1           0       -4.390394   -2.218407    1.541490
     41          1           0       -4.321353   -3.041614   -0.834607
     42          1           0       -2.774785   -1.916680   -2.437439
 ---------------------------------------------------------------------

 SCF Done:  E(UB3LYP) =  -825.242446067     A.U. after   33 cycles
 SCF Done:  E(UB3LYP) =  -825.242446067     a.u. after    1 cycles

 The electronic state is 2-A.
 Alpha  occ. eigenvalues --  -18.94953 -14.21403 -14.19722 -14.16781 -10.13138
 Alpha  occ. eigenvalues --  -10.09184 -10.08859 -10.08823 -10.08073 -10.07868
 Alpha  occ. eigenvalues --  -10.06929 -10.06830 -10.06659 -10.06271 -10.06247
 Alpha  occ. eigenvalues --  -10.05674 -10.05396 -10.05188 -10.04707  -0.90518
 Alpha  occ. eigenvalues --   -0.81737  -0.81179  -0.80628  -0.69358  -0.67759
 Alpha  occ. eigenvalues --   -0.67337  -0.65873  -0.63920  -0.58986  -0.57621
 Alpha  occ. eigenvalues --   -0.53652  -0.52196  -0.51118  -0.50297  -0.48610
 Alpha  occ. eigenvalues --   -0.44883  -0.42063  -0.41605  -0.39800  -0.37636
 Alpha  occ. eigenvalues --   -0.36924  -0.36176  -0.35579  -0.34908  -0.33886
 Alpha  occ. eigenvalues --   -0.33029  -0.32677  -0.32039  -0.30861  -0.30030
 Alpha  occ. eigenvalues --   -0.29673  -0.29009  -0.28916  -0.27964  -0.27386
 Alpha  occ. eigenvalues --   -0.26709  -0.25470  -0.25126  -0.24825  -0.24073
 Alpha  occ. eigenvalues --   -0.23612  -0.23238  -0.22699  -0.20984  -0.20939
 Alpha  occ. eigenvalues --   -0.16754  -0.14887  -0.13531  -0.13142  -0.12069
 Alpha  occ. eigenvalues --   -0.11407   0.04319
 Alpha virt. eigenvalues --    0.05762   0.07264   0.07690   0.07848   0.08502
 Alpha virt. eigenvalues --    0.09323   0.09491   0.09548   0.10082   0.10427
 Alpha virt. eigenvalues --    0.11051   0.11425   0.11551   0.12179   0.12702

  Beta  occ. eigenvalues --  -18.94792 -14.21375 -14.19701 -14.16453 -10.13051
  Beta  occ. eigenvalues --  -10.09162 -10.08860 -10.08819 -10.08142 -10.07867
  Beta  occ. eigenvalues --  -10.06920 -10.06652 -10.06591 -10.06268 -10.06243
  Beta  occ. eigenvalues --  -10.05672 -10.05267 -10.05197 -10.04514  -0.90248
  Beta  occ. eigenvalues --   -0.81613  -0.80890  -0.80393  -0.69338  -0.67660
  Beta  occ. eigenvalues --   -0.66962  -0.65842  -0.63595  -0.58961  -0.57532
  Beta  occ. eigenvalues --   -0.53615  -0.51873  -0.51028  -0.50154  -0.48433
  Beta  occ. eigenvalues --   -0.44823  -0.41938  -0.41516  -0.39738  -0.37548
  Beta  occ. eigenvalues --   -0.36804  -0.36069  -0.35444  -0.34835  -0.33825
  Beta  occ. eigenvalues --   -0.32979  -0.32642  -0.31944  -0.30792  -0.29993
  Beta  occ. eigenvalues --   -0.29607  -0.28862  -0.28564  -0.27728  -0.27049
  Beta  occ. eigenvalues --   -0.26454  -0.25334  -0.25067  -0.24742  -0.23840
  Beta  occ. eigenvalues --   -0.23349  -0.23185  -0.22613  -0.20956  -0.20893
  Beta  occ. eigenvalues --   -0.15375  -0.14384  -0.13163  -0.12756  -0.11631
  Beta  occ. eigenvalues --   -0.11050
  Beta virt. eigenvalues --    0.06461   0.07286   0.07729   0.08153   0.08640
  Beta virt. eigenvalues --    0.09151   0.09385   0.09486   0.09796   0.10164
  Beta virt. eigenvalues --    0.10334   0.11174   0.11473   0.11553   0.12184

 Mulliken charges and spin densities:
               1          2
     1  C   -0.454713  -0.027804
     2  C   -0.070443  -0.124311
     3  C   -0.228651   0.055823
     4  N    0.383471   0.022284
     5  C   -0.877020  -0.009828
     6  C    0.116564   0.363824
     7  C   -0.041282  -0.413276
     8  C   -0.655846   0.440854
     9  C    0.687523  -1.105523
    10  N   -0.264068   0.150281
    11  C   -0.099769  -0.570356
    12  C   -0.724678  -0.037082
    13  O   -0.308976   0.055217
    14  C   -0.080547   0.158186
    15  C    0.465349  -0.014563
    16  C   -0.548745   0.132312
    17  C   -0.165037   0.122966
    18  C   -0.104712  -0.011941
    19  N    0.007899   0.156328
    20  H    0.151380   0.022436
    21  H    0.110675   0.021340
    22  H    0.130489   0.006008
    23  H    0.078774   0.025624
    24  H    0.045719   0.088876
    25  H   -0.035587   0.109630
    26  H    0.205690  -0.013017
    27  H    0.298216  -0.056650
    28  H    0.158278   0.019747
    29  H    0.275042  -0.064322
    30  H    0.191926  -0.001994
    31  H    0.099184   0.053130
    32  H    0.254698  -0.133929
    33  H   -0.103220   0.265112
    34  H   -0.484211   0.657257
    35  H   -0.028368   0.129360
    36  H   -0.043854   0.301777
    37  H   -0.033164   0.157880
    38  H    0.127184   0.045283
    39  H    0.200682   0.008846
    40  H    0.131613  -0.007441
    41  H    0.128840  -0.011791
    42  H    0.103692   0.033445
 Sum of Mulliken charges =  -1.00000   1.00000

 Dipole moment (field-independent basis, Debye):
    X=             -0.4291    Y=              0.7497    Z=              0.0964  Tot=              0.8692
 Quadrupole moment (field-independent basis, Debye-Ang):
   XX=           -187.0164   YY=           -150.2280   ZZ=           -137.9741
   XY=             14.6105   XZ=              5.8199   YZ=             -4.9545

 Summary of Natural Population Analysis:

                                       Natural Population
                Natural  -----------------------------------------------
    Atom  No    Charge         Core      Valence    Rydberg      Total
 -----------------------------------------------------------------------
      C    1   -0.28941      0.99967     2.28502    0.00473     3.28941
      C    2   -0.19262      0.99964     2.18643    0.00655     3.19262
      C    3   -0.08859      0.99961     2.07726    0.01172     3.08859
      N    4   -0.25549      0.99964     2.74441    0.01145     3.75549
      C    5   -0.09087      0.99958     2.07943    0.01187     3.09087
      C    6   -0.12228      0.99958     2.11226    0.01044     3.12228
      C    7   -0.19111      0.99961     2.18305    0.00844     3.19111
      C    8   -0.19620      0.99963     2.18786    0.00872     3.19620
      C    9   -0.08685      0.99962     2.07491    0.01232     3.08685
      N   10   -0.34370      0.99974     2.83188    0.01208     3.84370
      C   11   -0.08574      0.99960     2.07390    0.01224     3.08574
      C   12    0.34631      0.99959     1.63212    0.02198     2.65369
      O   13   -0.32338      0.99988     3.31861    0.00489     4.32338
      C   14    0.09755      0.99949     1.88690    0.01606     2.90245
      C   15   -0.11520      0.99953     2.10780    0.00787     3.11520
      C   16   -0.06334      0.99957     2.05509    0.00867     3.06334
      C   17   -0.09595      0.99957     2.08778    0.00861     3.09595
      C   18    0.00814      0.99960     1.97873    0.01354     2.99186
      N   19   -0.20412      0.99968     2.69198    0.01246     3.70412
      H   20    0.10544      0.00000     0.39340    0.00116     0.39456
      H   21    0.09158      0.00000     0.40755    0.00087     0.40842
      H   22    0.10109      0.00000     0.39787    0.00103     0.39891
      H   23    0.09273      0.00000     0.40598    0.00129     0.40727
      H   24    0.09106      0.00000     0.40757    0.00137     0.40894
      H   25    0.09083      0.00000     0.40795    0.00122     0.40917
      H   26    0.11182      0.00000     0.38681    0.00137     0.38818
      H   27    0.11672      0.00000     0.38196    0.00132     0.38328
      H   28    0.09952      0.00000     0.39896    0.00152     0.40048
      H   29    0.10841      0.00000     0.38970    0.00189     0.39159
      H   30    0.10388      0.00000     0.39504    0.00108     0.39612
      H   31    0.09484      0.00000     0.40403    0.00113     0.40516
      H   32    0.09505      0.00000     0.40351    0.00144     0.40495
      H   33    0.09671      0.00000     0.40246    0.00084     0.40329
      H   34    0.09488      0.00000     0.40379    0.00134     0.40512
      H   35    0.07436      0.00000     0.42388    0.00176     0.42564
      H   36    0.17524      0.00000     0.32174    0.00302     0.32476
      H   37    0.07882      0.00000     0.41978    0.00140     0.42118
      H   38    0.09718      0.00000     0.40175    0.00106     0.40282
      H   39    0.10783      0.00000     0.39116    0.00101     0.39217
      H   40    0.09077      0.00000     0.40826    0.00097     0.40923
      H   41    0.09216      0.00000     0.40679    0.00106     0.40784
      H   42    0.08196      0.00000     0.41687    0.00117     0.41804
 =======================================================================
   * Total *    0.00000     18.99282    51.77221    0.23497    71.00000

 Normal termination of Gaussian 16 at Sun Dec 13 18:04:09 2020.
