 Gaussian 16, Revision A.03,

 -----------------------------------------------------------
 # opt freq B3LYP/6-31G(d) empiricaldispersion=gd3bj scf=xqc
 -----------------------------------------------------------

 ------------------------------
 CID_10729422_JID_9331_neutraal
 ------------------------------
 Symbolic Z-matrix:
 Charge =  0 Multiplicity = 1

 SCF Done:  E(RB3LYP) =  -822.828250466     A.U. after   16 cycles
 SCF Done:  E(RB3LYP) =  -822.840650293     A.U. after   13 cycles
 SCF Done:  E(RB3LYP) =  -822.841832229     A.U. after   13 cycles
 SCF Done:  E(RB3LYP) =  -822.842022216     A.U. after   12 cycles
 SCF Done:  E(RB3LYP) =  -822.841971977     A.U. after   13 cycles
 SCF Done:  E(RB3LYP) =  -822.842466105     A.U. after   12 cycles
 SCF Done:  E(RB3LYP) =  -822.842688304     A.U. after   12 cycles
 SCF Done:  E(RB3LYP) =  -822.842744842     A.U. after   11 cycles
 SCF Done:  E(RB3LYP) =  -822.842765544     A.U. after   10 cycles
 SCF Done:  E(RB3LYP) =  -822.842776655     A.U. after   11 cycles
 SCF Done:  E(RB3LYP) =  -822.842778785     A.U. after   10 cycles
 SCF Done:  E(RB3LYP) =  -822.842779561     A.U. after    9 cycles
 Optimization completed.
    -- Stationary point found.
 Normal termination of Gaussian 16 at Mon Dec 14 18:51:38 2020.

 --------------------------------------------------------------------
 #N Geom=AllCheck Guess=TCheck SCRF=Check GenChk RB3LYP/6-31G(d) Freq
 --------------------------------------------------------------------

 Structure from the checkpoint file:  "JID_9331.chk"
 ------------------------------
 CID_10729422_JID_9331_neutraal
 ------------------------------
 Charge =  0 Multiplicity = 1

 SCF Done:  E(RB3LYP) =  -822.842779561     A.U. after    1 cycles

  Exact polarizability: 285.645 -20.849 220.303   2.700  -0.162  71.032
 Approx polarizability: 470.258 -49.668 391.684   7.519  -4.773 116.463

                      1                      2                      3
                      A                      A                      A
 Frequencies --     44.3559                44.7617                92.5497
 Red. masses --     10.6029                 4.7604                 3.8412
 Frc consts  --      0.0123                 0.0056                 0.0194
 IR Inten    --      1.6468                 0.0582                 0.8257

                      4                      5                      6
                      A                      A                      A
 Frequencies --    119.0402               122.7579               141.6021
 Red. masses --      2.6370                 3.2525                 1.6961
 Frc consts  --      0.0220                 0.0289                 0.0200
 IR Inten    --      1.7086                 1.0432                 1.0253

                      7                      8                      9
                      A                      A                      A
 Frequencies --    144.6351               190.2585               213.1299
 Red. masses --      2.7762                 1.0572                 4.3828
 Frc consts  --      0.0342                 0.0225                 0.1173
 IR Inten    --      1.3289                 0.0576                 0.3125

                     10                     11                     12
                      A                      A                      A
 Frequencies --    251.7442               258.5571               276.9940
 Red. masses --      4.3531                 4.9995                 3.0063
 Frc consts  --      0.1625                 0.1969                 0.1359
 IR Inten    --      0.0853                 0.4261                 1.1203

                     13                     14                     15
                      A                      A                      A
 Frequencies --    323.8814               345.5509               378.4780
 Red. masses --      5.5372                 3.2592                 6.7538
 Frc consts  --      0.3422                 0.2293                 0.5700
 IR Inten    --      1.2664                 0.1274                 1.4029

                     16                     17                     18
                      A                      A                      A
 Frequencies --    400.6511               419.6642               463.9375
 Red. masses --      4.4751                 4.4284                 4.6182
 Frc consts  --      0.4232                 0.4595                 0.5857
 IR Inten    --      0.6642                 0.8436                 4.8500

                     19                     20                     21
                      A                      A                      A
 Frequencies --    482.0466               497.2001               511.3135
 Red. masses --      4.2522                 4.2444                 3.4995
 Frc consts  --      0.5822                 0.6182                 0.5391
 IR Inten    --      2.3246                 0.4144                 0.0469

                     22                     23                     24
                      A                      A                      A
 Frequencies --    549.3011               584.1184               589.6294
 Red. masses --      4.7344                 4.7178                 3.0354
 Frc consts  --      0.8417                 0.9484                 0.6218
 IR Inten    --      4.9662                 5.4669                11.1120

                     25                     26                     27
                      A                      A                      A
 Frequencies --    602.6153               634.8231               641.1761
 Red. masses --      2.8139                 5.0830                 1.6632
 Frc consts  --      0.6021                 1.2069                 0.4029
 IR Inten    --      8.0155                78.4462                67.4221

                     28                     29                     30
                      A                      A                      A
 Frequencies --    658.4125               715.0913               747.3794
 Red. masses --      5.0483                 7.2955                 5.0839
 Frc consts  --      1.2894                 2.1980                 1.6731
 IR Inten    --      9.8823                 3.3474                 0.7277

                     31                     32                     33
                      A                      A                      A
 Frequencies --    748.5638               765.7168               776.1558
 Red. masses --      5.2993                 5.3650                 1.6785
 Frc consts  --      1.7495                 1.8533                 0.5957
 IR Inten    --      5.8427                15.6935                48.2623

                     34                     35                     36
                      A                      A                      A
 Frequencies --    811.8655               841.2320               850.2900
 Red. masses --      4.1160                 3.2024                 1.3030
 Frc consts  --      1.5984                 1.3352                 0.5550
 IR Inten    --      4.5714                 1.4435                12.1921

                     37                     38                     39
                      A                      A                      A
 Frequencies --    880.8174               925.0312               946.9413
 Red. masses --      6.1535                 1.4341                 1.3566
 Frc consts  --      2.8128                 0.7230                 0.7167
 IR Inten    --      4.3650                22.6136                 0.2438

                     40                     41                     42
                      A                      A                      A
 Frequencies --    952.3777               966.9148               984.0384
 Red. masses --      1.4530                 2.0912                 4.1809
 Frc consts  --      0.7765                 1.1519                 2.3853
 IR Inten    --      3.2988                 0.9948                16.2379

                     43                     44                     45
                      A                      A                      A
 Frequencies --    987.5405              1026.7106              1069.7056
 Red. masses --      1.3485                 2.2004                 2.2954
 Frc consts  --      0.7748                 1.3666                 1.5475
 IR Inten    --      3.3177                21.3073                15.7206

                     46                     47                     48
                      A                      A                      A
 Frequencies --   1078.4705              1080.5897              1099.3108
 Red. masses --      1.5166                 1.5217                 2.2674
 Frc consts  --      1.0393                 1.0469                 1.6144
 IR Inten    --      0.5715                 5.2272                 3.1156

                     49                     50                     51
                      A                      A                      A
 Frequencies --   1119.7436              1159.9746              1168.3474
 Red. masses --      1.9305                 2.3123                 2.5871
 Frc consts  --      1.4262                 1.8331                 2.0807
 IR Inten    --     13.1726                98.8302               194.7998

                     52                     53                     54
                      A                      A                      A
 Frequencies --   1203.1383              1226.6821              1254.1014
 Red. masses --      1.3784                 1.7308                 1.7880
 Frc consts  --      1.1756                 1.5344                 1.6569
 IR Inten    --     95.5218                10.1978                39.4851

                     55                     56                     57
                      A                      A                      A
 Frequencies --   1298.4878              1311.7761              1348.3003
 Red. masses --      1.7336                 2.5606                 3.5302
 Frc consts  --      1.7222                 2.5961                 3.7811
 IR Inten    --      2.4004                 3.2981                 3.8810

                     58                     59                     60
                      A                      A                      A
 Frequencies --   1355.8077              1381.0416              1398.3128
 Red. masses --      3.1921                 2.8386                 2.5179
 Frc consts  --      3.4571                 3.1898                 2.9006
 IR Inten    --     29.9793                37.1121                 8.0641

                     61                     62                     63
                      A                      A                      A
 Frequencies --   1427.5497              1440.5329              1445.2569
 Red. masses --      3.8801                 1.7855                 1.5524
 Frc consts  --      4.6589                 2.1830                 1.9105
 IR Inten    --     12.2662                 6.9362                 1.1477

                     64                     65                     66
                      A                      A                      A
 Frequencies --   1445.7292              1452.4015              1499.9630
 Red. masses --      2.3943                 2.1674                 1.9887
 Frc consts  --      2.9486                 2.6937                 2.6362
 IR Inten    --      7.0755                10.9092                10.5473

                     67                     68                     69
                      A                      A                      A
 Frequencies --   1500.4665              1513.8380              1515.4770
 Red. masses --      1.2239                 1.0445                 1.5020
 Frc consts  --      1.6235                 1.4103                 2.0325
 IR Inten    --     12.4504                 7.2212                 0.9762

                     70                     71                     72
                      A                      A                      A
 Frequencies --   1524.2145              1531.3395              1593.1430
 Red. masses --      2.0558                 1.1856                 6.7329
 Frc consts  --      2.8140                 1.6381                10.0685
 IR Inten    --      9.2100                14.0960                79.3612

                     73                     74                     75
                      A                      A                      A
 Frequencies --   1627.6413              1642.8778              1666.3447
 Red. masses --      7.2475                 5.3748                 5.8460
 Frc consts  --     11.3125                 8.5472                 9.5640
 IR Inten    --      8.1399                 7.6702                13.8697

                     76                     77                     78
                      A                      A                      A
 Frequencies --   1682.5969              1834.8859              3038.1727
 Red. masses --      5.7240                 9.9771                 1.0388
 Frc consts  --      9.5479                19.7911                 5.6492
 IR Inten    --     19.3016               215.5727                32.2717

                     79                     80                     81
                      A                      A                      A
 Frequencies --   3056.7389              3086.5895              3115.2057
 Red. masses --      1.0366                 1.1006                 1.0987
 Frc consts  --      5.7067                 6.1778                 6.2821
 IR Inten    --     24.7394                20.7670                15.0603

                     82                     83                     84
                      A                      A                      A
 Frequencies --   3131.2354              3139.2743              3177.9136
 Red. masses --      1.0992                 1.1038                 1.0877
 Frc consts  --      6.3500                 6.4089                 6.4719
 IR Inten    --     18.1990                16.6205                17.0005

                     85                     86                     87
                      A                      A                      A
 Frequencies --   3182.9264              3193.9646              3197.7450
 Red. masses --      1.0881                 1.0933                 1.0897
 Frc consts  --      6.4948                 6.5710                 6.5654
 IR Inten    --      4.1521                36.9224                10.0196

                     88                     89                     90
                      A                      A                      A
 Frequencies --   3208.7278              3232.6963              3692.4886
 Red. masses --      1.0932                 1.0925                 1.0640
 Frc consts  --      6.6315                 6.7266                 8.5471
 IR Inten    --     23.5534                 5.1479                62.5129

 - Thermochemistry -
 -------------------
 Temperature   298.150 Kelvin.  Pressure   1.00000 Atm.
 Atom     1 has atomic number  6 and mass  12.00000

 Molecular mass:   251.09463 amu.
 Principal axes and moments of inertia in atomic units:
                           1         2         3
     Eigenvalues --  2751.971556220.399198868.36101
           X            1.00000  -0.00052   0.00085
           Y            0.00052   0.99999   0.00359
           Z           -0.00085  -0.00359   0.99999
 This molecule is an asymmetric top.
 Rotational symmetry number  1.
 Warning -- assumption of classical behavior for rotation
           may cause significant error
 Rotational temperatures (Kelvin)      0.03147     0.01392     0.00977
 Rotational constants (GHZ):           0.65580     0.29013     0.20350
 Zero-point vibrational energy     665492.0 (Joules/Mol)
                                  159.05641 (Kcal/Mol)
 Warning -- explicit consideration of  25 degrees of freedom as
           vibrations may cause significant error
 Vibrational temperatures:     63.82    64.40   133.16   171.27   176.62
          (Kelvin)            203.73   208.10   273.74   306.65   362.20
                              372.01   398.53   465.99   497.17   544.55
                              576.45   603.80   667.50   693.56   715.36
                              735.67   790.32   840.42   848.35   867.03
                              913.37   922.51   947.31  1028.86  1075.31
                             1077.02  1101.70  1116.72  1168.09  1210.35
                             1223.38  1267.30  1330.91  1362.44  1370.26
                             1391.17  1415.81  1420.85  1477.21  1539.07
                             1551.68  1554.73  1581.66  1611.06  1668.94
                             1680.99  1731.05  1764.92  1804.37  1868.23
                             1887.35  1939.90  1950.70  1987.01  2011.86
                             2053.93  2072.61  2079.40  2080.08  2089.68
                             2158.11  2158.84  2178.08  2180.43  2193.00
                             2203.26  2292.18  2341.81  2363.73  2397.50
                             2420.88  2639.99  4371.25  4397.97  4440.91
                             4482.09  4505.15  4516.72  4572.31  4579.52
                             4595.40  4600.84  4616.64  4651.13  5312.67

 Zero-point correction=                           0.253473 (Hartree/Particle)
 Thermal correction to Energy=                    0.269058
 Thermal correction to Enthalpy=                  0.270002
 Thermal correction to Gibbs Free Energy=         0.210529
 Sum of electronic and zero-point Energies=           -822.589307
 Sum of electronic and thermal Energies=              -822.573721
 Sum of electronic and thermal Enthalpies=            -822.572777
 Sum of electronic and thermal Free Energies=         -822.632250

                     E (Thermal)             CV                S
                      KCal/Mol        Cal/Mol-Kelvin    Cal/Mol-Kelvin
 Total                  168.837             61.534            125.172
 Electronic               0.000              0.000              0.000
 Translational            0.889              2.981             42.462
 Rotational               0.889              2.981             33.384
 Vibrational            167.059             55.572             49.326
 Vibration     1          0.595              1.980              5.054
 Vibration     2          0.595              1.979              5.036
 Vibration     3          0.602              1.954              3.605
 Vibration     4          0.609              1.933              3.116
 Vibration     5          0.610              1.930              3.056
 Vibration     6          0.615              1.912              2.782
 Vibration     7          0.616              1.908              2.742
 Vibration     8          0.634              1.853              2.225
 Vibration     9          0.644              1.821              2.017
 Vibration    10          0.664              1.760              1.718
 Vibration    11          0.667              1.748              1.671
 Vibration    12          0.678              1.716              1.552
 Vibration    13          0.708              1.628              1.290
 Vibration    14          0.724              1.584              1.186
 Vibration    15          0.749              1.516              1.045
 Vibration    16          0.766              1.469              0.960
 Vibration    17          0.782              1.428              0.893
 Vibration    18          0.821              1.330              0.755
 Vibration    19          0.838              1.290              0.705
 Vibration    20          0.853              1.256              0.665
 Vibration    21          0.866              1.225              0.630
 Vibration    22          0.905              1.141              0.546
 Vibration    23          0.941              1.066              0.478
 Vibration    24          0.947              1.054              0.468
 Vibration    25          0.961              1.026              0.445

 Optimization completed.
    -- Stationary point found.
 Normal termination of Gaussian 16 at Mon Dec 14 19:07:50 2020.

 ----------------------------------------------------------------------
 # B3LYP/6-311++G(d,p) empiricaldispersion=gd3bj scf=xqc pop=npa geom=c
 heck
 ----------------------------------------------------------------------

 --------------------------------------
 CID_10729422_JID_9331_Energie_neutraal
 --------------------------------------
 Structure from the checkpoint file:  "JID_9331.chk"
 Charge =  0 Multiplicity = 1

 SCF Done:  E(RB3LYP) =  -823.059201636     A.U. after   15 cycles
 Normal termination of Gaussian 16 at Mon Dec 14 19:14:35 2020.

 ----------------------------------------------------------------------
 # B3LYP/6-311++G(d,p) empiricaldispersion=gd3bj scf=xqc pop=npa geom=c
 heck
 ----------------------------------------------------------------------

 ------------------------------------
 CID_10729422_JID_9331_Energie_kation
 ------------------------------------
 Structure from the checkpoint file:  "JID_9331.chk"
 Charge =  1 Multiplicity = 2

 SCF Done:  E(UB3LYP) =  -822.783903320     A.U. after   23 cycles
 Normal termination of Gaussian 16 at Mon Dec 14 19:29:18 2020.
 Gaussian 16:  ES64L-G16RevA.03 25-Dec-2016

 ----------------------------------------------------------------------
 # B3LYP/6-311++G(d,p) empiricaldispersion=gd3bj scf=xqc pop=npa geom=c
 heck
 ----------------------------------------------------------------------

 -----------------------------------
 CID_10729422_JID_9331_Energie_anion
 -----------------------------------
 Structure from the checkpoint file:  "JID_9331.chk"
 Charge = -1 Multiplicity = 2

                         Standard orientation:
 ---------------------------------------------------------------------
 Center     Atomic      Atomic             Coordinates (Angstroms)
 Number     Number       Type             X           Y           Z
 ---------------------------------------------------------------------
      1          6           0       -3.911058   -2.074987   -0.048038
      2          6           0       -3.219818   -0.736995   -0.007941
      3          6           0       -1.783720   -0.655276   -0.000116
      4          6           0       -0.953779   -1.776870   -0.016507
      5          6           0        0.439013   -1.639549   -0.016380
      6          6           0        1.316862   -2.760879   -0.012256
      7          6           0        2.674744   -2.580487    0.010856
      8          6           0        3.220285   -1.270510    0.013763
      9          6           0        2.415408   -0.151583   -0.015174
     10          6           0        0.981884   -0.303169   -0.008283
     11          7           0        0.198259    0.779234    0.038790
     12          6           0       -1.133578    0.635454    0.037392
     13          6           0       -1.925863    1.836972    0.072189
     14          6           0       -3.290995    1.707378    0.059242
     15          6           0       -3.930365    0.435424    0.020302
     16          6           0       -1.231183    3.168606    0.117778
     17          6           0        3.043025    1.196554   -0.112179
     18          8           0        2.590278    2.173233   -0.665149
     19          8           0        4.273354    1.217986    0.481892
     20          1           0       -3.637115   -2.647059   -0.943601
     21          1           0       -4.997288   -1.948771   -0.052632
     22          1           0       -3.650488   -2.693131    0.820626
     23          1           0       -1.381134   -2.775440   -0.024465
     24          1           0        0.886854   -3.759472   -0.022430
     25          1           0        3.344312   -3.434938    0.019890
     26          1           0        4.296724   -1.143234    0.022056
     27          1           0       -3.910949    2.600185    0.078303
     28          1           0       -5.016854    0.399025    0.012105
     29          1           0       -1.952942    3.987811    0.044176
     30          1           0       -0.665565    3.281470    1.049825
     31          1           0       -0.496579    3.254882   -0.688554
     32          1           0        4.618991    2.113785    0.311343
 ---------------------------------------------------------------------

 SCF Done:  E(UB3LYP) =  -823.100320309     A.U. after   21 cycles

 The electronic state is 2-A.
 Alpha  occ. eigenvalues --  -19.04491 -18.97666 -14.14360 -10.16904 -10.07444
 Alpha  occ. eigenvalues --  -10.06419 -10.05962 -10.04952 -10.04833 -10.04521
 Alpha  occ. eigenvalues --  -10.04119 -10.04082 -10.04067 -10.04040 -10.04027
 Alpha  occ. eigenvalues --  -10.03794 -10.03770 -10.03488 -10.03250  -0.98063
 Alpha  occ. eigenvalues --   -0.88715  -0.80231  -0.72528  -0.70980  -0.67321
 Alpha  occ. eigenvalues --   -0.65343  -0.61483  -0.60991  -0.59631  -0.53492
 Alpha  occ. eigenvalues --   -0.52857  -0.51610  -0.49541  -0.45266  -0.43391
 Alpha  occ. eigenvalues --   -0.42094  -0.39425  -0.36985  -0.36126  -0.35614
 Alpha  occ. eigenvalues --   -0.33501  -0.33273  -0.32538  -0.31390  -0.31175
 Alpha  occ. eigenvalues --   -0.29208  -0.29168  -0.28929  -0.28070  -0.27408
 Alpha  occ. eigenvalues --   -0.27082  -0.26699  -0.25389  -0.24285  -0.23698
 Alpha  occ. eigenvalues --   -0.22372  -0.22069  -0.20592  -0.19916  -0.19056
 Alpha  occ. eigenvalues --   -0.17427  -0.15452  -0.12439  -0.11548  -0.10231
 Alpha  occ. eigenvalues --   -0.08278   0.01197
 Alpha virt. eigenvalues --    0.07817   0.08354   0.08816   0.09027   0.09337
 Alpha virt. eigenvalues --    0.10138   0.10817   0.11342   0.12028   0.12111
 Alpha virt. eigenvalues --    0.12888   0.13465   0.13779   0.14458   0.14993

  Beta  occ. eigenvalues --  -19.04480 -18.97588 -14.14074 -10.16866 -10.07488
  Beta  occ. eigenvalues --  -10.06386 -10.05972 -10.04928 -10.04812 -10.04583
  Beta  occ. eigenvalues --  -10.04059 -10.04048 -10.03963 -10.03953 -10.03866
  Beta  occ. eigenvalues --  -10.03716 -10.03494 -10.03479 -10.02860  -0.97997
  Beta  occ. eigenvalues --   -0.88604  -0.79871  -0.72277  -0.70590  -0.66990
  Beta  occ. eigenvalues --   -0.65021  -0.61109  -0.60801  -0.59561  -0.53353
  Beta  occ. eigenvalues --   -0.52490  -0.51226  -0.49442  -0.45058  -0.43177
  Beta  occ. eigenvalues --   -0.41784  -0.39274  -0.36847  -0.35975  -0.35535
  Beta  occ. eigenvalues --   -0.33363  -0.33109  -0.32344  -0.31165  -0.30978
  Beta  occ. eigenvalues --   -0.29078  -0.28942  -0.28861  -0.27958  -0.27305
  Beta  occ. eigenvalues --   -0.26886  -0.26238  -0.25320  -0.24194  -0.23541
  Beta  occ. eigenvalues --   -0.21972  -0.21719  -0.20434  -0.19602  -0.18035
  Beta  occ. eigenvalues --   -0.16271  -0.15205  -0.11431  -0.10940  -0.09955
  Beta  occ. eigenvalues --   -0.06851
  Beta virt. eigenvalues --    0.06196   0.07797   0.08359   0.08797   0.09311
  Beta virt. eigenvalues --    0.10090   0.10126   0.10983   0.11327   0.12086
  Beta virt. eigenvalues --    0.12244   0.12896   0.13530   0.13918   0.14832

 Mulliken charges and spin densities:
               1          2
     1  C   -0.574078  -0.004528
     2  C    0.606310   0.077135
     3  C    0.765904  -0.052093
     4  C    0.046966   0.331156
     5  C    0.198268  -0.087027
     6  C   -0.298136   0.215260
     7  C   -0.295915   0.010821
     8  C   -0.308026   0.180572
     9  C   -0.017544   0.064405
    10  C   -0.752698  -0.048433
    11  N    0.287483   0.138095
    12  C   -0.625265   0.021741
    13  C    0.458017   0.044251
    14  C   -0.348682   0.063136
    15  C   -0.697657   0.013396
    16  C   -0.623893   0.000213
    17  C   -0.005408   0.039185
    18  O   -0.305165   0.028020
    19  O   -0.185711   0.001582
    20  H    0.134019   0.007346
    21  H    0.135435   0.000203
    22  H    0.133666   0.007324
    23  H    0.074585  -0.020763
    24  H    0.078950  -0.017316
    25  H    0.116261  -0.000798
    26  H    0.139607  -0.011113
    27  H    0.093665  -0.005831
    28  H    0.071711  -0.002305
    29  H    0.102253  -0.000465
    30  H    0.150455   0.004630
    31  H    0.190560   0.001726
    32  H    0.254064   0.000474
 Sum of Mulliken charges =  -1.00000   1.00000

 Dipole moment (field-independent basis, Debye):
    X=             -1.0305    Y=             -1.3269    Z=              0.5067  Tot=              1.7548
 Quadrupole moment (field-independent basis, Debye-Ang):
   XX=           -141.3964   YY=           -128.8535   ZZ=           -122.3669
   XY=              4.3050   XZ=              0.7787   YZ=              2.7521

 Summary of Natural Population Analysis:

                                       Natural Population
                Natural  -----------------------------------------------
    Atom  No    Charge         Core      Valence    Rydberg      Total
 -----------------------------------------------------------------------
      C    1   -0.29049      0.99960     2.28610    0.00479     3.29049
      C    2   -0.00574      0.99956     1.99500    0.01119     3.00574
      C    3   -0.00842      0.99940     2.00302    0.00600     3.00842
      C    4    0.00086      0.99948     1.98843    0.01123     2.99914
      C    5   -0.06913      0.99950     2.06016    0.00947     3.06913
      C    6   -0.02978      0.99957     2.02015    0.01007     3.02978
      C    7   -0.11289      0.99944     2.10313    0.01032     3.11289
      C    8   -0.04579      0.99957     2.03606    0.01016     3.04579
      C    9   -0.07435      0.99943     2.05962    0.01530     3.07435
      C   10    0.09984      0.99949     1.88789    0.01279     2.90016
      N   11   -0.19933      0.99965     2.68575    0.01394     3.69933
      C   12    0.09765      0.99943     1.88811    0.01481     2.90235
      C   13   -0.00536      0.99952     1.99618    0.00965     3.00536
      C   14   -0.08964      0.99942     2.07885    0.01137     3.08964
      C   15   -0.11036      0.99953     2.10091    0.00991     3.11036
      C   16   -0.29107      0.99959     2.28572    0.00576     3.29107
      C   17    0.42949      0.99968     1.54428    0.02655     2.57051
      O   18   -0.30475      0.99987     3.29445    0.01042     4.30475
      O   19   -0.36084      0.99989     3.35302    0.00794     4.36084
      H   20    0.09918      0.00000     0.39928    0.00154     0.40082
      H   21    0.09522      0.00000     0.40368    0.00110     0.40478
      H   22    0.09891      0.00000     0.39954    0.00155     0.40109
      H   23    0.08581      0.00000     0.41103    0.00316     0.41419
      H   24    0.08629      0.00000     0.41179    0.00192     0.41371
      H   25    0.09064      0.00000     0.40811    0.00126     0.40936
      H   26    0.09771      0.00000     0.40107    0.00123     0.40229
      H   27    0.09155      0.00000     0.40788    0.00057     0.40845
      H   28    0.08764      0.00000     0.41084    0.00152     0.41236
      H   29    0.08959      0.00000     0.40995    0.00046     0.41041
      H   30    0.10430      0.00000     0.39415    0.00154     0.39570
      H   31    0.11366      0.00000     0.38501    0.00133     0.38634
      H   32    0.23034      0.00000     0.26541    0.00425     0.26966
 =======================================================================
   * Total *    0.00075     18.99161    46.77455    0.23309    65.99925

 Normal termination of Gaussian 16 at Mon Dec 14 19:42:45 2020.
