 Gaussian 16, Revision A.03,

 -----------------------------------------------------------
 # opt freq B3LYP/6-31G(d) empiricaldispersion=gd3bj scf=xqc
 -----------------------------------------------------------

 ----------------------------
 CID_579657_JID_4001_neutraal
 ----------------------------
 Symbolic Z-matrix:
 Charge =  0 Multiplicity = 1

 SCF Done:  E(RB3LYP) =  -654.462223815     A.U. after   15 cycles
 SCF Done:  E(RB3LYP) =  -654.468806900     A.U. after   12 cycles
 SCF Done:  E(RB3LYP) =  -654.470104763     A.U. after   12 cycles
 SCF Done:  E(RB3LYP) =  -654.470340866     A.U. after   12 cycles
 SCF Done:  E(RB3LYP) =  -654.470529742     A.U. after   11 cycles
 SCF Done:  E(RB3LYP) =  -654.470630802     A.U. after   11 cycles
 SCF Done:  E(RB3LYP) =  -654.470659967     A.U. after   10 cycles
 SCF Done:  E(RB3LYP) =  -654.470675138     A.U. after   10 cycles
 SCF Done:  E(RB3LYP) =  -654.470685007     A.U. after   10 cycles
 SCF Done:  E(RB3LYP) =  -654.470696574     A.U. after    9 cycles
 SCF Done:  E(RB3LYP) =  -654.470702065     A.U. after    9 cycles
 SCF Done:  E(RB3LYP) =  -654.470702928     A.U. after    8 cycles
 SCF Done:  E(RB3LYP) =  -654.470703476     A.U. after    9 cycles
 Optimization completed.
    -- Stationary point found.
 Normal termination of Gaussian 16 at Thu Dec 10 09:15:42 2020.

 --------------------------------------------------------------------
 #N Geom=AllCheck Guess=TCheck SCRF=Check GenChk RB3LYP/6-31G(d) Freq
 --------------------------------------------------------------------

 Structure from the checkpoint file:  "JID_4001.chk"
 ----------------------------
 CID_579657_JID_4001_neutraal
 ----------------------------
 Charge =  0 Multiplicity = 1

 SCF Done:  E(RB3LYP) =  -654.470703476     A.U. after    1 cycles

  Exact polarizability: 147.448  -1.290 102.762  -1.244   2.726  98.482
 Approx polarizability: 200.400   4.555 151.187  -4.672   1.498 150.805

                      1                      2                      3
                      A                      A                      A
 Frequencies --     66.5701               118.6068               126.9695
 Red. masses --      5.4495                 1.2053                 2.0241
 Frc consts  --      0.0142                 0.0100                 0.0192
 IR Inten    --      3.4440                 0.3357                 2.2961

                      4                      5                      6
                      A                      A                      A
 Frequencies --    144.7350               160.1553               187.4963
 Red. masses --      2.3203                 2.1848                 1.5761
 Frc consts  --      0.0286                 0.0330                 0.0326
 IR Inten    --      0.5117                 0.4281                 0.0173

                      7                      8                      9
                      A                      A                      A
 Frequencies --    196.9863               243.2005               251.4523
 Red. masses --      2.4126                 2.3001                 3.0435
 Frc consts  --      0.0552                 0.0802                 0.1134
 IR Inten    --      2.2561                 0.6790                 3.8401

                     10                     11                     12
                      A                      A                      A
 Frequencies --    267.8730               301.0153               323.8307
 Red. masses --      3.4219                 2.9381                 4.3192
 Frc consts  --      0.1447                 0.1569                 0.2669
 IR Inten    --      9.2383                 0.9298                 2.9115

                     13                     14                     15
                      A                      A                      A
 Frequencies --    343.5440               354.1392               412.4671
 Red. masses --      5.9707                 3.3252                 3.5193
 Frc consts  --      0.4152                 0.2457                 0.3528
 IR Inten    --      1.8988                 1.7860                 9.0094

                     16                     17                     18
                      A                      A                      A
 Frequencies --    433.7698               485.4610               516.6826
 Red. masses --      3.1562                 3.1408                 3.0978
 Frc consts  --      0.3499                 0.4361                 0.4872
 IR Inten    --      0.2449                 0.0247                 1.8294

                     19                     20                     21
                      A                      A                      A
 Frequencies --    541.9913               547.3297               601.0234
 Red. masses --      4.1177                 3.3925                 4.1015
 Frc consts  --      0.7127                 0.5988                 0.8729
 IR Inten    --      4.3071                 0.8040                12.0834

                     22                     23                     24
                      A                      A                      A
 Frequencies --    648.6398               676.0122               699.5342
 Red. masses --      3.4932                 3.3976                 1.9567
 Frc consts  --      0.8659                 0.9148                 0.5641
 IR Inten    --      4.6772                 5.2126                24.1238

                     25                     26                     27
                      A                      A                      A
 Frequencies --    748.1563               814.3532               831.1379
 Red. masses --      3.7249                 2.2986                 1.6591
 Frc consts  --      1.2284                 0.8981                 0.6753
 IR Inten    --      1.4211                 2.0351                 2.2858

                     28                     29                     30
                      A                      A                      A
 Frequencies --    853.3544               958.7697               962.5219
 Red. masses --      1.9699                 1.9093                 1.6334
 Frc consts  --      0.8452                 1.0341                 0.8916
 IR Inten    --      4.4506                 4.1963                 2.7877

                     31                     32                     33
                      A                      A                      A
 Frequencies --    968.5699               979.8370              1000.7981
 Red. masses --      2.2094                 2.5248                 2.9061
 Frc consts  --      1.2212                 1.4282                 1.7150
 IR Inten    --      0.9710                35.6424                21.4295

                     34                     35                     36
                      A                      A                      A
 Frequencies --   1038.2374              1056.9848              1076.2202
 Red. masses --      5.1408                 2.3125                 2.5760
 Frc consts  --      3.2649                 1.5222                 1.7579
 IR Inten    --      5.0733                 4.9668                15.7471

                     37                     38                     39
                      A                      A                      A
 Frequencies --   1105.8701              1129.4451              1139.2472
 Red. masses --      3.0118                 1.8941                 3.2836
 Frc consts  --      2.1701                 1.4236                 2.5110
 IR Inten    --     70.2132                42.3184                65.9152

                     40                     41                     42
                      A                      A                      A
 Frequencies --   1149.6980              1161.3131              1179.8009
 Red. masses --      3.0516                 2.8785                 1.3046
 Frc consts  --      2.3765                 2.2872                 1.0699
 IR Inten    --     87.6102                69.7573                 2.3068

                     43                     44                     45
                      A                      A                      A
 Frequencies --   1191.3075              1201.6594              1226.9950
 Red. masses --      1.3438                 2.3357                 1.4321
 Frc consts  --      1.1236                 1.9871                 1.2703
 IR Inten    --      6.4681                48.7866                30.5887

                     46                     47                     48
                      A                      A                      A
 Frequencies --   1233.3622              1244.1527              1268.2572
 Red. masses --      1.5629                 1.7460                 1.8592
 Frc consts  --      1.4008                 1.5924                 1.7619
 IR Inten    --      6.8005                22.8812                12.0002

                     49                     50                     51
                      A                      A                      A
 Frequencies --   1275.1212              1294.3128              1310.6841
 Red. masses --      1.2344                 1.4920                 1.3642
 Frc consts  --      1.1825                 1.4726                 1.3808
 IR Inten    --     12.6113                 3.6279                 5.7418

                     52                     53                     54
                      A                      A                      A
 Frequencies --   1348.7493              1355.6425              1375.6173
 Red. masses --      1.4925                 1.4092                 1.5052
 Frc consts  --      1.5996                 1.5259                 1.6782
 IR Inten    --      0.5110                 0.5903                 1.6893

                     55                     56                     57
                      A                      A                      A
 Frequencies --   1393.0346              1421.7811              1500.4368
 Red. masses --      1.5373                 1.5960                 1.0820
 Frc consts  --      1.7577                 1.9009                 1.4351
 IR Inten    --      0.6774                23.6753                 7.9763

                     58                     59                     60
                      A                      A                      A
 Frequencies --   1503.4410              1503.8737              1515.4008
 Red. masses --      1.1325                 1.1344                 1.0604
 Frc consts  --      1.5082                 1.5116                 1.4347
 IR Inten    --      1.4875                 0.3876                 2.7460

                     61                     62                     63
                      A                      A                      A
 Frequencies --   1515.9820              1521.6821              1529.8231
 Red. masses --      1.0691                 1.0685                 1.0789
 Frc consts  --      1.4476                 1.4578                 1.4876
 IR Inten    --      2.7425                 0.7568                 3.6774

                     64                     65                     66
                      A                      A                      A
 Frequencies --   1539.4328              1542.6221              1545.2405
 Red. masses --      1.0517                 1.0567                 1.0882
 Frc consts  --      1.4685                 1.4815                 1.5309
 IR Inten    --     10.0357                 9.6199                 6.0104

                     67                     68                     69
                      A                      A                      A
 Frequencies --   1713.6162              1810.3749              3014.6650
 Red. masses --      7.5240                11.7548                 1.0363
 Frc consts  --     13.0175                22.6988                 5.5493
 IR Inten    --      0.8223               187.9370                45.0818

                     70                     71                     72
                      A                      A                      A
 Frequencies --   3040.6868              3047.3820              3049.1516
 Red. masses --      1.0683                 1.0339                 1.0620
 Frc consts  --      5.8196                 5.6571                 5.8177
 IR Inten    --      8.5265                55.0803                20.8585

                     73                     74                     75
                      A                      A                      A
 Frequencies --   3065.3498              3069.0231              3082.0673
 Red. masses --      1.1012                 1.0653                 1.0647
 Frc consts  --      6.0964                 5.9116                 5.9588
 IR Inten    --     60.9070                27.4186                29.2110

                     76                     77                     78
                      A                      A                      A
 Frequencies --   3095.9723              3114.0720              3116.8137
 Red. masses --      1.1021                 1.1027                 1.1010
 Frc consts  --      6.2240                 6.3002                 6.3014
 IR Inten    --     23.3847                63.6774                 1.6519

                     79                     80                     81
                      A                      A                      A
 Frequencies --   3121.2916              3136.5138              3137.6295
 Red. masses --      1.0957                 1.1016                 1.0986
 Frc consts  --      6.2893                 6.3854                 6.3720
 IR Inten    --     19.8274                22.0226                37.0996

                     82                     83                     84
                      A                      A                      A
 Frequencies --   3147.0796              3192.2105              3215.1899
 Red. masses --      1.1041                 1.0856                 1.0979
 Frc consts  --      6.4426                 6.5179                 6.6870
 IR Inten    --     24.5430                 6.1167                12.4410

 - Thermochemistry -
 -------------------
 Temperature   298.150 Kelvin.  Pressure   1.00000 Atm.
 Atom     1 has atomic number  6 and mass  12.00000

 Molecular mass:   196.10994 amu.
 Principal axes and moments of inertia in atomic units:
                           1         2         3
     Eigenvalues --  1286.430373564.839023878.64971
           X            0.99980  -0.01972   0.00220
           Y            0.01961   0.99889   0.04291
           Z           -0.00305  -0.04285   0.99908
 This molecule is an asymmetric top.
 Rotational symmetry number  1.
 Warning -- assumption of classical behavior for rotation
           may cause significant error
 Rotational temperatures (Kelvin)      0.06733     0.02430     0.02233
 Rotational constants (GHZ):           1.40291     0.50626     0.46530
 Zero-point vibrational energy     677872.9 (Joules/Mol)
                                  162.01552 (Kcal/Mol)
 Warning -- explicit consideration of  21 degrees of freedom as
           vibrations may cause significant error
 Vibrational temperatures:     95.78   170.65   182.68   208.24   230.43
          (Kelvin)            269.77   283.42   349.91   361.78   385.41
                              433.09   465.92   494.28   509.53   593.45
                              624.10   698.47   743.39   779.80   787.49
                              864.74   933.25   972.63  1006.47  1076.43
                             1171.67  1195.82  1227.79  1379.46  1384.85
                             1393.56  1409.77  1439.93  1493.79  1520.77
                             1548.44  1591.10  1625.02  1639.12  1654.16
                             1670.87  1697.47  1714.03  1728.92  1765.37
                             1774.53  1790.06  1824.74  1834.61  1862.23
                             1885.78  1940.55  1950.47  1979.21  2004.27
                             2045.63  2158.79  2163.12  2163.74  2180.32
                             2181.16  2189.36  2201.07  2214.90  2219.49
                             2223.26  2465.51  2604.73  4337.43  4374.87
                             4384.50  4387.05  4410.35  4415.64  4434.41
                             4454.41  4480.46  4484.40  4490.84  4512.74
                             4514.35  4527.95  4592.88  4625.94

 Zero-point correction=                           0.258188 (Hartree/Particle)
 Thermal correction to Energy=                    0.271482
 Thermal correction to Enthalpy=                  0.272426
 Thermal correction to Gibbs Free Energy=         0.219576
 Sum of electronic and zero-point Energies=           -654.212515
 Sum of electronic and thermal Energies=              -654.199221
 Sum of electronic and thermal Enthalpies=            -654.198277
 Sum of electronic and thermal Free Energies=         -654.251128

                     E (Thermal)             CV                S
                      KCal/Mol        Cal/Mol-Kelvin    Cal/Mol-Kelvin
 Total                  170.358             52.222            111.233
 Electronic               0.000              0.000              0.000
 Translational            0.889              2.981             41.726
 Rotational               0.889              2.981             31.254
 Vibrational            168.580             46.260             38.254
 Vibration     1          0.598              1.970              4.252
 Vibration     2          0.609              1.934              3.123
 Vibration     3          0.611              1.926              2.991
 Vibration     4          0.616              1.908              2.740
 Vibration     5          0.622              1.891              2.548
 Vibration     6          0.632              1.857              2.252
 Vibration     7          0.636              1.844              2.161
 Vibration     8          0.659              1.774              1.779
 Vibration     9          0.663              1.760              1.720
 Vibration    10          0.673              1.732              1.610
 Vibration    11          0.693              1.672              1.411
 Vibration    12          0.708              1.628              1.291
 Vibration    13          0.722              1.588              1.196
 Vibration    14          0.730              1.567              1.148
 Vibration    15          0.776              1.443              0.918
 Vibration    16          0.795              1.397              0.846
 Vibration    17          0.842              1.282              0.695
 Vibration    18          0.872              1.213              0.618
 Vibration    19          0.897              1.157              0.561
 Vibration    20          0.903              1.146              0.550
 Vibration    21          0.959              1.030              0.448

                           ! Non-Optimized Parameters !
 Normal termination of Gaussian 16 at Thu Dec 10 09:24:59 2020.

 ----------------------------------------------------------------------
 # B3LYP/6-311++G(d,p) empiricaldispersion=gd3bj scf=xqc pop=npa geom=c
 heck
 ----------------------------------------------------------------------

 ------------------------------------
 CID_579657_JID_4001_Energie_neutraal
 ------------------------------------
 Structure from the checkpoint file:  "JID_4001.chk"
 Charge =  0 Multiplicity = 1

 SCF Done:  E(RB3LYP) =  -654.657418189     A.U. after   15 cycles
 Normal termination of Gaussian 16 at Thu Dec 10 09:28:28 2020.

 ----------------------------------------------------------------------
 # B3LYP/6-311++G(d,p) empiricaldispersion=gd3bj scf=xqc pop=npa geom=c
 heck
 ----------------------------------------------------------------------

 ----------------------------------
 CID_579657_JID_4001_Energie_kation
 ----------------------------------
 Structure from the checkpoint file:  "JID_4001.chk"
 Charge =  1 Multiplicity = 2

 SCF Done:  E(UB3LYP) =  -654.350695413     A.U. after   25 cycles
 Normal termination of Gaussian 16 at Thu Dec 10 09:36:15 2020.
 Gaussian 16:  ES64L-G16RevA.03 25-Dec-2016

 ----------------------------------------------------------------------
 # B3LYP/6-311++G(d,p) empiricaldispersion=gd3bj scf=xqc pop=npa geom=c
 heck
 ----------------------------------------------------------------------

 ---------------------------------
 CID_579657_JID_4001_Energie_anion
 ---------------------------------
 Structure from the checkpoint file:  "JID_4001.chk"
 Charge = -1 Multiplicity = 2

                         Standard orientation:
 ---------------------------------------------------------------------
 Center     Atomic      Atomic             Coordinates (Angstroms)
 Number     Number       Type             X           Y           Z
 ---------------------------------------------------------------------
      1          6           0       -3.751764   -0.113089   -0.891800
      2          8           0       -2.936837   -0.568489    0.171184
      3          6           0       -1.554583   -0.197062    0.125941
      4          6           0       -1.392877    1.332063   -0.040937
      5          6           0       -0.034855    1.894531    0.421414
      6          6           0        1.226517    1.156853   -0.016049
      7          8           0        2.174077    1.766005   -0.472522
      8          6           0        1.264472   -0.375294    0.191469
      9          6           0        0.559284   -0.759854    1.520025
     10          6           0       -0.984799   -0.663493    1.485291
     11          6           0        0.501305   -1.011669   -0.956901
     12          6           0       -0.829142   -0.935381   -0.979405
     13          8           0        2.579088   -0.880907    0.327888
     14          6           0        3.512769   -0.701086   -0.733657
     15          1           0       -3.351727   -0.387971   -1.878656
     16          1           0       -3.899893    0.975243   -0.870713
     17          1           0       -4.721732   -0.599688   -0.762839
     18          1           0       -1.554387    1.605433   -1.089338
     19          1           0       -2.179659    1.817725    0.549225
     20          1           0        0.077654    2.931010    0.092531
     21          1           0       -0.011949    1.906627    1.520023
     22          1           0        0.980852   -0.150584    2.326046
     23          1           0        0.868468   -1.789603    1.711749
     24          1           0       -1.426114   -1.644386    1.676557
     25          1           0       -1.358282    0.007264    2.266253
     26          1           0        1.066046   -1.534992   -1.721700
     27          1           0       -1.415765   -1.409602   -1.760874
     28          1           0        4.202427   -1.549368   -0.676812
     29          1           0        3.032820   -0.705037   -1.719474
     30          1           0        4.062656    0.235942   -0.626742
 ---------------------------------------------------------------------

 SCF Done:  E(UB3LYP) =  -654.646805976     A.U. after   33 cycles
 SCF Done:  E(UB3LYP) =  -654.646805976     a.u. after    1 cycles

 The electronic state is 2-A.
 Alpha  occ. eigenvalues --  -19.02391 -19.01895 -18.98960 -10.13297 -10.13238
 Alpha  occ. eigenvalues --  -10.12992 -10.10856 -10.10365 -10.07113 -10.06990
 Alpha  occ. eigenvalues --  -10.06738 -10.06699 -10.06615 -10.06581  -0.94405
 Alpha  occ. eigenvalues --   -0.93188  -0.91772  -0.74841  -0.67309  -0.65573
 Alpha  occ. eigenvalues --   -0.64809  -0.59361  -0.57057  -0.53455  -0.51529
 Alpha  occ. eigenvalues --   -0.50554  -0.43471  -0.41952  -0.40747  -0.39264
 Alpha  occ. eigenvalues --   -0.37160  -0.36789  -0.34599  -0.34501  -0.33665
 Alpha  occ. eigenvalues --   -0.32609  -0.31731  -0.30593  -0.30529  -0.30327
 Alpha  occ. eigenvalues --   -0.29567  -0.26979  -0.26542  -0.25623  -0.24462
 Alpha  occ. eigenvalues --   -0.23325  -0.22765  -0.21533  -0.20315  -0.17749
 Alpha  occ. eigenvalues --   -0.15967  -0.15508  -0.11920   0.04611
 Alpha virt. eigenvalues --    0.06935   0.07264   0.07871   0.08752   0.09052
 Alpha virt. eigenvalues --    0.10133   0.10265   0.10670   0.11018   0.11425
 Alpha virt. eigenvalues --    0.11759   0.12366   0.13396   0.13906   0.14029

  Beta  occ. eigenvalues --  -19.02376 -19.01883 -18.98775 -10.13308 -10.13050
  Beta  occ. eigenvalues --  -10.12996 -10.10851 -10.10325 -10.07104 -10.06971
  Beta  occ. eigenvalues --  -10.06742 -10.06665 -10.06565 -10.06563  -0.94276
  Beta  occ. eigenvalues --   -0.93162  -0.91509  -0.74778  -0.67264  -0.65478
  Beta  occ. eigenvalues --   -0.64729  -0.59328  -0.56932  -0.53397  -0.51433
  Beta  occ. eigenvalues --   -0.50410  -0.43358  -0.41873  -0.40668  -0.39147
  Beta  occ. eigenvalues --   -0.37107  -0.36694  -0.34560  -0.34449  -0.33581
  Beta  occ. eigenvalues --   -0.32473  -0.31654  -0.30532  -0.30426  -0.30086
  Beta  occ. eigenvalues --   -0.29425  -0.26930  -0.26337  -0.25559  -0.24256
  Beta  occ. eigenvalues --   -0.23087  -0.22681  -0.21350  -0.20226  -0.17685
  Beta  occ. eigenvalues --   -0.15898  -0.15452  -0.11782
  Beta virt. eigenvalues --    0.07086   0.07742   0.08325   0.08681   0.09017
  Beta virt. eigenvalues --    0.09547   0.10483   0.10695   0.10897   0.11360
  Beta virt. eigenvalues --    0.11975   0.12141   0.12722   0.13596   0.14046

 Mulliken charges and spin densities:
               1          2
     1  C    1.195465  -1.381846
     2  O   -0.087787   0.026948
     3  C   -1.705102   1.528392
     4  C    0.930264  -0.885234
     5  C    0.426549  -1.115270
     6  C   -0.021762   0.061582
     7  O   -0.327610   0.080098
     8  C   -0.379889   0.243703
     9  C    0.193152  -0.631210
    10  C   -0.225678  -0.160587
    11  C    0.355604  -0.399872
    12  C    0.515946  -0.646857
    13  O   -0.097896   0.004166
    14  C   -0.079518  -0.084949
    15  H   -0.296226   0.414066
    16  H   -0.495603   0.647242
    17  H   -0.389455   0.545971
    18  H    0.104391   0.057486
    19  H   -0.352621   0.544344
    20  H   -0.053029   0.266475
    21  H   -0.121478   0.305952
    22  H    0.133976   0.039538
    23  H    0.174008  -0.001442
    24  H    0.079662   0.106310
    25  H   -0.129102   0.318276
    26  H   -0.299903   0.469856
    27  H   -0.352321   0.542810
    28  H    0.061082   0.063894
    29  H    0.111197   0.008866
    30  H    0.133684   0.031290
 Sum of Mulliken charges =  -1.00000   1.00000

 Dipole moment (field-independent basis, Debye):
    X=              5.0211    Y=             -2.0744    Z=              1.3574  Tot=              5.5997
 Quadrupole moment (field-independent basis, Debye-Ang):
   XX=           -149.0774   YY=           -121.9695   ZZ=           -117.2363
   XY=             -1.5645   XZ=             -4.4752   YZ=             -4.8860

 Summary of Natural Population Analysis:

                                       Natural Population
                Natural  -----------------------------------------------
    Atom  No    Charge         Core      Valence    Rydberg      Total
 -----------------------------------------------------------------------
      C    1   -0.09926      0.99959     2.09038    0.00929     3.09926
      O    2   -0.30402      0.99987     3.29274    0.01141     4.30402
      C    3    0.12542      0.99946     1.85751    0.01760     2.87458
      C    4   -0.19608      0.99957     2.18680    0.00971     3.19608
      C    5   -0.24024      0.99958     2.23031    0.01035     3.24024
      C    6    0.31615      0.99960     1.66067    0.02358     2.68385
      O    7   -0.27883      0.99987     3.27220    0.00676     4.27883
      C    8    0.09127      0.99942     1.89320    0.01610     2.90873
      C    9   -0.18991      0.99959     2.17973    0.01059     3.18991
      C   10   -0.19488      0.99958     2.18491    0.01039     3.19488
      C   11   -0.10543      0.99948     2.09377    0.01218     3.10543
      C   12   -0.09146      0.99946     2.07870    0.01330     3.09146
      O   13   -0.30324      0.99986     3.29276    0.01062     4.30324
      C   14   -0.09718      0.99959     2.08928    0.00830     3.09718
      H   15    0.07907      0.00000     0.41876    0.00217     0.42093
      H   16    0.08190      0.00000     0.41612    0.00198     0.41810
      H   17    0.09101      0.00000     0.40774    0.00125     0.40899
      H   18    0.10074      0.00000     0.39744    0.00182     0.39926
      H   19    0.10814      0.00000     0.38966    0.00221     0.39186
      H   20    0.11078      0.00000     0.38789    0.00133     0.38922
      H   21    0.11191      0.00000     0.38588    0.00221     0.38809
      H   22    0.10177      0.00000     0.39682    0.00141     0.39823
      H   23    0.10634      0.00000     0.39228    0.00138     0.39366
      H   24    0.10797      0.00000     0.39066    0.00137     0.39203
      H   25    0.10477      0.00000     0.39381    0.00142     0.39523
      H   26    0.10412      0.00000     0.39428    0.00160     0.39588
      H   27    0.10681      0.00000     0.39179    0.00140     0.39319
      H   28    0.07940      0.00000     0.41948    0.00111     0.42060
      H   29    0.08131      0.00000     0.41745    0.00124     0.41869
      H   30    0.09164      0.00000     0.40704    0.00132     0.40836
 =======================================================================
   * Total *    0.00000     13.99453    38.81007    0.19540    53.00000

 Normal termination of Gaussian 16 at Thu Dec 10 09:46:43 2020.
