 Gaussian 16, Revision A.03,

 -----------------------------------------------------------
 # opt freq B3LYP/6-31G(d) empiricaldispersion=gd3bj scf=xqc
 -----------------------------------------------------------

 -------------------------------
 CID_150004892_JID_2375_neutraal
 -------------------------------
 Symbolic Z-matrix:
 Charge =  0 Multiplicity = 1

 SCF Done:  E(RB3LYP) =  -533.434348147     A.U. after   15 cycles
 SCF Done:  E(RB3LYP) =  -533.442002936     A.U. after   15 cycles
 SCF Done:  E(RB3LYP) =  -533.442586881     A.U. after   13 cycles
 SCF Done:  E(RB3LYP) =  -533.443386301     A.U. after   12 cycles
 SCF Done:  E(RB3LYP) =  -533.443460910     A.U. after   12 cycles
 SCF Done:  E(RB3LYP) =  -533.443581909     A.U. after   12 cycles
 SCF Done:  E(RB3LYP) =  -533.443777577     A.U. after   12 cycles
 SCF Done:  E(RB3LYP) =  -533.431478963     A.U. after   16 cycles
 SCF Done:  E(RB3LYP) =  -533.444583381     A.U. after   13 cycles
 SCF Done:  E(RB3LYP) =  -533.413836784     A.U. after   16 cycles
 SCF Done:  E(RB3LYP) =  -533.450075001     A.U. after    9 cycles
 SCF Done:  E(RB3LYP) =  -533.450075571     A.U. after    9 cycles
 SCF Done:  E(RB3LYP) =  -533.450075708     A.U. after    8 cycles
 SCF Done:  E(RB3LYP) =  -533.450075768     A.U. after    8 cycles
 SCF Done:  E(RB3LYP) =  -533.450075798     A.U. after    8 cycles
 Optimization completed.
    -- Stationary point found.

 1\1\GINC-NODE360\FOpt\RB3LYP\6-31G(d)\C8H16N4\VSC10255\09-Dec-2020\0\\
 # opt freq B3LYP/6-31G(d) empiricaldispersion=gd3bj scf=xqc\\CID_15000
 4892_JID_2375_neutraal\\0,1\C,1.5822547166,0.0916017252,0.0648800896\C
 ,0.7477193144,1.2337144611,0.6635407242\C,1.1599136987,2.5707669943,0.
 0276023132\C,-0.7458821926,0.9820707827,0.3938828513\C,1.0030450728,1.
 3320704597,2.1832111494\N,0.6069388522,0.1151811205,2.8944206642\C,1.1
 632528169,-0.0659861793,4.2330445861\C,0.6577850258,0.8885395041,5.294
 4522261\C,-0.2618999735,0.5607203906,6.21158113\N,1.2505360552,2.18053

 Normal termination of Gaussian 16 at Wed Dec  9 17:22:49 2020.

 --------------------------------------------------------------------
 #N Geom=AllCheck Guess=TCheck SCRF=Check GenChk RB3LYP/6-31G(d) Freq
 --------------------------------------------------------------------

 Structure from the checkpoint file:  "JID_2375.chk"
 -------------------------------
 CID_150004892_JID_2375_neutraal
 -------------------------------
 Charge =  0 Multiplicity = 1

 SCF Done:  E(RB3LYP) =  -533.450075798     A.U. after    1 cycles

  Exact polarizability: 132.547  -8.038 118.154  11.639   3.284  88.796
 Approx polarizability: 184.635 -31.025 186.998  28.935   1.045 138.662

                      1                      2                      3
                      A                      A                      A
 Frequencies --     25.6888                34.6574                49.1825
 Red. masses --      3.2437                 3.8507                 5.8959
 Frc consts  --      0.0013                 0.0027                 0.0084
 IR Inten    --      0.3550                 0.2699                 0.3132

                      4                      5                      6
                      A                      A                      A
 Frequencies --     94.9381               118.5748               159.6122
 Red. masses --      4.9996                 2.5793                 4.6035
 Frc consts  --      0.0266                 0.0214                 0.0691
 IR Inten    --      0.0592                 0.3116                 0.6696

                      7                      8                      9
                      A                      A                      A
 Frequencies --    179.9674               223.7052               244.8297
 Red. masses --      5.0042                 1.1170                 2.3127
 Frc consts  --      0.0955                 0.0329                 0.0817
 IR Inten    --      0.9197                 0.2666                 2.9581

                     10                     11                     12
                      A                      A                      A
 Frequencies --    266.3588               280.2724               308.2289
 Red. masses --      1.0391                 1.1512                 2.8982
 Frc consts  --      0.0434                 0.0533                 0.1622
 IR Inten    --      0.4312                 0.5344                 0.6579

                     13                     14                     15
                      A                      A                      A
 Frequencies --    332.8505               342.7846               402.9710
 Red. masses --      2.1682                 2.3010                 2.2596
 Frc consts  --      0.1415                 0.1593                 0.2162
 IR Inten    --      0.1220                 0.9379                 0.4043

                     16                     17                     18
                      A                      A                      A
 Frequencies --    417.7753               440.0322               459.3988
 Red. masses --      2.0829                 2.1810                 2.9568
 Frc consts  --      0.2142                 0.2488                 0.3677
 IR Inten    --      0.1422                 1.2310                 9.8131

                     19                     20                     21
                      A                      A                      A
 Frequencies --    505.0515               554.5643               615.2423
 Red. masses --      2.6437                13.2642                 5.7164
 Frc consts  --      0.3973                 2.4035                 1.2749
 IR Inten    --      2.1179                10.7645                11.3871

                     22                     23                     24
                      A                      A                      A
 Frequencies --    690.6376               723.1388               761.3570
 Red. masses --      3.2606                 1.1047                 2.4930
 Frc consts  --      0.9163                 0.3404                 0.8514
 IR Inten    --     10.2269                 0.7851                17.1537

                     25                     26                     27
                      A                      A                      A
 Frequencies --    781.8765               858.7007               870.0484
 Red. masses --      1.8113                 3.7783                 1.4559
 Frc consts  --      0.6524                 1.6415                 0.6493
 IR Inten    --    107.0217                 8.5035                46.3489

                     28                     29                     30
                      A                      A                      A
 Frequencies --    917.9333               923.8619               949.9883
 Red. masses --      2.2320                 1.9168                 1.6736
 Frc consts  --      1.1081                 0.9639                 0.8899
 IR Inten    --      2.1346                 6.3210                 2.8282

                     31                     32                     33
                      A                      A                      A
 Frequencies --    956.7559               968.3990               972.6639
 Red. masses --      1.4709                 1.8756                 1.3728
 Frc consts  --      0.7933                 1.0363                 0.7652
 IR Inten    --      0.7279                13.5477                 7.7832

                     34                     35                     36
                      A                      A                      A
 Frequencies --    977.3954              1037.7358              1071.2884
 Red. masses --      1.8260                 1.5500                 1.4995
 Frc consts  --      1.0278                 0.9835                 1.0139
 IR Inten    --      3.3983                 0.5661                 6.6472

                     37                     38                     39
                      A                      A                      A
 Frequencies --   1113.5816              1157.3187              1208.5471
 Red. masses --      1.6281                 3.7261                 1.6627
 Frc consts  --      1.1895                 2.9405                 1.4308
 IR Inten    --      4.7032                72.0047                 2.1686

                     40                     41                     42
                      A                      A                      A
 Frequencies --   1253.8619              1262.0216              1296.6064
 Red. masses --      2.3117                 2.6677                 2.6866
 Frc consts  --      2.1413                 2.5033                 2.6612
 IR Inten    --      7.9047                 7.6424                 5.8242

                     43                     44                     45
                      A                      A                      A
 Frequencies --   1310.3002              1345.5471              1364.3898
 Red. masses --      1.8412                 3.6276                 1.4611
 Frc consts  --      1.8625                 3.8696                 1.6026
 IR Inten    --     10.7456               162.4534                33.4123

                     46                     47                     48
                      A                      A                      A
 Frequencies --   1386.0104              1412.2819              1422.5131
 Red. masses --      1.2911                 1.3078                 1.2650
 Frc consts  --      1.4613                 1.5368                 1.5081
 IR Inten    --     15.3902                 1.0063                 8.3797

                     49                     50                     51
                      A                      A                      A
 Frequencies --   1427.0043              1457.9127              1464.0198
 Red. masses --      1.2723                 1.2334                 1.2085
 Frc consts  --      1.5264                 1.5446                 1.5261
 IR Inten    --      4.4659                 9.4888                 8.0374

                     52                     53                     54
                      A                      A                      A
 Frequencies --   1496.5356              1510.2056              1511.4825
 Red. masses --      1.0905                 1.0533                 1.1548
 Frc consts  --      1.4389                 1.4154                 1.5544
 IR Inten    --      2.5708                 0.8420                 9.2331

                     55                     56                     57
                      A                      A                      A
 Frequencies --   1517.8194              1522.3844              1532.6028
 Red. masses --      1.0568                 1.0510                 1.1030
 Frc consts  --      1.4344                 1.4351                 1.5265
 IR Inten    --      2.0628                 0.7901                17.5699

                     58                     59                     60
                      A                      A                      A
 Frequencies --   1535.6429              1542.8972              1554.0337
 Red. masses --      1.0762                 1.0606                 1.0617
 Frc consts  --      1.4953                 1.4876                 1.5106
 IR Inten    --     13.6409                 4.9227                10.9277

                     61                     62                     63
                      A                      A                      A
 Frequencies --   1697.4190              2267.0870              2980.0137
 Red. masses --      4.8317                13.9553                 1.0703
 Frc consts  --      8.2022                42.2596                 5.6000
 IR Inten    --     42.8623               521.2974                53.2356

                     64                     65                     66
                      A                      A                      A
 Frequencies --   3034.9578              3037.6449              3045.4266
 Red. masses --      1.0353                 1.0357                 1.0383
 Frc consts  --      5.6186                 5.6308                 5.6737
 IR Inten    --     32.1353                35.0003                17.1393

                     67                     68                     69
                      A                      A                      A
 Frequencies --   3059.5748              3070.4262              3098.9721
 Red. masses --      1.0599                 1.0897                 1.1022
 Frc consts  --      5.8457                 6.0528                 6.2368
 IR Inten    --     25.1196                22.4515                 1.1930

                     70                     71                     72
                      A                      A                      A
 Frequencies --   3101.6516              3104.3598              3106.6968
 Red. masses --      1.1012                 1.1017                 1.1061
 Frc consts  --      6.2416                 6.2556                 6.2898
 IR Inten    --     17.4798                54.7472                24.7547

                     73                     74                     75
                      A                      A                      A
 Frequencies --   3108.9091              3111.8214              3136.4055
 Red. masses --      1.1018                 1.1013                 1.0998
 Frc consts  --      6.2742                 6.2833                 6.3740
 IR Inten    --     47.1000                59.9841                24.4193

                     76                     77                     78
                      A                      A                      A
 Frequencies --   3178.0285              3261.3907              3506.5589
 Red. masses --      1.0603                 1.1161                 1.0736
 Frc consts  --      6.3095                 6.9943                 7.7776
 IR Inten    --      1.7008                 5.3784                 0.1214

 - Thermochemistry -
 -------------------
 Temperature   298.150 Kelvin.  Pressure   1.00000 Atm.
 Atom     1 has atomic number  6 and mass  12.00000

 Molecular mass:   168.13750 amu.
 Principal axes and moments of inertia in atomic units:
                           1         2         3
     Eigenvalues --  1138.077224134.845764693.83691
           X            0.99964   0.02686   0.00276
           Y           -0.02688   0.99962   0.00653
           Z           -0.00259  -0.00660   0.99997
 This molecule is an asymmetric top.
 Rotational symmetry number  1.
 Warning -- assumption of classical behavior for rotation
           may cause significant error
 Rotational temperatures (Kelvin)      0.07611     0.02095     0.01845
 Rotational constants (GHZ):           1.58578     0.43647     0.38449
 Zero-point vibrational energy     640189.5 (Joules/Mol)
                                  153.00897 (Kcal/Mol)
 Warning -- explicit consideration of  21 degrees of freedom as
           vibrations may cause significant error
 Vibrational temperatures:     36.96    49.86    70.76   136.59   170.60
          (Kelvin)            229.65   258.93   321.86   352.26   383.23
                              403.25   443.47   478.90   493.19   579.79
                              601.09   633.11   660.97   726.66   797.89
                              885.20   993.67  1040.44  1095.42  1124.95
                             1235.48  1251.81  1320.70  1329.23  1366.82
                             1376.56  1393.31  1399.45  1406.25  1493.07
                             1541.35  1602.20  1665.12  1738.83  1804.03
                             1815.77  1865.53  1885.23  1935.94  1963.05
                             1994.16  2031.96  2046.68  2053.14  2097.61
                             2106.40  2153.18  2172.85  2174.69  2183.80
                             2190.37  2205.07  2209.45  2219.88  2235.91
                             2442.21  3261.83  4287.58  4366.63  4370.49
                             4381.69  4402.05  4417.66  4458.73  4462.58
                             4466.48  4469.84  4473.03  4477.22  4512.59
                             4572.47  4692.41  5045.16

 Zero-point correction=                           0.243835 (Hartree/Particle)
 Thermal correction to Energy=                    0.257793
 Thermal correction to Enthalpy=                  0.258737
 Thermal correction to Gibbs Free Energy=         0.202015
 Sum of electronic and zero-point Energies=           -533.206240
 Sum of electronic and thermal Energies=              -533.192283
 Sum of electronic and thermal Enthalpies=            -533.191339
 Sum of electronic and thermal Free Energies=         -533.248060

                     E (Thermal)             CV                S
                      KCal/Mol        Cal/Mol-Kelvin    Cal/Mol-Kelvin
 Total                  161.767             51.045            119.381
 Electronic               0.000              0.000              0.000
 Translational            0.889              2.981             41.267
 Rotational               0.889              2.981             31.469
 Vibrational            159.990             45.084             46.645
 Vibration     1          0.593              1.985              6.137
 Vibration     2          0.594              1.983              5.543
 Vibration     3          0.595              1.978              4.850
 Vibration     4          0.603              1.953              3.556
 Vibration     5          0.609              1.934              3.123
 Vibration     6          0.621              1.892              2.554
 Vibration     7          0.629              1.867              2.329
 Vibration     8          0.649              1.805              1.929
 Vibration     9          0.660              1.771              1.768
 Vibration    10          0.672              1.735              1.620
 Vibration    11          0.680              1.710              1.532
 Vibration    12          0.698              1.658              1.372
 Vibration    13          0.715              1.610              1.246
 Vibration    14          0.722              1.590              1.199
 Vibration    15          0.768              1.464              0.952
 Vibration    16          0.781              1.432              0.900
 Vibration    17          0.800              1.383              0.827
 Vibration    18          0.817              1.340              0.768
 Vibration    19          0.860              1.239              0.646
 Vibration    20          0.910              1.130              0.535
 Vibration    21          0.975              1.000              0.424

 Optimization completed.
    -- Stationary point found.

 1\1\GINC-NODE360\Freq\RB3LYP\6-31G(d)\C8H16N4\VSC10255\09-Dec-2020\0\\
 #N Geom=AllCheck Guess=TCheck SCRF=Check GenChk RB3LYP/6-31G(d) Freq\\
 CID_150004892_JID_2375_neutraal\\0,1\C,1.5822547166,0.0916017252,0.064
 8800896\C,0.7477193144,1.2337144611,0.6635407242\C,1.1599136987,2.5707
 669943,0.0276023132\C,-0.7458821926,0.9820707827,0.3938828513\C,1.0030
 450728,1.3320704597,2.1832111494\N,0.6069388522,0.1151811205,2.8944206
 642\C,1.1632528169,-0.0659861793,4.2330445861\C,0.6577850258,0.8885395
 041,5.2944522261\C,-0.2618999735,0.5607203906,6.21158113\N,1.250536055

 Normal termination of Gaussian 16 at Wed Dec  9 17:28:45 2020.

 ----------------------------------------------------------------------
 # B3LYP/6-311++G(d,p) empiricaldispersion=gd3bj scf=xqc pop=npa geom=c
 heck
 ----------------------------------------------------------------------

 ---------------------------------------
 CID_150004892_JID_2375_Energie_neutraal
 ---------------------------------------
 Structure from the checkpoint file:  "JID_2375.chk"
 Charge =  0 Multiplicity = 1

 SCF Done:  E(RB3LYP) =  -533.603601022     A.U. after   17 cycles
 Normal termination of Gaussian 16 at Wed Dec  9 17:31:54 2020.

 ----------------------------------------------------------------------
 # B3LYP/6-311++G(d,p) empiricaldispersion=gd3bj scf=xqc pop=npa geom=c
 heck
 ----------------------------------------------------------------------

 -------------------------------------
 CID_150004892_JID_2375_Energie_kation
 -------------------------------------
 Structure from the checkpoint file:  "JID_2375.chk"
 Charge =  1 Multiplicity = 2

 SCF Done:  E(UB3LYP) =  -533.304145591     A.U. after   26 cycles
 Normal termination of Gaussian 16 at Wed Dec  9 17:38:07 2020.
 Gaussian 16:  ES64L-G16RevA.03 25-Dec-2016

 ------------------------------------
 CID_150004892_JID_2375_Energie_anion
 ------------------------------------
 Structure from the checkpoint file:  "JID_2375.chk"
 Charge = -1 Multiplicity = 2

                         Standard orientation:
 ---------------------------------------------------------------------
 Center     Atomic      Atomic             Coordinates (Angstroms)
 Number     Number       Type             X           Y           Z
 ---------------------------------------------------------------------
      1          6           0        3.277595   -0.612803    0.839379
      2          6           0        2.456195    0.312146   -0.071134
      3          6           0        2.855213    1.775852    0.174593
      4          6           0        2.716708   -0.044800   -1.544772
      5          6           0        0.952916    0.169304    0.251374
      6          7           0        0.458861   -1.188259    0.013735
      7          6           0       -0.806213   -1.541206    0.653450
      8          6           0       -2.037950   -0.846132    0.112247
      9          6           0       -2.911483   -1.424806   -0.722311
     10          7           0       -2.127450    0.503033    0.568211
     11          7           0       -3.052858    1.197783    0.128230
     12          7           0       -3.860289    1.930253   -0.204904
     13          1           0        4.345173   -0.554864    0.595590
     14          1           0        2.947342   -1.649540    0.729595
     15          1           0        3.158252   -0.329365    1.892540
     16          1           0        3.922399    1.927410   -0.025197
     17          1           0        2.292122    2.457405   -0.474782
     18          1           0        2.664707    2.067943    1.214553
     19          1           0        2.500771   -1.100550   -1.743798
     20          1           0        2.101059    0.567069   -2.216785
     21          1           0        3.767220    0.128756   -1.805349
     22          1           0        0.795745    0.392848    1.313760
     23          1           0        0.393617    0.936162   -0.310417
     24          1           0        0.378932   -1.355137   -0.986699
     25          1           0       -0.952792   -2.620997    0.543161
     26          1           0       -0.711654   -1.328390    1.724601
     27          1           0       -3.772516   -0.903657   -1.130570
     28          1           0       -2.776113   -2.460085   -1.014067
 ---------------------------------------------------------------------

 SCF Done:  E(UB3LYP) =  -533.594086885     A.U. after   33 cycles
 SCF Done:  E(UB3LYP) =  -533.595132909     a.u. after    9 cycles

 The electronic state is 2-A.
 Alpha  occ. eigenvalues --  -14.32974 -14.24279 -14.23229 -14.18932 -10.09954
 Alpha  occ. eigenvalues --  -10.09020 -10.07343 -10.07176 -10.05098 -10.04976
 Alpha  occ. eigenvalues --  -10.04386 -10.04258  -1.00643  -0.85415  -0.79861
 Alpha  occ. eigenvalues --   -0.70927  -0.67113  -0.58187  -0.58053  -0.57516
 Alpha  occ. eigenvalues --   -0.54465  -0.50900  -0.43141  -0.40565  -0.38551
 Alpha  occ. eigenvalues --   -0.38032  -0.36520  -0.35385  -0.34518  -0.33174
 Alpha  occ. eigenvalues --   -0.32604  -0.31264  -0.31086  -0.29669  -0.27888
 Alpha  occ. eigenvalues --   -0.27661  -0.26026  -0.25527  -0.25338  -0.21981
 Alpha  occ. eigenvalues --   -0.21636  -0.21282  -0.20250  -0.18594  -0.12287
 Alpha  occ. eigenvalues --   -0.10732   0.04941
 Alpha virt. eigenvalues --    0.06653   0.07889   0.08608   0.08881   0.09142
 Alpha virt. eigenvalues --    0.09868   0.10566   0.10660   0.11201   0.12080
 Alpha virt. eigenvalues --    0.12621   0.12926   0.13591   0.14079   0.14819

  Beta  occ. eigenvalues --  -14.32571 -14.23869 -14.23295 -14.18922 -10.09842
  Beta  occ. eigenvalues --  -10.09015 -10.07319 -10.07175 -10.05070 -10.04952
  Beta  occ. eigenvalues --  -10.04319 -10.04232  -0.99954  -0.85128  -0.79823
  Beta  occ. eigenvalues --   -0.70885  -0.66898  -0.58109  -0.58001  -0.57467
  Beta  occ. eigenvalues --   -0.54263  -0.50712  -0.43085  -0.40243  -0.37849
  Beta  occ. eigenvalues --   -0.37408  -0.36413  -0.35280  -0.34367  -0.32716
  Beta  occ. eigenvalues --   -0.32036  -0.31086  -0.30739  -0.29557  -0.27840
  Beta  occ. eigenvalues --   -0.27604  -0.25992  -0.25495  -0.25302  -0.21946
  Beta  occ. eigenvalues --   -0.21606  -0.21237  -0.19930  -0.17841  -0.12184
  Beta  occ. eigenvalues --   -0.10402
  Beta virt. eigenvalues --    0.07142   0.08144   0.08810   0.09337   0.09467
  Beta virt. eigenvalues --    0.09915   0.10501   0.10765   0.11127   0.11382
  Beta virt. eigenvalues --    0.12152   0.12877   0.13165   0.13685   0.14251

 Mulliken charges and spin densities:
               1          2
     1  C    0.606840  -1.185518
     2  C   -2.565147   3.266168
     3  C    0.233554  -0.818625
     4  C    0.478498  -1.062080
     5  C    1.070823  -2.024675
     6  N    0.027829   0.029224
     7  C    0.060521  -0.576358
     8  C    0.019545   0.127906
     9  C   -0.443095   0.067847
    10  N   -0.805197   0.704683
    11  N    0.782767  -0.308188
    12  N    0.021236  -0.100908
    13  H   -0.287000   0.436386
    14  H    0.061832   0.100667
    15  H   -0.116945   0.240489
    16  H   -0.285006   0.444319
    17  H   -0.070201   0.195196
    18  H   -0.082444   0.210058
    19  H   -0.034347   0.148677
    20  H    0.006838   0.141157
    21  H   -0.356252   0.512154
    22  H    0.144443   0.035474
    23  H    0.143062   0.040608
    24  H    0.184917   0.027452
    25  H    0.093849   0.082937
    26  H   -0.066850   0.239797
    27  H    0.123100  -0.018417
    28  H    0.052830   0.043572
 Sum of Mulliken charges =  -1.00000   1.00000

 Dipole moment (field-independent basis, Debye):
    X=             -2.2286    Y=             -2.6931    Z=             -0.3443  Tot=              3.5125
 Quadrupole moment (field-independent basis, Debye-Ang):
   XX=           -156.3784   YY=           -105.2248   ZZ=            -97.7553
   XY=              5.6220   XZ=              1.8609   YZ=              2.3333

 Summary of Natural Population Analysis:

                                       Natural Population
                Natural  -----------------------------------------------
    Atom  No    Charge         Core      Valence    Rydberg      Total
 -----------------------------------------------------------------------
      C    1   -0.28651      0.99962     2.27916    0.00773     3.28651
      C    2   -0.05523      0.99959     2.04336    0.01228     3.05523
      C    3   -0.28363      0.99962     2.27664    0.00736     3.28363
      C    4   -0.28812      0.99962     2.28102    0.00748     3.28812
      C    5   -0.08265      0.99956     2.07180    0.01128     3.08265
      N    6   -0.33737      0.99974     2.82726    0.01037     3.83737
      C    7   -0.09564      0.99957     2.08449    0.01158     3.09564
      C    8    0.08345      0.99946     1.90262    0.01447     2.91655
      C    9   -0.23572      0.99951     2.22941    0.00680     3.23572
      N   10   -0.21257      0.99965     2.69804    0.01488     3.71257
      N   11    0.15815      0.99971     2.32622    0.01592     3.34185
      N   12    0.00177      0.99981     2.48560    0.01282     3.49823
      H   13    0.09704      0.00000     0.40184    0.00112     0.40296
      H   14    0.10678      0.00000     0.39175    0.00148     0.39322
      H   15    0.09698      0.00000     0.40206    0.00096     0.40302
      H   16    0.09976      0.00000     0.39919    0.00105     0.40024
      H   17    0.09890      0.00000     0.40004    0.00106     0.40110
      H   18    0.09895      0.00000     0.40004    0.00101     0.40105
      H   19    0.09895      0.00000     0.40001    0.00104     0.40105
      H   20    0.09791      0.00000     0.40125    0.00083     0.40209
      H   21    0.10121      0.00000     0.39767    0.00111     0.39879
      H   22    0.09622      0.00000     0.40219    0.00159     0.40378
      H   23    0.08881      0.00000     0.40968    0.00151     0.41119
      H   24    0.17080      0.00000     0.32611    0.00309     0.32920
      H   25    0.09371      0.00000     0.40528    0.00102     0.40629
      H   26    0.09910      0.00000     0.39950    0.00140     0.40090
      H   27    0.09563      0.00000     0.40331    0.00107     0.40437
      H   28    0.09332      0.00000     0.40573    0.00095     0.40668
 =======================================================================
   * Total *    0.00000     11.99547    33.85127    0.15326    46.00000

 Normal termination of Gaussian 16 at Wed Dec  9 18:32:17 2020.
