 Gaussian 16, Revision A.03,

 -----------------------------------------------------------
 # opt freq B3LYP/6-31G(d) empiricaldispersion=gd3bj scf=xqc
 -----------------------------------------------------------

 ------------------------------
 CID_83818532_JID_4336_neutraal
 ------------------------------
 Symbolic Z-matrix:
 Charge =  0 Multiplicity = 1

 SCF Done:  E(RB3LYP) =  -704.041316443     A.U. after   15 cycles
 SCF Done:  E(RB3LYP) =  -704.045650510     A.U. after   14 cycles
 SCF Done:  E(RB3LYP) =  -704.044929900     A.U. after   14 cycles
 SCF Done:  E(RB3LYP) =  -704.047476752     A.U. after   13 cycles
 SCF Done:  E(RB3LYP) =  -704.047947649     A.U. after   13 cycles
 SCF Done:  E(RB3LYP) =  -704.048377275     A.U. after   14 cycles
 SCF Done:  E(RB3LYP) =  -704.048749701     A.U. after   12 cycles
 SCF Done:  E(RB3LYP) =  -704.048873878     A.U. after   11 cycles
 SCF Done:  E(RB3LYP) =  -704.048912525     A.U. after   12 cycles
 SCF Done:  E(RB3LYP) =  -704.048919802     A.U. after    9 cycles
 SCF Done:  E(RB3LYP) =  -704.048922277     A.U. after    9 cycles
 SCF Done:  E(RB3LYP) =  -704.048922802     A.U. after    8 cycles
 SCF Done:  E(RB3LYP) =  -704.048923370     A.U. after    9 cycles
 SCF Done:  E(RB3LYP) =  -704.048923445     A.U. after    8 cycles
 Optimization completed.
    -- Stationary point found.
 Normal termination of Gaussian 16 at Thu Dec 10 09:22:52 2020.

 --------------------------------------------------------------------
 #N Geom=AllCheck Guess=TCheck SCRF=Check GenChk RB3LYP/6-31G(d) Freq
 --------------------------------------------------------------------

 Structure from the checkpoint file:  "JID_4336.chk"
 ------------------------------
 CID_83818532_JID_4336_neutraal
 ------------------------------
 Charge =  0 Multiplicity = 1

 SCF Done:  E(RB3LYP) =  -704.048923445     A.U. after    1 cycles

  Exact polarizability: 157.536  -4.191 121.995  -1.287   2.097  60.379
 Approx polarizability: 224.521 -12.756 207.158  -2.903   8.515  97.361

                      1                      2                      3
                      A                      A                      A
 Frequencies --     34.0939                38.2396                68.8509
 Red. masses --     11.5529                 4.7301                 3.5009
 Frc consts  --      0.0079                 0.0041                 0.0098
 IR Inten    --      0.8858                 2.8964                 0.4541

                      4                      5                      6
                      A                      A                      A
 Frequencies --    105.4018               133.6465               139.6821
 Red. masses --      4.2588                 6.4162                 6.5211
 Frc consts  --      0.0279                 0.0675                 0.0750
 IR Inten    --      4.4662                 1.7247                 0.5567

                      7                      8                      9
                      A                      A                      A
 Frequencies --    170.6039               180.5187               237.3630
 Red. masses --      4.0141                 1.0425                 1.2606
 Frc consts  --      0.0688                 0.0200                 0.0418
 IR Inten    --      0.0925                 0.1078                 0.2113

                     10                     11                     12
                      A                      A                      A
 Frequencies --    279.8008               297.3496               317.0281
 Red. masses --      4.2698                 3.6298                 4.7977
 Frc consts  --      0.1969                 0.1891                 0.2841
 IR Inten    --      3.9055                 0.9244                 0.6294

                     13                     14                     15
                      A                      A                      A
 Frequencies --    366.6953               385.6466               463.9097
 Red. masses --      6.4240                 5.1504                 3.6321
 Frc consts  --      0.5089                 0.4513                 0.4606
 IR Inten    --      0.5179                 1.8129                 4.0101

                     16                     17                     18
                      A                      A                      A
 Frequencies --    475.6965               519.7852               551.3990
 Red. masses --      5.0860                 4.3502                 3.6333
 Frc consts  --      0.6781                 0.6925                 0.6509
 IR Inten    --      4.0225                 3.9046                 6.5905

                     19                     20                     21
                      A                      A                      A
 Frequencies --    587.7551               633.5862               640.8255
 Red. masses --      2.5686                 1.8266                 5.3766
 Frc consts  --      0.5228                 0.4320                 1.3009
 IR Inten    --     86.6671                40.2197                54.3166

                     22                     23                     24
                      A                      A                      A
 Frequencies --    675.4579               681.7963               757.4271
 Red. masses --      3.2431                 4.2413                 4.6469
 Frc consts  --      0.8718                 1.1616                 1.5707
 IR Inten    --     18.6196                 8.7229                17.5537

                     25                     26                     27
                      A                      A                      A
 Frequencies --    780.2031               822.2792               846.4517
 Red. masses --      6.5506                 6.6828                 1.5585
 Frc consts  --      2.3493                 2.6622                 0.6579
 IR Inten    --     11.6758                 7.7407                32.4328

                     28                     29                     30
                      A                      A                      A
 Frequencies --    884.7767               963.7399               985.2159
 Red. masses --      6.0813                 1.3158                 2.0345
 Frc consts  --      2.8049                 0.7201                 1.1635
 IR Inten    --      0.9229                 0.0914                33.7233

                     31                     32                     33
                      A                      A                      A
 Frequencies --   1053.0430              1060.9207              1135.1757
 Red. masses --      1.8481                 7.0054                 5.2421
 Frc consts  --      1.2074                 4.6457                 3.9800
 IR Inten    --      1.8423                30.4103                63.2668

                     34                     35                     36
                      A                      A                      A
 Frequencies --   1151.1249              1180.0450              1184.1816
 Red. masses --      3.0964                 1.5958                 1.2726
 Frc consts  --      2.4174                 1.3093                 1.0514
 IR Inten    --     49.2908               186.7778                 2.3053

                     37                     38                     39
                      A                      A                      A
 Frequencies --   1213.3961              1220.9342              1281.1166
 Red. masses --      1.7582                 1.3825                 4.0051
 Frc consts  --      1.5252                 1.2142                 3.8730
 IR Inten    --    169.4219                22.5893               231.5182

                     40                     41                     42
                      A                      A                      A
 Frequencies --   1310.1430              1350.5096              1389.7532
 Red. masses --      3.4825                 3.4569                 3.2034
 Frc consts  --      3.5219                 3.7148                 3.6453
 IR Inten    --     74.1888               130.3447                64.3271

                     43                     44                     45
                      A                      A                      A
 Frequencies --   1407.9984              1468.7246              1483.6036
 Red. masses --      1.3265                 5.1290                 1.7540
 Frc consts  --      1.5493                 6.5187                 2.2747
 IR Inten    --     65.4031                11.5614                59.3054

                     46                     47                     48
                      A                      A                      A
 Frequencies --   1501.4322              1509.6543              1518.3851
 Red. masses --      1.0573                 1.0484                 1.8429
 Frc consts  --      1.4043                 1.4077                 2.5033
 IR Inten    --      5.1369                 9.7872                24.9160

                     49                     50                     51
                      A                      A                      A
 Frequencies --   1522.8155              1531.8560              1621.3512
 Red. masses --      1.0471                 1.0773                 5.6444
 Frc consts  --      1.4307                 1.4894                 8.7422
 IR Inten    --      7.3331                16.2186                 4.3559

                     52                     53                     54
                      A                      A                      A
 Frequencies --   1639.0395              1805.8557              1854.6862
 Red. masses --      6.6399                11.2418                10.4699
 Frc consts  --     10.5097                21.5999                21.2195
 IR Inten    --    160.7140               132.1017               297.4889

                     55                     56                     57
                      A                      A                      A
 Frequencies --   3037.7835              3051.2245              3102.4521
 Red. masses --      1.0344                 1.0387                 1.1074
 Frc consts  --      5.6239                 5.6976                 6.2799
 IR Inten    --     47.8102                 3.8032                32.9009

                     58                     59                     60
                      A                      A                      A
 Frequencies --   3110.6424              3172.2337              3176.3306
 Red. masses --      1.1001                 1.1006                 1.1006
 Frc consts  --      6.2717                 6.5253                 6.5423
 IR Inten    --     11.5384                11.7826                15.9555

                     61                     62                     63
                      A                      A                      A
 Frequencies --   3220.9725              3237.0207              3677.0934
 Red. masses --      1.0880                 1.0938                 1.0637
 Frc consts  --      6.6503                 6.7527                 8.4739
 IR Inten    --      8.2498                 7.0264                56.0555

 - Thermochemistry -
 -------------------
 Temperature   298.150 Kelvin.  Pressure   1.00000 Atm.
 Atom     1 has atomic number  6 and mass  12.00000

 Molecular mass:   195.05316 amu.
 Principal axes and moments of inertia in atomic units:
                           1         2         3
     Eigenvalues --  1684.632493768.527245228.69290
           X            1.00000  -0.00049  -0.00129
           Y            0.00048   0.99998  -0.00699
           Z            0.00129   0.00699   0.99997
 This molecule is an asymmetric top.
 Rotational symmetry number  1.
 Warning -- assumption of classical behavior for rotation
           may cause significant error
 Rotational temperatures (Kelvin)      0.05141     0.02298     0.01657
 Rotational constants (GHZ):           1.07130     0.47890     0.34516
 Zero-point vibrational energy     455817.4 (Joules/Mol)
                                  108.94298 (Kcal/Mol)
 Warning -- explicit consideration of  19 degrees of freedom as
           vibrations may cause significant error
 Vibrational temperatures:     49.05    55.02    99.06   151.65   192.29
          (Kelvin)            200.97   245.46   259.73   341.51   402.57
                              427.82   456.13   527.59   554.86   667.46
                              684.42   747.85   793.34   845.65   911.59
                              922.01   971.83   980.95  1089.77  1122.54
                             1183.08  1217.86  1273.00  1386.61  1417.51
                             1515.09  1526.43  1633.26  1656.21  1697.82
                             1703.77  1745.81  1756.65  1843.24  1885.00
                             1943.08  1999.54  2025.80  2113.17  2134.57
                             2160.23  2172.06  2184.62  2190.99  2204.00
                             2332.76  2358.21  2598.22  2668.48  4370.69
                             4390.03  4463.74  4475.52  4564.14  4570.03
                             4634.26  4657.35  5290.52

 Zero-point correction=                           0.173612 (Hartree/Particle)
 Thermal correction to Energy=                    0.186962
 Thermal correction to Enthalpy=                  0.187906
 Thermal correction to Gibbs Free Energy=         0.132273
 Sum of electronic and zero-point Energies=           -703.875312
 Sum of electronic and thermal Energies=              -703.861962
 Sum of electronic and thermal Enthalpies=            -703.861018
 Sum of electronic and thermal Free Energies=         -703.916650

                     E (Thermal)             CV                S
                      KCal/Mol        Cal/Mol-Kelvin    Cal/Mol-Kelvin
 Total                  117.320             48.136            117.088
 Electronic               0.000              0.000              0.000
 Translational            0.889              2.981             41.709
 Rotational               0.889              2.981             31.874
 Vibrational            115.543             42.174             43.505
 Vibration     1          0.594              1.983              5.576
 Vibration     2          0.594              1.982              5.348
 Vibration     3          0.598              1.969              4.186
 Vibration     4          0.605              1.945              3.352
 Vibration     5          0.613              1.920              2.893
 Vibration     6          0.615              1.914              2.808
 Vibration     7          0.626              1.879              2.429
 Vibration     8          0.629              1.866              2.323
 Vibration     9          0.656              1.783              1.823
 Vibration    10          0.680              1.711              1.535
 Vibration    11          0.691              1.679              1.432
 Vibration    12          0.704              1.641              1.325
 Vibration    13          0.740              1.541              1.094
 Vibration    14          0.754              1.501              1.017
 Vibration    15          0.821              1.330              0.755
 Vibration    16          0.832              1.304              0.722
 Vibration    17          0.875              1.206              0.610
 Vibration    18          0.907              1.137              0.541
 Vibration    19          0.945              1.058              0.471

                           ! Non-Optimized Parameters !
 Normal termination of Gaussian 16 at Thu Dec 10 09:28:46 2020.

 ----------------------------------------------------------------------
 # B3LYP/6-311++G(d,p) empiricaldispersion=gd3bj scf=xqc pop=npa geom=c
 heck
 ----------------------------------------------------------------------

 --------------------------------------
 CID_83818532_JID_4336_Energie_neutraal
 --------------------------------------
 Structure from the checkpoint file:  "JID_4336.chk"
 Charge =  0 Multiplicity = 1

 SCF Done:  E(RB3LYP) =  -704.257106105     A.U. after   16 cycles
 Normal termination of Gaussian 16 at Thu Dec 10 09:31:27 2020.

 ----------------------------------------------------------------------
 # B3LYP/6-311++G(d,p) empiricaldispersion=gd3bj scf=xqc pop=npa geom=c
 heck
 ----------------------------------------------------------------------

 ------------------------------------
 CID_83818532_JID_4336_Energie_kation
 ------------------------------------
 Structure from the checkpoint file:  "JID_4336.chk"
 Charge =  1 Multiplicity = 2

 SCF Done:  E(UB3LYP) =  -703.928457573     A.U. after   33 cycles
 SCF Done:  E(UB3LYP) =  -703.928457573     a.u. after    1 cycles
 Normal termination of Gaussian 16 at Thu Dec 10 09:39:23 2020.
 Gaussian 16:  ES64L-G16RevA.03 25-Dec-2016

 ----------------------------------------------------------------------
 # B3LYP/6-311++G(d,p) empiricaldispersion=gd3bj scf=xqc pop=npa geom=c
 heck
 ----------------------------------------------------------------------

 -----------------------------------
 CID_83818532_JID_4336_Energie_anion
 -----------------------------------
 Structure from the checkpoint file:  "JID_4336.chk"
 Charge = -1 Multiplicity = 2

                         Standard orientation:
 ---------------------------------------------------------------------
 Center     Atomic      Atomic             Coordinates (Angstroms)
 Number     Number       Type             X           Y           Z
 ---------------------------------------------------------------------
      1          6           0       -4.055738   -0.814956   -0.012287
      2          6           0       -2.991995    0.272328   -0.050344
      3          8           0       -3.296833    1.447032   -0.110171
      4          6           0       -1.547289   -0.156671   -0.014854
      5          7           0       -0.635357    0.831016    0.011943
      6          6           0        0.651654    0.523785    0.021980
      7          6           0        1.129900   -0.809444    0.033681
      8          6           0        0.186078   -1.837781    0.015885
      9          6           0       -1.165367   -1.501700   -0.012564
     10          8           0        2.467433   -0.980929    0.090678
     11          6           0        2.976441   -2.309420    0.111258
     12          6           0        1.597152    1.697213    0.068657
     13          8           0        1.549825    2.579031    0.891867
     14          8           0        2.494828    1.665514   -0.942459
     15          1           0       -5.037030   -0.338541   -0.022225
     16          1           0       -3.960927   -1.432347    0.888920
     17          1           0       -3.970807   -1.481693   -0.878960
     18          1           0        0.488334   -2.878062    0.027161
     19          1           0       -1.908253   -2.291128   -0.028246
     20          1           0        2.624995   -2.855381    0.995407
     21          1           0        2.691955   -2.856370   -0.795859
     22          1           0        4.061164   -2.208788    0.151331
     23          1           0        3.051035    2.459886   -0.828920
 ---------------------------------------------------------------------

 SCF Done:  E(UB3LYP) =  -704.269213995     A.U. after   33 cycles
 SCF Done:  E(UB3LYP) =  -704.269487446     a.u. after    9 cycles

 The electronic state is 2-A.
 Alpha  occ. eigenvalues --  -19.05908 -19.03670 -18.99651 -18.92278 -14.16494
 Alpha  occ. eigenvalues --  -10.18549 -10.12471 -10.09449 -10.08013 -10.07212
 Alpha  occ. eigenvalues --  -10.05254 -10.04306 -10.03897 -10.03323  -0.99692
 Alpha  occ. eigenvalues --   -0.95791  -0.90572  -0.86629  -0.80250  -0.66963
 Alpha  occ. eigenvalues --   -0.65519  -0.60677  -0.58952  -0.54720  -0.49617
 Alpha  occ. eigenvalues --   -0.47942  -0.42873  -0.41280  -0.38338  -0.37362
 Alpha  occ. eigenvalues --   -0.36550  -0.36221  -0.33181  -0.32827  -0.31527
 Alpha  occ. eigenvalues --   -0.30187  -0.29751  -0.28545  -0.28064  -0.27323
 Alpha  occ. eigenvalues --   -0.25711  -0.24032  -0.22892  -0.22638  -0.20965
 Alpha  occ. eigenvalues --   -0.19792  -0.17309  -0.15161  -0.11641  -0.10671
 Alpha  occ. eigenvalues --   -0.08403   0.04464
 Alpha virt. eigenvalues --    0.06397   0.08229   0.08532   0.08848   0.09855
 Alpha virt. eigenvalues --    0.10524   0.11632   0.12343   0.13029   0.13436
 Alpha virt. eigenvalues --    0.13653   0.15376   0.15570   0.16344   0.17048

  Beta  occ. eigenvalues --  -19.05904 -19.03566 -18.99645 -18.91774 -14.16333
  Beta  occ. eigenvalues --  -10.18522 -10.12461 -10.09037 -10.08105 -10.06973
  Beta  occ. eigenvalues --  -10.05331 -10.04116 -10.03700 -10.03348  -0.99673
  Beta  occ. eigenvalues --   -0.95524  -0.90561  -0.85748  -0.79923  -0.66581
  Beta  occ. eigenvalues --   -0.65190  -0.60418  -0.58888  -0.54488  -0.49034
  Beta  occ. eigenvalues --   -0.47874  -0.42636  -0.40935  -0.38225  -0.37241
  Beta  occ. eigenvalues --   -0.36324  -0.35993  -0.33113  -0.32599  -0.31397
  Beta  occ. eigenvalues --   -0.29617  -0.29537  -0.28448  -0.27928  -0.26607
  Beta  occ. eigenvalues --   -0.25436  -0.23677  -0.22503  -0.21844  -0.20884
  Beta  occ. eigenvalues --   -0.17982  -0.17076  -0.14464  -0.11381  -0.09146
  Beta  occ. eigenvalues --   -0.07923
  Beta virt. eigenvalues --    0.06526   0.08237   0.08660   0.08996   0.09892
  Beta virt. eigenvalues --    0.10505   0.10634   0.11601   0.12571   0.12963
  Beta virt. eigenvalues --    0.13486   0.14083   0.15336   0.15501   0.16318

 Mulliken charges and spin densities:
               1          2
     1  C   -0.330654  -0.031621
     2  C   -0.210452   0.067266
     3  O   -0.374763   0.180634
     4  C    0.508080   0.071621
     5  N    0.127804   0.074399
     6  C   -0.975364  -0.002812
     7  C    0.388123   0.239223
     8  C   -0.237828  -0.060781
     9  C   -0.361606   0.139648
    10  O   -0.138314   0.028161
    11  C   -0.042335  -0.275195
    12  C    0.255735   0.005245
    13  O   -0.290010   0.004025
    14  O   -0.146442   0.001231
    15  H    0.161760  -0.001825
    16  H    0.114849   0.000785
    17  H    0.060221   0.058917
    18  H    0.034215   0.117904
    19  H    0.106854   0.037854
    20  H   -0.014784   0.155686
    21  H    0.103909   0.035286
    22  H    0.011112   0.149236
    23  H    0.249890   0.005113
 Sum of Mulliken charges =  -1.00000   1.00000

 Dipole moment (field-independent basis, Debye):
    X=              5.4694    Y=             -4.7246    Z=             -0.8648  Tot=              7.2791
 Quadrupole moment (field-independent basis, Debye-Ang):
   XX=           -116.0011   YY=           -104.1626   ZZ=            -91.7276
   XY=             12.7135   XZ=             -3.9994   YZ=             -4.9689

 Summary of Natural Population Analysis:

                                       Natural Population
                Natural  -----------------------------------------------
    Atom  No    Charge         Core      Valence    Rydberg      Total
 -----------------------------------------------------------------------
      C    1   -0.33489      0.99965     2.32939    0.00586     3.33489
      C    2    0.28457      0.99967     1.69345    0.02231     2.71543
      O    3   -0.23575      0.99987     3.22908    0.00679     4.23575
      C    4    0.06997      0.99949     1.91677    0.01377     2.93003
      N    5   -0.16505      0.99965     2.65662    0.00877     3.66505
      C    6    0.00767      0.99946     1.97744    0.01543     2.99233
      C    7    0.21626      0.99937     1.77134    0.01303     2.78374
      C    8   -0.16028      0.99955     2.15062    0.01011     3.16028
      C    9   -0.05882      0.99955     2.05088    0.00839     3.05882
      O   10   -0.26186      0.99985     3.25354    0.00846     4.26186
      C   11   -0.09936      0.99961     2.09170    0.00805     3.09936
      C   12    0.40436      0.99969     1.56980    0.02615     2.59564
      O   13   -0.30111      0.99987     3.29485    0.00640     4.30111
      O   14   -0.34083      0.99988     3.33427    0.00669     4.34083
      H   15    0.10252      0.00000     0.39620    0.00128     0.39748
      H   16    0.09929      0.00000     0.39977    0.00094     0.40071
      H   17    0.09897      0.00000     0.39882    0.00221     0.40103
      H   18    0.09784      0.00000     0.40085    0.00132     0.40216
      H   19    0.09527      0.00000     0.40345    0.00127     0.40473
      H   20    0.08229      0.00000     0.41556    0.00216     0.41771
      H   21    0.08084      0.00000     0.41735    0.00181     0.41916
      H   22    0.08866      0.00000     0.41017    0.00117     0.41134
      H   23    0.22942      0.00000     0.26564    0.00493     0.27058
 =======================================================================
   * Total *    0.00000     13.99516    36.82757    0.17727    51.00000

 Normal termination of Gaussian 16 at Thu Dec 10 10:43:01 2020.
