 Gaussian 16, Revision A.03,

 -----------------------------------------------------------
 # opt freq B3LYP/6-31G(d) empiricaldispersion=gd3bj scf=xqc
 -----------------------------------------------------------

 ------------------------------
 CID_77030107_JID_4241_neutraal
 ------------------------------
 Symbolic Z-matrix:
 Charge =  0 Multiplicity = 1

 SCF Done:  E(RB3LYP) =  -650.411544337     A.U. after   14 cycles
 SCF Done:  E(RB3LYP) =  -650.415932812     A.U. after   12 cycles
 SCF Done:  E(RB3LYP) =  -650.415440433     A.U. after   12 cycles
 SCF Done:  E(RB3LYP) =  -650.416820395     A.U. after   11 cycles
 SCF Done:  E(RB3LYP) =  -650.417209402     A.U. after   12 cycles
 SCF Done:  E(RB3LYP) =  -650.417302970     A.U. after   11 cycles
 SCF Done:  E(RB3LYP) =  -650.417397898     A.U. after   10 cycles
 SCF Done:  E(RB3LYP) =  -650.417446828     A.U. after   11 cycles
 SCF Done:  E(RB3LYP) =  -650.417530665     A.U. after   12 cycles
 SCF Done:  E(RB3LYP) =  -650.417598422     A.U. after   11 cycles
 SCF Done:  E(RB3LYP) =  -650.417858575     A.U. after   10 cycles
 SCF Done:  E(RB3LYP) =  -650.417863590     A.U. after    9 cycles
 SCF Done:  E(RB3LYP) =  -650.417866038     A.U. after    9 cycles
 SCF Done:  E(RB3LYP) =  -650.417866388     A.U. after    7 cycles
 SCF Done:  E(RB3LYP) =  -650.417866529     A.U. after    7 cycles
 SCF Done:  E(RB3LYP) =  -650.417866549     A.U. after    7 cycles
 Optimization completed.
    -- Stationary point found.
 Normal termination of Gaussian 16 at Thu Dec 10 09:34:20 2020.

 --------------------------------------------------------------------
 #N Geom=AllCheck Guess=TCheck SCRF=Check GenChk RB3LYP/6-31G(d) Freq
 --------------------------------------------------------------------

 Structure from the checkpoint file:  "JID_4241.chk"
 ------------------------------
 CID_77030107_JID_4241_neutraal
 ------------------------------
 Charge =  0 Multiplicity = 1

 SCF Done:  E(RB3LYP) =  -650.417866549     A.U. after    1 cycles

  Exact polarizability: 161.272  -1.524 122.296   4.126   2.381 105.870
 Approx polarizability: 206.901  -7.933 168.825   9.767   4.305 159.332

                      1                      2                      3
                      A                      A                      A
 Frequencies --     20.8946                35.0023                39.2731
 Red. masses --      3.9847                 3.7883                 4.1407
 Frc consts  --      0.0010                 0.0027                 0.0038
 IR Inten    --      0.2077                 0.2242                 0.3158

                      4                      5                      6
                      A                      A                      A
 Frequencies --     74.6388                88.4888               101.8388
 Red. masses --      3.8421                 3.4416                 3.1479
 Frc consts  --      0.0126                 0.0159                 0.0192
 IR Inten    --      0.0949                 1.5778                 0.1407

                      7                      8                      9
                      A                      A                      A
 Frequencies --    146.7007               205.7621               207.6031
 Red. masses --      2.3059                 1.5031                 2.2048
 Frc consts  --      0.0292                 0.0375                 0.0560
 IR Inten    --      0.3467                 1.3556                 7.9391

                     10                     11                     12
                      A                      A                      A
 Frequencies --    220.5963               246.5695               248.4818
 Red. masses --      1.5257                 1.8863                 1.4575
 Frc consts  --      0.0437                 0.0676                 0.0530
 IR Inten    --      1.6861                19.7344                 7.5806

                     13                     14                     15
                      A                      A                      A
 Frequencies --    260.6700               280.4098               287.2491
 Red. masses --      1.5874                 2.4447                 2.2158
 Frc consts  --      0.0636                 0.1133                 0.1077
 IR Inten    --      5.8499                 2.3847                 9.7594

                     16                     17                     18
                      A                      A                      A
 Frequencies --    307.4716               309.7368               324.5231
 Red. masses --      2.3683                 1.9690                 1.7160
 Frc consts  --      0.1319                 0.1113                 0.1065
 IR Inten    --      4.6736                14.3547                70.6610

                     19                     20                     21
                      A                      A                      A
 Frequencies --    349.0515               409.4482               446.7158
 Red. masses --      2.9048                 2.2636                 2.2066
 Frc consts  --      0.2085                 0.2236                 0.2594
 IR Inten    --      9.1866                 3.6091                 1.2558

                     22                     23                     24
                      A                      A                      A
 Frequencies --    464.7766               471.0690               487.6542
 Red. masses --      2.1192                 2.5497                 2.2595
 Frc consts  --      0.2697                 0.3334                 0.3166
 IR Inten    --      7.7329                12.1511                 2.4872

                     25                     26                     27
                      A                      A                      A
 Frequencies --    530.4764               562.0549               604.6902
 Red. masses --      1.5891                 1.7221                 4.7924
 Frc consts  --      0.2635                 0.3205                 1.0324
 IR Inten    --     42.1124                29.7470                14.9468

                     28                     29                     30
                      A                      A                      A
 Frequencies --    653.3228               752.4591               775.8845
 Red. masses --      3.4944                 2.3330                 1.8264
 Frc consts  --      0.8788                 0.7783                 0.6478
 IR Inten    --      3.3580                 6.5740                48.5045

                     31                     32                     33
                      A                      A                      A
 Frequencies --    812.3985               826.9218               862.6931
 Red. masses --      1.7348                 1.1363                 3.2856
 Frc consts  --      0.6746                 0.4578                 1.4407
 IR Inten    --    151.8254                41.3459                 1.9516

                     34                     35                     36
                      A                      A                      A
 Frequencies --    883.2803               905.6504               926.4970
 Red. masses --      1.3513                 2.2307                 1.7231
 Frc consts  --      0.6212                 1.0780                 0.8714
 IR Inten    --     56.9203                32.2756                 8.7156

                     37                     38                     39
                      A                      A                      A
 Frequencies --    942.5577               967.0484               980.2494
 Red. masses --      1.7641                 2.6380                 2.8854
 Frc consts  --      0.9234                 1.4535                 1.6335
 IR Inten    --     32.8596                58.2192                78.1377

                     40                     41                     42
                      A                      A                      A
 Frequencies --   1006.6953              1071.2610              1087.5501
 Red. masses --      2.0025                 2.2969                 2.5746
 Frc consts  --      1.1957                 1.5530                 1.7941
 IR Inten    --     23.7084                 5.9739                20.8927

                     43                     44                     45
                      A                      A                      A
 Frequencies --   1094.6265              1103.9794              1121.2859
 Red. masses --      2.3628                 1.5634                 2.4607
 Frc consts  --      1.6681                 1.1226                 1.8228
 IR Inten    --     28.8677                17.9035                15.6437

                     46                     47                     48
                      A                      A                      A
 Frequencies --   1139.9876              1149.0992              1168.8508
 Red. masses --      1.5584                 1.9948                 1.8923
 Frc consts  --      1.1933                 1.5519                 1.5232
 IR Inten    --     16.0618                 9.5848                31.6904

                     49                     50                     51
                      A                      A                      A
 Frequencies --   1188.6541              1206.7561              1221.1300
 Red. masses --      1.6776                 1.7929                 1.4567
 Frc consts  --      1.3965                 1.5383                 1.2798
 IR Inten    --     10.1949                 6.2103                52.5417

                     52                     53                     54
                      A                      A                      A
 Frequencies --   1231.1151              1284.3230              1309.5118
 Red. masses --      1.2650                 1.8300                 1.4555
 Frc consts  --      1.1297                 1.7785                 1.4706
 IR Inten    --      8.3585                20.7131                 0.2699

                     55                     56                     57
                      A                      A                      A
 Frequencies --   1324.6996              1334.8782              1360.2658
 Red. masses --      1.2356                 1.3380                 1.5249
 Frc consts  --      1.2775                 1.4047                 1.6624
 IR Inten    --     12.0649                25.1659                47.5852

                     58                     59                     60
                      A                      A                      A
 Frequencies --   1365.1505              1393.4312              1397.4020
 Red. masses --      1.4097                 1.3140                 1.6119
 Frc consts  --      1.5479                 1.5032                 1.8545
 IR Inten    --      4.7040                15.4895                37.6020

                     61                     62                     63
                      A                      A                      A
 Frequencies --   1405.3136              1422.8807              1425.6714
 Red. masses --      1.2580                 1.3196                 1.3169
 Frc consts  --      1.4638                 1.5741                 1.5770
 IR Inten    --     16.8408                 8.0156                10.0164

                     64                     65                     66
                      A                      A                      A
 Frequencies --   1436.7533              1446.0627              1447.7874
 Red. masses --      1.2447                 1.3828                 1.8793
 Frc consts  --      1.5138                 1.7037                 2.3209
 IR Inten    --      7.8054                22.1839                 1.1803

                     67                     68                     69
                      A                      A                      A
 Frequencies --   1483.6591              1495.9927              1503.8261
 Red. masses --      1.1525                 1.1493                 1.1011
 Frc consts  --      1.4947                 1.5155                 1.4671
 IR Inten    --      2.4476                35.0683                12.3121

                     70                     71                     72
                      A                      A                      A
 Frequencies --   1511.7830              1515.2531              1524.0113
 Red. masses --      1.0898                 1.0730                 1.0576
 Frc consts  --      1.4674                 1.4515                 1.4472
 IR Inten    --      9.7095                 1.1556                 0.6394

                     73                     74                     75
                      A                      A                      A
 Frequencies --   1525.9312              1529.2316              1536.0367
 Red. masses --      1.0564                 1.0683                 1.0747
 Frc consts  --      1.4492                 1.4720                 1.4940
 IR Inten    --      6.9269                 0.9880                33.4118

                     76                     77                     78
                      A                      A                      A
 Frequencies --   1539.7512              1549.2640              1565.1280
 Red. masses --      1.0571                 1.0654                 1.0918
 Frc consts  --      1.4766                 1.5067                 1.5757
 IR Inten    --      4.1574                 3.4754                 3.9716

                     79                     80                     81
                      A                      A                      A
 Frequencies --   1657.2125              1739.4879              2880.3584
 Red. masses --      1.1736                 6.2056                 1.0749
 Frc consts  --      1.8990                11.0632                 5.2545
 IR Inten    --     58.4227               113.1477               108.3661

                     82                     83                     84
                      A                      A                      A
 Frequencies --   2938.2465              2989.3851              3038.6409
 Red. masses --      1.0627                 1.0683                 1.0757
 Frc consts  --      5.4057                 5.6250                 5.8519
 IR Inten    --     80.2363                63.3217                 2.1451

                     85                     86                     87
                      A                      A                      A
 Frequencies --   3041.8679              3042.3865              3046.7089
 Red. masses --      1.0591                 1.0545                 1.0826
 Frc consts  --      5.7741                 5.7508                 5.9207
 IR Inten    --     27.6250                13.9654                36.6677

                     88                     89                     90
                      A                      A                      A
 Frequencies --   3054.1944              3061.4240              3063.2881
 Red. masses --      1.0765                 1.0820                 1.0421
 Frc consts  --      5.9163                 5.9747                 5.7615
 IR Inten    --     18.8030                66.3807                19.8390

                     91                     92                     93
                      A                      A                      A
 Frequencies --   3067.4523              3106.7656              3111.2411
 Red. masses --      1.0695                 1.0973                 1.0986
 Frc consts  --      5.9291                 6.2399                 6.2657
 IR Inten    --     56.9543                28.8226                30.6727

                     94                     95                     96
                      A                      A                      A
 Frequencies --   3114.2101              3125.9906              3128.3705
 Red. masses --      1.1033                 1.1023                 1.1022
 Frc consts  --      6.3043                 6.3464                 6.3556
 IR Inten    --     37.2140                30.4503                25.4585

                     97                     98                     99
                      A                      A                      A
 Frequencies --   3144.7739              3160.9351              3426.1723
 Red. masses --      1.1012                 1.0911                 1.0562
 Frc consts  --      6.4162                 6.4232                 7.3046
 IR Inten    --     26.9886                 4.5631               240.2149

                    100                    101                    102
                      A                      A                      A
 Frequencies --   3495.2703              3593.4302              3777.6739
 Red. masses --      1.0730                 1.0897                 1.0677
 Frc consts  --      7.7232                 8.2904                 8.9774
 IR Inten    --      2.0990                45.7203                54.2279

 - Thermochemistry -
 -------------------
 Temperature   298.150 Kelvin.  Pressure   1.00000 Atm.
 Atom     1 has atomic number  6 and mass  12.00000

 Molecular mass:   202.17936 amu.
 Principal axes and moments of inertia in atomic units:
                           1         2         3
     Eigenvalues --  1534.928815828.566476607.34344
           X            0.99998  -0.00586   0.00102
           Y            0.00586   0.99998   0.00136
           Z           -0.00103  -0.00136   1.00000
 This molecule is an asymmetric top.
 Rotational symmetry number  1.
 Warning -- assumption of classical behavior for rotation
           may cause significant error
 Rotational temperatures (Kelvin)      0.05643     0.01486     0.01311
 Rotational constants (GHZ):           1.17578     0.30964     0.27314
 Zero-point vibrational energy     856833.0 (Joules/Mol)
                                  204.78800 (Kcal/Mol)
 Warning -- explicit consideration of  27 degrees of freedom as
           vibrations may cause significant error
 Vibrational temperatures:     30.06    50.36    56.51   107.39   127.32
          (Kelvin)            146.52   211.07   296.05   298.69   317.39
                              354.76   357.51   375.05   403.45   413.29
                              442.38   445.64   466.92   502.21   589.10
                              642.72   668.71   677.76   701.63   763.24
                              808.67   870.01   939.99  1082.62  1116.32
                             1168.86  1189.76  1241.22  1270.84  1303.03
                             1333.02  1356.13  1391.37  1410.36  1448.41
                             1541.31  1564.74  1574.92  1588.38  1613.28
                             1640.19  1653.30  1681.72  1710.21  1736.25
                             1756.93  1771.30  1847.85  1884.10  1905.95
                             1920.59  1957.12  1964.15  2004.84  2010.55
                             2021.93  2047.21  2051.22  2067.17  2080.56
                             2083.04  2134.65  2152.40  2163.67  2175.12
                             2180.11  2192.71  2195.47  2200.22  2210.01
                             2215.36  2229.05  2251.87  2384.36  2502.74
                             4144.19  4227.48  4301.06  4371.93  4376.57
                             4377.32  4383.53  4394.30  4404.71  4407.39
                             4413.38  4469.94  4476.38  4480.65  4497.60
                             4501.03  4524.63  4547.88  4929.50  5028.91
                             5170.14  5435.23

 Zero-point correction=                           0.326350 (Hartree/Particle)
 Thermal correction to Energy=                    0.343368
 Thermal correction to Enthalpy=                  0.344312
 Thermal correction to Gibbs Free Energy=         0.280799
 Sum of electronic and zero-point Energies=           -650.091516
 Sum of electronic and thermal Energies=              -650.074499
 Sum of electronic and thermal Enthalpies=            -650.073555
 Sum of electronic and thermal Free Energies=         -650.137068

                     E (Thermal)             CV                S
                      KCal/Mol        Cal/Mol-Kelvin    Cal/Mol-Kelvin
 Total                  215.467             63.089            133.675
 Electronic               0.000              0.000              0.000
 Translational            0.889              2.981             41.816
 Rotational               0.889              2.981             32.447
 Vibrational            213.689             57.127             59.411
 Vibration     1          0.593              1.986              6.547
 Vibration     2          0.594              1.982              5.524
 Vibration     3          0.594              1.981              5.295
 Vibration     4          0.599              1.966              4.027
 Vibration     5          0.601              1.957              3.693
 Vibration     6          0.604              1.948              3.419
 Vibration     7          0.617              1.906              2.715
 Vibration     8          0.640              1.832              2.081
 Vibration     9          0.641              1.829              2.065
 Vibration    10          0.647              1.810              1.954
 Vibration    11          0.661              1.768              1.755
 Vibration    12          0.662              1.765              1.741
 Vibration    13          0.669              1.745              1.657
 Vibration    14          0.680              1.710              1.531
 Vibration    15          0.684              1.697              1.490
 Vibration    16          0.697              1.660              1.376
 Vibration    17          0.699              1.655              1.364
 Vibration    18          0.709              1.626              1.287
 Vibration    19          0.726              1.577              1.170
 Vibration    20          0.774              1.450              0.929
 Vibration    21          0.806              1.368              0.806
 Vibration    22          0.822              1.328              0.752
 Vibration    23          0.828              1.314              0.735
 Vibration    24          0.844              1.277              0.690
 Vibration    25          0.885              1.183              0.586
 Vibration    26          0.918              1.113              0.520
 Vibration    27          0.963              1.022              0.442

                           ! Non-Optimized Parameters !
 Normal termination of Gaussian 16 at Thu Dec 10 09:45:16 2020.

 ----------------------------------------------------------------------
 # B3LYP/6-311++G(d,p) empiricaldispersion=gd3bj scf=xqc pop=npa geom=c
 heck
 ----------------------------------------------------------------------

 --------------------------------------
 CID_77030107_JID_4241_Energie_neutraal
 --------------------------------------
 Structure from the checkpoint file:  "JID_4241.chk"
 Charge =  0 Multiplicity = 1

 SCF Done:  E(RB3LYP) =  -650.623217501     A.U. after   14 cycles
 Normal termination of Gaussian 16 at Thu Dec 10 09:50:50 2020.

 ----------------------------------------------------------------------
 # B3LYP/6-311++G(d,p) empiricaldispersion=gd3bj scf=xqc pop=npa geom=c
 heck
 ----------------------------------------------------------------------

 ------------------------------------
 CID_77030107_JID_4241_Energie_kation
 ------------------------------------
 Structure from the checkpoint file:  "JID_4241.chk"
 Charge =  1 Multiplicity = 2

 SCF Done:  E(UB3LYP) =  -650.351682043     A.U. after   27 cycles
 Normal termination of Gaussian 16 at Thu Dec 10 10:06:16 2020.
 Gaussian 16:  ES64L-G16RevA.03 25-Dec-2016

 ----------------------------------------------------------------------
 # B3LYP/6-311++G(d,p) empiricaldispersion=gd3bj scf=xqc pop=npa geom=c
 heck
 ----------------------------------------------------------------------

 -----------------------------------
 CID_77030107_JID_4241_Energie_anion
 -----------------------------------
 Structure from the checkpoint file:  "JID_4241.chk"
 Charge = -1 Multiplicity = 2

                         Standard orientation:
 ---------------------------------------------------------------------
 Center     Atomic      Atomic             Coordinates (Angstroms)
 Number     Number       Type             X           Y           Z
 ---------------------------------------------------------------------
      1          6           0       -2.265465    2.237108   -0.783906
      2          6           0       -2.949694    0.885157   -0.973261
      3          7           0       -3.324248    0.222566    0.272020
      4          6           0       -4.078333   -0.992761    0.024058
      5          6           0       -2.303606    0.072887    1.306460
      6          6           0       -1.147484   -0.913996    1.062649
      7          7           0       -0.154350   -0.382835    0.126744
      8          6           0        1.058809   -1.202206   -0.046427
      9          6           0        0.805398   -2.527526   -0.778425
     10          6           0        2.133381   -0.375112   -0.784520
     11          6           0        2.660435    0.780876    0.029805
     12          7           0        3.867459    0.916692    0.459473
     13          8           0        4.705800   -0.155746    0.020498
     14          7           0        1.746924    1.792593    0.301657
     15          1           0       -2.843145    2.862029   -0.094696
     16          1           0       -2.201404    2.755529   -1.746324
     17          1           0       -1.247195    2.139157   -0.397898
     18          1           0       -3.881681    1.037727   -1.533255
     19          1           0       -2.324572    0.239932   -1.627628
     20          1           0       -3.514876   -1.773125   -0.523521
     21          1           0       -4.409701   -1.423304    0.975365
     22          1           0       -4.968439   -0.755177   -0.569966
     23          1           0       -1.877215    1.057088    1.524072
     24          1           0       -2.828183   -0.252740    2.214261
     25          1           0       -0.632900   -1.074287    2.019074
     26          1           0       -1.552595   -1.893902    0.760200
     27          1           0       -0.582080   -0.251031   -0.788459
     28          1           0        1.429926   -1.421765    0.963303
     29          1           0        0.467692   -2.338780   -1.805857
     30          1           0        1.720121   -3.127712   -0.830860
     31          1           0        0.039603   -3.125656   -0.274061
     32          1           0        2.968384   -1.021495   -1.054985
     33          1           0        1.698021    0.015855   -1.714568
     34          1           0        5.559672    0.120909    0.383134
     35          1           0        0.822621    1.403269    0.495640
     36          1           0        2.080405    2.443777    1.005188
 ---------------------------------------------------------------------

 SCF Done:  E(UB3LYP) =  -650.610492309     A.U. after   32 cycles

 The electronic state is 2-A.
 Alpha  occ. eigenvalues --  -19.06274 -14.24507 -14.21911 -14.21020 -14.20448
 Alpha  occ. eigenvalues --  -10.14408 -10.11540 -10.09720 -10.09469 -10.09447
 Alpha  occ. eigenvalues --  -10.08339 -10.08261 -10.06616 -10.06452  -0.97505
 Alpha  occ. eigenvalues --   -0.84360  -0.83009  -0.81101  -0.72579  -0.68930
 Alpha  occ. eigenvalues --   -0.66034  -0.62748  -0.61076  -0.56461  -0.53830
 Alpha  occ. eigenvalues --   -0.50696  -0.47857  -0.46563  -0.44095  -0.40828
 Alpha  occ. eigenvalues --   -0.39636  -0.39149  -0.37638  -0.36729  -0.36312
 Alpha  occ. eigenvalues --   -0.35044  -0.34014  -0.33496  -0.32480  -0.31415
 Alpha  occ. eigenvalues --   -0.30269  -0.29711  -0.29369  -0.28207  -0.27859
 Alpha  occ. eigenvalues --   -0.26914  -0.26232  -0.25908  -0.25582  -0.24837
 Alpha  occ. eigenvalues --   -0.24472  -0.22467  -0.18595  -0.14932  -0.12535
 Alpha  occ. eigenvalues --   -0.11246   0.04296
 Alpha virt. eigenvalues --    0.06339   0.06838   0.07085   0.07617   0.08912
 Alpha virt. eigenvalues --    0.09052   0.09502   0.09879   0.10202   0.10987
 Alpha virt. eigenvalues --    0.11564   0.11906   0.12236   0.12651   0.12908

  Beta  occ. eigenvalues --  -19.06264 -14.24499 -14.21906 -14.21009 -14.20447
  Beta  occ. eigenvalues --  -10.14407 -10.11531 -10.09693 -10.09449 -10.09426
  Beta  occ. eigenvalues --  -10.08327 -10.08219 -10.06603 -10.06412  -0.97487
  Beta  occ. eigenvalues --   -0.84346  -0.82990  -0.81080  -0.72559  -0.68901
  Beta  occ. eigenvalues --   -0.66003  -0.62707  -0.61022  -0.56392  -0.53770
  Beta  occ. eigenvalues --   -0.50638  -0.47835  -0.46497  -0.44075  -0.40792
  Beta  occ. eigenvalues --   -0.39613  -0.39120  -0.37610  -0.36698  -0.36276
  Beta  occ. eigenvalues --   -0.35015  -0.33988  -0.33463  -0.32442  -0.31385
  Beta  occ. eigenvalues --   -0.30238  -0.29683  -0.29327  -0.28174  -0.27826
  Beta  occ. eigenvalues --   -0.26872  -0.26202  -0.25868  -0.25538  -0.24803
  Beta  occ. eigenvalues --   -0.24441  -0.22454  -0.18576  -0.14914  -0.12522
  Beta  occ. eigenvalues --   -0.11219
  Beta virt. eigenvalues --    0.06305   0.06815   0.07524   0.07603   0.08210
  Beta virt. eigenvalues --    0.09257   0.09553   0.09807   0.10376   0.10560
  Beta virt. eigenvalues --    0.11237   0.11760   0.12188   0.12447   0.12980

 Mulliken charges and spin densities:
               1          2
     1  C    0.150025  -0.628612
     2  C   -0.292351  -0.036661
     3  N   -0.019086   0.175830
     4  C    0.900053  -1.206657
     5  C    0.770608  -1.367381
     6  C   -0.571045   0.284439
     7  N    0.142270  -0.175097
     8  C   -1.508136   1.528786
     9  C    1.408390  -1.937709
    10  C   -0.330184  -0.140329
    11  C    0.092292  -0.205703
    12  N   -0.271391   0.015790
    13  O   -0.148339  -0.010649
    14  N   -0.331390  -0.011440
    15  H    0.067830   0.078093
    16  H    0.025928   0.106004
    17  H    0.034067   0.090450
    18  H   -0.461193   0.622121
    19  H   -0.401714   0.524527
    20  H   -0.173827   0.300526
    21  H   -0.490194   0.624617
    22  H   -0.227861   0.363800
    23  H    0.092452   0.043786
    24  H   -0.218615   0.411611
    25  H   -0.343433   0.494380
    26  H    0.313946  -0.162267
    27  H    1.164955  -0.992225
    28  H   -0.082275   0.247048
    29  H   -0.313617   0.472329
    30  H   -0.162177   0.305611
    31  H   -0.480958   0.634147
    32  H    0.174742   0.026394
    33  H   -0.199377   0.369184
    34  H    0.173373   0.091099
    35  H    0.333607   0.000687
    36  H    0.182624   0.063473
 Sum of Mulliken charges =  -1.00000   1.00000

 Dipole moment (field-independent basis, Debye):
    X=              5.0087    Y=              4.0053    Z=              1.2499  Tot=              6.5339
 Quadrupole moment (field-independent basis, Debye-Ang):
   XX=           -172.1964   YY=           -135.7523   ZZ=           -128.8347
   XY=             -6.4671   XZ=              0.0600   YZ=              1.2391

 Summary of Natural Population Analysis:

                                       Natural Population
                Natural  -----------------------------------------------
    Atom  No    Charge         Core      Valence    Rydberg      Total
 -----------------------------------------------------------------------
      C    1   -0.29253      0.99965     2.28842    0.00446     3.29253
      C    2   -0.08197      0.99962     2.07056    0.01178     3.08197
      N    3   -0.28195      0.99973     2.76804    0.01418     3.78195
      C    4   -0.17730      0.99964     2.16851    0.00914     3.17730
      C    5   -0.08638      0.99960     2.07338    0.01340     3.08638
      C    6   -0.09716      0.99961     2.08683    0.01072     3.09716
      N    7   -0.36160      0.99974     2.84980    0.01206     3.86160
      C    8   -0.00389      0.99960     1.99261    0.01168     3.00389
      C    9   -0.29293      0.99965     2.28750    0.00578     3.29293
      C   10   -0.22697      0.99956     2.21720    0.01021     3.22697
      C   11    0.21012      0.99963     1.77288    0.01737     2.78988
      N   12   -0.13912      0.99959     2.62550    0.01403     3.63912
      O   13   -0.29780      0.99990     3.29174    0.00616     4.29780
      N   14   -0.40752      0.99970     2.89924    0.00857     3.90752
      H   15    0.09861      0.00000     0.40014    0.00125     0.40139
      H   16    0.10062      0.00000     0.39845    0.00093     0.39938
      H   17    0.09931      0.00000     0.39910    0.00159     0.40069
      H   18    0.09536      0.00000     0.40296    0.00168     0.40464
      H   19    0.07334      0.00000     0.42454    0.00212     0.42666
      H   20    0.08277      0.00000     0.41516    0.00207     0.41723
      H   21    0.09636      0.00000     0.40226    0.00138     0.40364
      H   22    0.09560      0.00000     0.40282    0.00157     0.40440
      H   23    0.09491      0.00000     0.40331    0.00178     0.40509
      H   24    0.09825      0.00000     0.40055    0.00121     0.40175
      H   25    0.09400      0.00000     0.40434    0.00166     0.40600
      H   26    0.08774      0.00000     0.41042    0.00184     0.41226
      H   27    0.17785      0.00000     0.31825    0.00390     0.32215
      H   28    0.09257      0.00000     0.40499    0.00244     0.40743
      H   29    0.09891      0.00000     0.39947    0.00162     0.40109
      H   30    0.10141      0.00000     0.39762    0.00097     0.39859
      H   31    0.10481      0.00000     0.39391    0.00127     0.39519
      H   32    0.12024      0.00000     0.37821    0.00156     0.37976
      H   33    0.10794      0.00000     0.39063    0.00143     0.39206
      H   34    0.23078      0.00000     0.26575    0.00348     0.26922
      H   35    0.20272      0.00000     0.29442    0.00286     0.29728
      H   36    0.18290      0.00000     0.31484    0.00226     0.31710
 =======================================================================
   * Total *    0.00000     13.99521    41.81436    0.19043    56.00000

 Normal termination of Gaussian 16 at Thu Dec 10 10:24:05 2020.
