 Gaussian 16, Revision A.03,

 -----------------------------------------------------------
 # opt freq B3LYP/6-31G(d) empiricaldispersion=gd3bj scf=xqc
 -----------------------------------------------------------

 -----------------------------
 CID_5221754_JID_6305_neutraal
 -----------------------------
 Symbolic Z-matrix:
 Charge =  0 Multiplicity = 1

 SCF Done:  E(RB3LYP) =  -725.746271508     A.U. after   15 cycles
 SCF Done:  E(RB3LYP) =  -725.750273120     A.U. after   12 cycles
 SCF Done:  E(RB3LYP) =  -725.750549633     A.U. after   12 cycles
 SCF Done:  E(RB3LYP) =  -725.750620405     A.U. after   12 cycles
 SCF Done:  E(RB3LYP) =  -725.750814575     A.U. after   11 cycles
 SCF Done:  E(RB3LYP) =  -725.750943447     A.U. after   12 cycles
 SCF Done:  E(RB3LYP) =  -725.750887120     A.U. after   14 cycles
 SCF Done:  E(RB3LYP) =  -725.751348523     A.U. after   12 cycles
 SCF Done:  E(RB3LYP) =  -725.736980892     A.U. after   13 cycles
 SCF Done:  E(RB3LYP) =  -725.744059565     A.U. after   13 cycles
 SCF Done:  E(RB3LYP) =  -725.756315120     A.U. after   11 cycles
 SCF Done:  E(RB3LYP) =  -725.756321698     A.U. after   10 cycles
 SCF Done:  E(RB3LYP) =  -725.756323687     A.U. after   10 cycles
 SCF Done:  E(RB3LYP) =  -725.756323737     A.U. after    7 cycles
 SCF Done:  E(RB3LYP) =  -725.756323765     A.U. after    7 cycles
 Optimization completed.
    -- Stationary point found.
 Normal termination of Gaussian 16 at Thu Dec 10 22:14:38 2020.

 --------------------------------------------------------------------
 #N Geom=AllCheck Guess=TCheck SCRF=Check GenChk RB3LYP/6-31G(d) Freq
 --------------------------------------------------------------------

 Structure from the checkpoint file:  "JID_6305.chk"
 -----------------------------
 CID_5221754_JID_6305_neutraal
 -----------------------------
 Charge =  0 Multiplicity = 1

 SCF Done:  E(RB3LYP) =  -725.756323765     A.U. after    1 cycles

  Exact polarizability: 145.206  19.378 120.306   1.868  -1.025 128.547
 Approx polarizability: 198.239  30.933 191.081   2.182 -10.708 226.689

                      1                      2                      3
                      A                      A                      A
 Frequencies --     27.8899                40.0373                49.5628
 Red. masses --      5.0940                 8.6412                 4.9283
 Frc consts  --      0.0023                 0.0082                 0.0071
 IR Inten    --      0.6579                 0.7079                 1.9003

                      4                      5                      6
                      A                      A                      A
 Frequencies --     65.4807                98.6659               110.6879
 Red. masses --      4.1368                 5.8422                 5.4351
 Frc consts  --      0.0105                 0.0335                 0.0392
 IR Inten    --      0.2914                 7.7836                 0.1148

                      7                      8                      9
                      A                      A                      A
 Frequencies --    186.0349               224.9349               250.3401
 Red. masses --      4.8550                 4.9881                 2.7833
 Frc consts  --      0.0990                 0.1487                 0.1028
 IR Inten    --      4.9317                 2.8718                 6.5219

                     10                     11                     12
                      A                      A                      A
 Frequencies --    288.3739               306.4755               337.7441
 Red. masses --      2.6711                 4.1342                 1.1573
 Frc consts  --      0.1309                 0.2288                 0.0778
 IR Inten    --      7.3684                11.3593               113.2082

                     13                     14                     15
                      A                      A                      A
 Frequencies --    371.5415               394.3761               418.4435
 Red. masses --      2.1865                 3.6065                 3.0002
 Frc consts  --      0.1778                 0.3305                 0.3095
 IR Inten    --      4.4197                 9.8408                 0.4868

                     16                     17                     18
                      A                      A                      A
 Frequencies --    463.9514               507.6192               533.1400
 Red. masses --      4.3104                 4.2021                 2.5849
 Frc consts  --      0.5467                 0.6380                 0.4329
 IR Inten    --      0.8743                13.6862                 8.2357

                     19                     20                     21
                      A                      A                      A
 Frequencies --    567.9362               597.7206               616.8912
 Red. masses --      3.0589                 1.4359                 2.7431
 Frc consts  --      0.5813                 0.3022                 0.6150
 IR Inten    --      0.0363                14.3555                 9.2384

                     22                     23                     24
                      A                      A                      A
 Frequencies --    636.7937               665.1322               719.7743
 Red. masses --      6.2625                 4.6910                 2.8015
 Frc consts  --      1.4962                 1.2227                 0.8551
 IR Inten    --      0.2537                13.8197                20.7765

                     25                     26                     27
                      A                      A                      A
 Frequencies --    729.4135               765.2494               784.6763
 Red. masses --      2.0816                 2.7219                 4.3818
 Frc consts  --      0.6525                 0.9391                 1.5896
 IR Inten    --     30.2686                 5.3572                 2.8886

                     28                     29                     30
                      A                      A                      A
 Frequencies --    789.2404               831.4922               839.3507
 Red. masses --      2.7217                 3.8111                 3.6721
 Frc consts  --      0.9989                 1.5525                 1.5242
 IR Inten    --     10.6603                 3.6748                11.1193

                     31                     32                     33
                      A                      A                      A
 Frequencies --    872.3166               924.6705               938.6729
 Red. masses --      1.2478                 1.8344                 1.5372
 Frc consts  --      0.5594                 0.9241                 0.7980
 IR Inten    --      1.0330                 1.6447                 6.1454

                     34                     35                     36
                      A                      A                      A
 Frequencies --    953.2854               978.3213               982.1028
 Red. masses --      1.8554                 2.2840                 1.3767
 Frc consts  --      0.9934                 1.2880                 0.7824
 IR Inten    --      4.7682                 2.4336                 2.2242

                     37                     38                     39
                      A                      A                      A
 Frequencies --   1006.2694              1021.9445              1044.4907
 Red. masses --      1.2563                 6.2538                 2.2753
 Frc consts  --      0.7495                 3.8481                 1.4625
 IR Inten    --      1.9282                 1.0724                 9.6378

                     40                     41                     42
                      A                      A                      A
 Frequencies --   1059.1841              1063.5582              1074.3988
 Red. masses --      2.4958                 2.6058                 1.8943
 Frc consts  --      1.6497                 1.7366                 1.2883
 IR Inten    --      1.1478                 0.9193                 4.9245

                     43                     44                     45
                      A                      A                      A
 Frequencies --   1111.3913              1121.2070              1187.7682
 Red. masses --      1.7815                 1.6357                 1.1912
 Frc consts  --      1.2965                 1.2115                 0.9901
 IR Inten    --      7.6400                 9.5206                10.9760

                     46                     47                     48
                      A                      A                      A
 Frequencies --   1195.3072              1196.6188              1216.4228
 Red. masses --      1.1426                 1.5950                 1.1483
 Frc consts  --      0.9619                 1.3456                 1.0011
 IR Inten    --      0.8208                 8.0428                 0.9427

                     49                     50                     51
                      A                      A                      A
 Frequencies --   1232.2702              1235.0427              1254.1998
 Red. masses --      1.4807                 2.2327                 1.5050
 Frc consts  --      1.3248                 2.0065                 1.3949
 IR Inten    --     20.5476                 4.0994                 1.4034

                     52                     53                     54
                      A                      A                      A
 Frequencies --   1303.2048              1329.9262              1344.7637
 Red. masses --      1.9515                 1.9054                 1.8801
 Frc consts  --      1.9528                 1.9856                 2.0031
 IR Inten    --    103.1874                35.0522                10.3488

                     55                     56                     57
                      A                      A                      A
 Frequencies --   1350.5425              1368.8132              1377.7969
 Red. masses --      1.5958                 2.8177                 1.5675
 Frc consts  --      1.7149                 3.1105                 1.7532
 IR Inten    --     10.9783                 7.8672                14.0729

                     58                     59                     60
                      A                      A                      A
 Frequencies --   1385.7652              1397.0558              1469.8671
 Red. masses --      2.7241                 1.3768                 2.3075
 Frc consts  --      3.0821                 1.5833                 2.9373
 IR Inten    --     78.8798                14.9183                93.5281

                     61                     62                     63
                      A                      A                      A
 Frequencies --   1500.1560              1504.6654              1507.0457
 Red. masses --      1.0878                 1.6655                 1.3434
 Frc consts  --      1.4424                 2.2216                 1.7976
 IR Inten    --      6.0064                10.1379                14.0589

                     64                     65                     66
                      A                      A                      A
 Frequencies --   1547.2993              1559.0689              1645.9386
 Red. masses --      2.1862                 1.1070                 2.6617
 Frc consts  --      3.0838                 1.5854                 4.2486
 IR Inten    --      9.4465                 9.9843                24.5586

                     67                     68                     69
                      A                      A                      A
 Frequencies --   1647.4361              1666.2087              1802.4741
 Red. masses --      1.6507                 5.4818                11.3812
 Frc consts  --      2.6396                 8.9667                21.7859
 IR Inten    --     52.2480                 2.3466               280.5592

                     70                     71                     72
                      A                      A                      A
 Frequencies --   1805.9069              3027.3817              3067.4220
 Red. masses --      8.6000                 1.0675                 1.0644
 Frc consts  --     16.5249                 5.7642                 5.9009
 IR Inten    --    389.4248                53.2670                35.8918

                     73                     74                     75
                      A                      A                      A
 Frequencies --   3071.9691              3085.2197              3131.8519
 Red. masses --      1.0682                 1.0968                 1.1015
 Frc consts  --      5.9396                 6.1509                 6.3656
 IR Inten    --     14.8445                15.3464                 2.5169

                     76                     77                     78
                      A                      A                      A
 Frequencies --   3142.6535              3145.2750              3177.9254
 Red. masses --      1.0915                 1.0927                 1.0874
 Frc consts  --      6.3514                 6.3688                 6.4705
 IR Inten    --      5.7361                 8.9137                 7.9325

                     79                     80                     81
                      A                      A                      A
 Frequencies --   3188.2438              3197.3384              3205.0277
 Red. masses --      1.0866                 1.0905                 1.0941
 Frc consts  --      6.5079                 6.5682                 6.6219
 IR Inten    --      0.5550                12.4248                16.3139

                     82                     83                     84
                      A                      A                      A
 Frequencies --   3214.0179              3577.8253              3701.9783
 Red. masses --      1.0980                 1.0460                 1.1050
 Frc consts  --      6.6828                 7.8887                 8.9223
 IR Inten    --     18.6202               102.2674                78.7139

 - Thermochemistry -
 -------------------
 Temperature   298.150 Kelvin.  Pressure   1.00000 Atm.
 Atom     1 has atomic number  6 and mass  12.00000

 Molecular mass:   218.10553 amu.
 Principal axes and moments of inertia in atomic units:
                           1         2         3
     Eigenvalues --  2255.476114315.920605193.17014
           X            0.99973   0.02261   0.00533
           Y           -0.02274   0.99942   0.02528
           Z           -0.00476  -0.02539   0.99967
 This molecule is an asymmetric top.
 Rotational symmetry number  1.
 Warning -- assumption of classical behavior for rotation
           may cause significant error
 Rotational temperatures (Kelvin)      0.03840     0.02007     0.01668
 Rotational constants (GHZ):           0.80016     0.41816     0.34752
 Zero-point vibrational energy     653977.4 (Joules/Mol)
                                  156.30434 (Kcal/Mol)
 Warning -- explicit consideration of  21 degrees of freedom as
           vibrations may cause significant error
 Vibrational temperatures:     40.13    57.60    71.31    94.21   141.96
          (Kelvin)            159.26   267.66   323.63   360.18   414.91
                              440.95   485.94   534.57   567.42   602.05
                              667.52   730.35   767.07   817.13   859.99
                              887.57   916.20   956.98  1035.59  1049.46
                             1101.02  1128.97  1135.54  1196.33  1207.64
                             1255.07  1330.39  1350.54  1371.57  1407.59
                             1413.03  1447.80  1470.35  1502.79  1523.93
                             1530.22  1545.82  1599.04  1613.17  1708.93
                             1719.78  1721.67  1750.16  1772.96  1776.95
                             1804.51  1875.02  1913.47  1934.82  1943.13
                             1969.42  1982.34  1993.81  2010.05  2114.81
                             2158.39  2164.88  2168.30  2226.22  2243.15
                             2368.14  2370.29  2397.30  2593.36  2598.30
                             4355.73  4413.34  4419.88  4438.94  4506.04
                             4521.58  4525.35  4572.33  4587.17  4600.26
                             4611.32  4624.25  5147.69  5326.32

 Zero-point correction=                           0.249087 (Hartree/Particle)
 Thermal correction to Energy=                    0.263266
 Thermal correction to Enthalpy=                  0.264210
 Thermal correction to Gibbs Free Energy=         0.206288
 Sum of electronic and zero-point Energies=           -725.507237
 Sum of electronic and thermal Energies=              -725.493057
 Sum of electronic and thermal Enthalpies=            -725.492113
 Sum of electronic and thermal Free Energies=         -725.550036

                     E (Thermal)             CV                S
                      KCal/Mol        Cal/Mol-Kelvin    Cal/Mol-Kelvin
 Total                  165.202             54.286            121.908
 Electronic               0.000              0.000              0.000
 Translational            0.889              2.981             42.042
 Rotational               0.889              2.981             32.291
 Vibrational            163.425             48.324             47.574
 Vibration     1          0.593              1.984              5.974
 Vibration     2          0.594              1.981              5.257
 Vibration     3          0.595              1.978              4.835
 Vibration     4          0.597              1.971              4.285
 Vibration     5          0.604              1.950              3.481
 Vibration     6          0.607              1.941              3.257
 Vibration     7          0.632              1.859              2.267
 Vibration     8          0.650              1.803              1.919
 Vibration     9          0.663              1.762              1.728
 Vibration    10          0.685              1.695              1.483
 Vibration    11          0.697              1.661              1.381
 Vibration    12          0.718              1.600              1.223
 Vibration    13          0.743              1.531              1.073
 Vibration    14          0.761              1.482              0.984
 Vibration    15          0.781              1.430              0.897
 Vibration    16          0.821              1.330              0.755
 Vibration    17          0.863              1.233              0.639
 Vibration    18          0.888              1.177              0.580
 Vibration    19          0.924              1.101              0.508
 Vibration    20          0.956              1.037              0.454
 Vibration    21          0.977              0.996              0.422

                           ! Non-Optimized Parameters !
 Normal termination of Gaussian 16 at Thu Dec 10 22:25:10 2020.

 ----------------------------------------------------------------------
 # B3LYP/6-311++G(d,p) empiricaldispersion=gd3bj scf=xqc pop=npa geom=c
 heck
 ----------------------------------------------------------------------

 -------------------------------------
 CID_5221754_JID_6305_Energie_neutraal
 -------------------------------------
 Structure from the checkpoint file:  "JID_6305.chk"
 Charge =  0 Multiplicity = 1

 SCF Done:  E(RB3LYP) =  -725.964987519     A.U. after   15 cycles
 Normal termination of Gaussian 16 at Thu Dec 10 22:29:07 2020.

 ----------------------------------------------------------------------
 # B3LYP/6-311++G(d,p) empiricaldispersion=gd3bj scf=xqc pop=npa geom=c
 heck
 ----------------------------------------------------------------------

 -----------------------------------
 CID_5221754_JID_6305_Energie_kation
 -----------------------------------
 Structure from the checkpoint file:  "JID_6305.chk"
 Charge =  1 Multiplicity = 2

 SCF Done:  E(UB3LYP) =  -725.647856740     A.U. after   29 cycles
 Normal termination of Gaussian 16 at Thu Dec 10 22:39:51 2020.
 Gaussian 16:  ES64L-G16RevA.03 25-Dec-2016

 ----------------------------------------------------------------------
 # B3LYP/6-311++G(d,p) empiricaldispersion=gd3bj scf=xqc pop=npa geom=c
 heck
 ----------------------------------------------------------------------

 ----------------------------------
 CID_5221754_JID_6305_Energie_anion
 ----------------------------------
 Structure from the checkpoint file:  "JID_6305.chk"
 Charge = -1 Multiplicity = 2

                         Standard orientation:
 ---------------------------------------------------------------------
 Center     Atomic      Atomic             Coordinates (Angstroms)
 Number     Number       Type             X           Y           Z
 ---------------------------------------------------------------------
      1          6           0        2.740147    0.688306   -0.422071
      2          6           0        2.418003   -0.411767    0.616815
      3          6           0        1.307603    0.231251    1.484368
      4          7           0        0.715492    1.228198    0.604631
      5          6           0        1.460584    1.515604   -0.510861
      6          8           0        1.133552    2.291751   -1.396230
      7          6           0       -0.613532    1.783235    0.814786
      8          6           0       -1.679085    0.801625    0.373663
      9          6           0       -1.883062    0.582842   -0.997720
     10          6           0       -2.791765   -0.383003   -1.428198
     11          6           0       -3.507605   -1.138900   -0.495511
     12          6           0       -3.313388   -0.922008    0.868267
     13          6           0       -2.401516    0.044041    1.299422
     14          6           0        1.978960   -1.710155   -0.068787
     15          8           0        2.709388   -2.690136   -0.102369
     16          7           0        0.753149   -1.685259   -0.669167
     17          1           0        3.014829    0.302280   -1.405856
     18          1           0        3.555848    1.336266   -0.079579
     19          1           0        3.288360   -0.679656    1.215859
     20          1           0        0.554894   -0.498073    1.803801
     21          1           0        1.724035    0.703049    2.385421
     22          1           0       -0.731145    2.041251    1.873077
     23          1           0       -0.660794    2.701870    0.224379
     24          1           0       -1.317252    1.171060   -1.715430
     25          1           0       -2.945713   -0.542761   -2.491696
     26          1           0       -4.215662   -1.890694   -0.832033
     27          1           0       -3.867990   -1.505585    1.597541
     28          1           0       -2.250056    0.211221    2.363330
     29          1           0        0.103379   -0.914397   -0.594631
     30          1           0        0.431192   -2.535740   -1.108682
 ---------------------------------------------------------------------

 SCF Done:  E(UB3LYP) =  -725.957505601     A.U. after   33 cycles
 SCF Done:  E(UB3LYP) =  -725.957505601     a.u. after    1 cycles

 The electronic state is 2-A.
 Alpha  occ. eigenvalues --  -19.00294 -19.00165 -14.25553 -14.24325 -10.18844
 Alpha  occ. eigenvalues --  -10.18199 -10.12449 -10.11876 -10.10760 -10.09983
 Alpha  occ. eigenvalues --  -10.08964 -10.08546 -10.08268 -10.08086 -10.08027
 Alpha  occ. eigenvalues --  -10.07921  -0.95464  -0.95103  -0.86638  -0.81670
 Alpha  occ. eigenvalues --   -0.76925  -0.72698  -0.67193  -0.65607  -0.63822
 Alpha  occ. eigenvalues --   -0.60527  -0.55674  -0.51731  -0.50404  -0.49764
 Alpha  occ. eigenvalues --   -0.46399  -0.45381  -0.42478  -0.41123  -0.39735
 Alpha  occ. eigenvalues --   -0.38731  -0.37075  -0.36405  -0.35837  -0.35300
 Alpha  occ. eigenvalues --   -0.33516  -0.33126  -0.32119  -0.31682  -0.31241
 Alpha  occ. eigenvalues --   -0.30134  -0.29099  -0.27444  -0.27168  -0.26666
 Alpha  occ. eigenvalues --   -0.25782  -0.25055  -0.18853  -0.17718  -0.17064
 Alpha  occ. eigenvalues --   -0.16796  -0.16467  -0.15394   0.03958
 Alpha virt. eigenvalues --    0.05912   0.06605   0.06947   0.07310   0.07956
 Alpha virt. eigenvalues --    0.08602   0.08842   0.09445   0.09463   0.10222
 Alpha virt. eigenvalues --    0.10483   0.10758   0.11651   0.12562   0.13135

  Beta  occ. eigenvalues --  -19.00290 -19.00148 -14.25553 -14.24315 -10.18842
  Beta  occ. eigenvalues --  -10.18190 -10.12410 -10.11863 -10.10753 -10.09969
  Beta  occ. eigenvalues --  -10.08918 -10.08553 -10.08261 -10.08031 -10.07972
  Beta  occ. eigenvalues --  -10.07867  -0.95447  -0.95088  -0.86618  -0.81655
  Beta  occ. eigenvalues --   -0.76836  -0.72661  -0.67103  -0.65511  -0.63770
  Beta  occ. eigenvalues --   -0.60463  -0.55628  -0.51663  -0.50289  -0.49742
  Beta  occ. eigenvalues --   -0.46368  -0.45340  -0.42408  -0.41056  -0.39700
  Beta  occ. eigenvalues --   -0.38683  -0.37008  -0.36359  -0.35778  -0.35265
  Beta  occ. eigenvalues --   -0.33473  -0.33079  -0.32083  -0.31655  -0.31197
  Beta  occ. eigenvalues --   -0.30088  -0.29053  -0.27317  -0.27100  -0.26622
  Beta  occ. eigenvalues --   -0.25708  -0.25000  -0.18839  -0.17671  -0.16968
  Beta  occ. eigenvalues --   -0.16651  -0.16365  -0.15229
  Beta virt. eigenvalues --    0.06350   0.06942   0.07085   0.07350   0.07815
  Beta virt. eigenvalues --    0.08523   0.08887   0.09213   0.09580   0.09856
  Beta virt. eigenvalues --    0.10394   0.10772   0.11241   0.11960   0.12871

 Mulliken charges and spin densities:
               1          2
     1  C    0.095269  -0.577986
     2  C    0.380966   0.090611
     3  C    0.631040  -1.185430
     4  N    0.095415   0.008788
     5  C   -0.169744   0.117878
     6  O   -0.347651   0.013975
     7  C    1.065418  -1.919504
     8  C   -0.574979   1.362322
     9  C   -1.480906   1.393879
    10  C   -0.228730  -0.016739
    11  C    1.454234  -1.774228
    12  C    0.515809  -0.759693
    13  C    0.156179  -0.383064
    14  C   -0.232874  -0.024299
    15  O   -0.350581   0.007616
    16  N   -0.513061   0.028315
    17  H    0.167558   0.054251
    18  H   -0.030632   0.223684
    19  H    0.052690   0.229364
    20  H    0.254715  -0.080729
    21  H   -0.813241   1.031723
    22  H   -0.359044   0.554646
    23  H    0.021304   0.186602
    24  H    0.128623   0.064261
    25  H   -0.232234   0.411769
    26  H   -0.312821   0.465237
    27  H   -0.635268   0.819376
    28  H   -0.561849   0.741638
    29  H    0.671282  -0.232665
    30  H    0.153113   0.148400
 Sum of Mulliken charges =  -1.00000   1.00000

 Dipole moment (field-independent basis, Debye):
    X=              1.6407    Y=              0.7549    Z=             -3.6034  Tot=              4.0306
 Quadrupole moment (field-independent basis, Debye-Ang):
   XX=           -160.6604   YY=           -143.2654   ZZ=           -141.7033
   XY=             -2.9582   XZ=              1.6902   YZ=             -1.1931

 Summary of Natural Population Analysis:

                                       Natural Population
                Natural  -----------------------------------------------
    Atom  No    Charge         Core      Valence    Rydberg      Total
 -----------------------------------------------------------------------
      C    1   -0.22561      0.99958     2.21744    0.00859     3.22561
      C    2   -0.15196      0.99956     2.14039    0.01200     3.15196
      C    3   -0.07792      0.99961     2.06718    0.01113     3.07792
      N    4   -0.25953      0.99963     2.74602    0.01388     3.75953
      C    5    0.34774      0.99962     1.62869    0.02394     2.65226
      O    6   -0.32203      0.99987     3.31692    0.00524     4.32203
      C    7   -0.09387      0.99956     2.08116    0.01314     3.09387
      C    8   -0.02433      0.99949     2.01390    0.01094     3.02433
      C    9   -0.10581      0.99951     2.09657    0.00973     3.10581
      C   10   -0.10402      0.99956     2.09393    0.01053     3.10402
      C   11   -0.09561      0.99956     2.08574    0.01031     3.09561
      C   12   -0.08920      0.99956     2.07909    0.01055     3.08920
      C   13   -0.10192      0.99950     2.09163    0.01079     3.10192
      C   14    0.34164      0.99967     1.63486    0.02383     2.65836
      O   15   -0.32163      0.99988     3.31605    0.00571     4.32163
      N   16   -0.40529      0.99969     2.89909    0.00651     3.90529
      H   17    0.11392      0.00000     0.38516    0.00092     0.38608
      H   18    0.11378      0.00000     0.38519    0.00103     0.38622
      H   19    0.11692      0.00000     0.38205    0.00103     0.38308
      H   20    0.10292      0.00000     0.39469    0.00238     0.39708
      H   21    0.10146      0.00000     0.39512    0.00342     0.39854
      H   22    0.10396      0.00000     0.39440    0.00165     0.39604
      H   23    0.11559      0.00000     0.38306    0.00135     0.38441
      H   24    0.11072      0.00000     0.38789    0.00139     0.38928
      H   25    0.10061      0.00000     0.39850    0.00089     0.39939
      H   26    0.10171      0.00000     0.39691    0.00137     0.39829
      H   27    0.10276      0.00000     0.39564    0.00160     0.39724
      H   28    0.10425      0.00000     0.39374    0.00201     0.39575
      H   29    0.20401      0.00000     0.29314    0.00284     0.29599
      H   30    0.19672      0.00000     0.30164    0.00165     0.30328
 =======================================================================
   * Total *   -0.00000     15.99386    41.79579    0.21035    58.00000

 Normal termination of Gaussian 16 at Thu Dec 10 22:53:05 2020.
