 Gaussian 16, Revision A.03,

 -----------------------------------------------------------
 # opt freq B3LYP/6-31G(d) empiricaldispersion=gd3bj scf=xqc
 -----------------------------------------------------------

 ------------------------------
 CID_68964791_JID_8771_neutraal
 ------------------------------
 Symbolic Z-matrix:
 Charge =  0 Multiplicity = 1

 SCF Done:  E(RB3LYP) =  -803.115032513     A.U. after   14 cycles
 SCF Done:  E(RB3LYP) =  -803.121567782     A.U. after   13 cycles
 SCF Done:  E(RB3LYP) =  -803.122017166     A.U. after   12 cycles
 SCF Done:  E(RB3LYP) =  -803.123318631     A.U. after   12 cycles
 SCF Done:  E(RB3LYP) =  -803.124158613     A.U. after   11 cycles
 SCF Done:  E(RB3LYP) =  -803.125078714     A.U. after   14 cycles
 SCF Done:  E(RB3LYP) =  -803.125576106     A.U. after   11 cycles
 SCF Done:  E(RB3LYP) =  -803.126240879     A.U. after   12 cycles
 SCF Done:  E(RB3LYP) =  -803.126358539     A.U. after   11 cycles
 SCF Done:  E(RB3LYP) =  -803.126422128     A.U. after   11 cycles
 SCF Done:  E(RB3LYP) =  -803.126652004     A.U. after   11 cycles
 SCF Done:  E(RB3LYP) =  -803.126661897     A.U. after   11 cycles
 SCF Done:  E(RB3LYP) =  -803.126662309     A.U. after    9 cycles
 SCF Done:  E(RB3LYP) =  -803.126662326     A.U. after    7 cycles
 SCF Done:  E(RB3LYP) =  -803.126662393     A.U. after    8 cycles
 Optimization completed.
    -- Stationary point found.
 Normal termination of Gaussian 16 at Fri Dec 11 22:23:45 2020.

 --------------------------------------------------------------------
 #N Geom=AllCheck Guess=TCheck SCRF=Check GenChk RB3LYP/6-31G(d) Freq
 --------------------------------------------------------------------

 Structure from the checkpoint file:  "JID_8771.chk"
 ------------------------------
 CID_68964791_JID_8771_neutraal
 ------------------------------
 Charge =  0 Multiplicity = 1

 SCF Done:  E(RB3LYP) =  -803.126662393     A.U. after    1 cycles

  Exact polarizability: 249.571 -12.134 160.754  12.738 -16.873 103.270
 Approx polarizability: 341.877 -11.932 262.848  19.578 -48.219 174.650

                      1                      2                      3
                      A                      A                      A
 Frequencies --     18.5768                37.9843                52.9358
 Red. masses --      4.6389                 3.7450                 4.3615
 Frc consts  --      0.0009                 0.0032                 0.0072
 IR Inten    --      0.1432                 1.0462                 1.3218

                      4                      5                      6
                      A                      A                      A
 Frequencies --     64.6401                68.0361               102.8262
 Red. masses --      3.4516                 3.5315                 3.4898
 Frc consts  --      0.0085                 0.0096                 0.0217
 IR Inten    --      0.9482                 1.2311                 1.0397

                      7                      8                      9
                      A                      A                      A
 Frequencies --    117.2116               160.4263               179.9930
 Red. masses --      4.9313                 2.4678                 5.1443
 Frc consts  --      0.0399                 0.0374                 0.0982
 IR Inten    --      2.7772                 0.6545                 2.0659

                     10                     11                     12
                      A                      A                      A
 Frequencies --    228.1649               250.1754               280.9999
 Red. masses --      3.6562                 3.3401                 1.6359
 Frc consts  --      0.1121                 0.1232                 0.0761
 IR Inten    --      1.2726                 3.6555                 1.3268

                     13                     14                     15
                      A                      A                      A
 Frequencies --    307.7590               325.3887               335.8991
 Red. masses --      2.7295                 2.9055                 2.9502
 Frc consts  --      0.1523                 0.1813                 0.1961
 IR Inten    --      1.5160                46.8229                 1.0678

                     16                     17                     18
                      A                      A                      A
 Frequencies --    380.5944               421.3999               430.4273
 Red. masses --      1.4267                 3.2349                 3.4713
 Frc consts  --      0.1218                 0.3385                 0.3789
 IR Inten    --    120.3689                15.6421                 6.3497

                     19                     20                     21
                      A                      A                      A
 Frequencies --    438.8396               489.1000               505.2965
 Red. masses --      4.1433                 3.8321                 3.9011
 Frc consts  --      0.4701                 0.5401                 0.5869
 IR Inten    --     21.4071                17.7813                 2.9684

                     22                     23                     24
                      A                      A                      A
 Frequencies --    522.9821               530.3042               598.9538
 Red. masses --      4.0574                 3.2258                 4.0329
 Frc consts  --      0.6538                 0.5345                 0.8524
 IR Inten    --      4.5565                16.4846                 3.4295

                     25                     26                     27
                      A                      A                      A
 Frequencies --    605.4812               616.7755               651.4719
 Red. masses --      2.8848                 4.3331                 2.5714
 Frc consts  --      0.6231                 0.9712                 0.6430
 IR Inten    --     30.3228                14.9711                63.2557

                     28                     29                     30
                      A                      A                      A
 Frequencies --    678.9867               746.4497               764.5991
 Red. masses --      4.1660                 2.9028                 2.7770
 Frc consts  --      1.1316                 0.9529                 0.9565
 IR Inten    --     20.3043                23.5584                 1.5215

                     31                     32                     33
                      A                      A                      A
 Frequencies --    773.6280               789.5057               806.8274
 Red. masses --      2.0778                 2.2981                 3.2877
 Frc consts  --      0.7327                 0.8440                 1.2610
 IR Inten    --     46.4132                 9.5792                 5.8409

                     34                     35                     36
                      A                      A                      A
 Frequencies --    827.6481               842.4263               852.5466
 Red. masses --      1.4418                 1.5694                 3.8999
 Frc consts  --      0.5819                 0.6562                 1.6701
 IR Inten    --      0.7509                25.1874                 3.0551

                     37                     38                     39
                      A                      A                      A
 Frequencies --    880.4808               905.3610               930.7381
 Red. masses --      1.5654                 2.6609                 4.1195
 Frc consts  --      0.7150                 1.2851                 2.1026
 IR Inten    --      0.9312                12.5547                 4.9270

                     40                     41                     42
                      A                      A                      A
 Frequencies --    941.8648               951.1799               971.1069
 Red. masses --      1.3735                 1.3437                 1.2404
 Frc consts  --      0.7179                 0.7163                 0.6892
 IR Inten    --      1.0849                13.0165                 0.3717

                     43                     44                     45
                      A                      A                      A
 Frequencies --    988.1807               995.0307              1034.7584
 Red. masses --      1.3261                 1.4999                 3.6739
 Frc consts  --      0.7630                 0.8749                 2.3177
 IR Inten    --      6.4356                20.3912                39.3678

                     46                     47                     48
                      A                      A                      A
 Frequencies --   1055.9956              1066.5787              1070.2988
 Red. masses --      4.3903                 5.0268                 1.9848
 Frc consts  --      2.8845                 3.3692                 1.3396
 IR Inten    --     45.8704                75.6709                10.7045

                     49                     50                     51
                      A                      A                      A
 Frequencies --   1124.5195              1134.7477              1174.8943
 Red. masses --      1.9372                 1.9508                 1.2904
 Frc consts  --      1.4433                 1.4800                 1.0495
 IR Inten    --     10.6916                62.9754                16.1778

                     52                     53                     54
                      A                      A                      A
 Frequencies --   1191.4502              1200.7099              1211.7907
 Red. masses --      1.1057                 1.6998                 1.1410
 Frc consts  --      0.9248                 1.4438                 0.9871
 IR Inten    --      0.8744                 4.5671                12.1736

                     55                     56                     57
                      A                      A                      A
 Frequencies --   1226.9167              1256.8909              1278.4368
 Red. masses --      1.8987                 2.7075                 2.5688
 Frc consts  --      1.6840                 2.5201                 2.4737
 IR Inten    --     37.3247                13.6249               106.7471

                     58                     59                     60
                      A                      A                      A
 Frequencies --   1287.9157              1324.6280              1336.2301
 Red. masses --      2.8085                 2.1186                 1.6769
 Frc consts  --      2.7447                 2.1902                 1.7641
 IR Inten    --      6.0969                22.9870                21.9730

                     61                     62                     63
                      A                      A                      A
 Frequencies --   1341.4082              1356.0004              1377.0360
 Red. masses --      1.3586                 2.3119                 1.8440
 Frc consts  --      1.4403                 2.5046                 2.0602
 IR Inten    --      4.6582                14.2215               132.6914

                     64                     65                     66
                      A                      A                      A
 Frequencies --   1383.8661              1416.3929              1426.6322
 Red. masses --      2.1596                 1.2822                 1.4729
 Frc consts  --      2.4368                 1.5155                 1.7662
 IR Inten    --     23.8031                24.5841               283.2239

                     67                     68                     69
                      A                      A                      A
 Frequencies --   1445.3017              1455.5383              1491.8118
 Red. masses --      1.2905                 1.9342                 2.1358
 Frc consts  --      1.5882                 2.4143                 2.8006
 IR Inten    --     18.0579                44.9153                31.3873

                     70                     71                     72
                      A                      A                      A
 Frequencies --   1508.4234              1519.9746              1522.5094
 Red. masses --      2.2824                 1.0607                 1.0685
 Frc consts  --      3.0597                 1.4438                 1.4593
 IR Inten    --     44.9051                10.9736                 1.3752

                     73                     74                     75
                      A                      A                      A
 Frequencies --   1534.4677              1537.3408              1544.5257
 Red. masses --      1.2225                 1.2536                 1.7315
 Frc consts  --      1.6960                 1.7456                 2.4336
 IR Inten    --      6.7026                 5.9381                56.4531

                     76                     77                     78
                      A                      A                      A
 Frequencies --   1578.5175              1625.8259              1647.5709
 Red. masses --      2.9334                 5.0538                 4.8353
 Frc consts  --      4.3065                 7.8708                 7.7332
 IR Inten    --    522.6282                26.8327                34.5154

                     79                     80                     81
                      A                      A                      A
 Frequencies --   1657.1159              1672.9604              3000.7957
 Red. masses --      5.8815                 6.1075                 1.0709
 Frc consts  --      9.5157                10.0713                 5.6814
 IR Inten    --    176.6961               125.6063                73.1519

                     82                     83                     84
                      A                      A                      A
 Frequencies --   3042.4049              3057.2192              3080.1298
 Red. masses --      1.0670                 1.0361                 1.0927
 Frc consts  --      5.8188                 5.7056                 6.1080
 IR Inten    --     44.1415                10.2719                34.4979

                     85                     86                     87
                      A                      A                      A
 Frequencies --   3114.0237              3126.5152              3142.3017
 Red. masses --      1.0995                 1.0999                 1.1043
 Frc consts  --      6.2818                 6.3349                 6.4242
 IR Inten    --      9.6105                43.7279                30.9476

                     88                     89                     90
                      A                      A                      A
 Frequencies --   3151.8222              3191.3894              3200.7362
 Red. masses --      1.0899                 1.0855                 1.0898
 Frc consts  --      6.3793                 6.5137                 6.5780
 IR Inten    --     44.3681                 0.2852                 4.1842

                     91                     92                     93
                      A                      A                      A
 Frequencies --   3201.6271              3213.4746              3222.4906
 Red. masses --      1.0901                 1.0945                 1.0953
 Frc consts  --      6.5838                 6.6594                 6.7013
 IR Inten    --     18.7837                27.6653                 5.9599

                     94                     95                     96
                      A                      A                      A
 Frequencies --   3245.5132              3584.8563              3730.9090
 Red. masses --      1.0917                 1.0743                 1.0660
 Frc consts  --      6.7751                 8.1340                 8.7427
 IR Inten    --      4.2038                53.8459                 8.5059

 - Thermochemistry -
 -------------------
 Temperature   298.150 Kelvin.  Pressure   1.00000 Atm.
 Atom     1 has atomic number  6 and mass  12.00000

 Molecular mass:   244.12118 amu.
 Principal axes and moments of inertia in atomic units:
                           1         2         3
     Eigenvalues --  2188.109038309.325749367.18681
           X            0.99998   0.00101   0.00636
           Y           -0.00113   0.99982   0.01874
           Z           -0.00634  -0.01875   0.99980
 This molecule is an asymmetric top.
 Rotational symmetry number  1.
 Warning -- assumption of classical behavior for rotation
           may cause significant error
 Rotational temperatures (Kelvin)      0.03958     0.01042     0.00925
 Rotational constants (GHZ):           0.82479     0.21719     0.19267
 Zero-point vibrational energy     739862.8 (Joules/Mol)
                                  176.83144 (Kcal/Mol)
 Warning -- explicit consideration of  26 degrees of freedom as
           vibrations may cause significant error
 Vibrational temperatures:     26.73    54.65    76.16    93.00    97.89
          (Kelvin)            147.94   168.64   230.82   258.97   328.28
                              359.95   404.30   442.80   468.16   483.28
                              547.59   606.30   619.29   631.39   703.71
                              727.01   752.45   762.99   861.76   871.15
                              887.40   937.32   976.91  1073.97  1100.09
                             1113.08  1135.92  1160.84  1190.80  1212.06
                             1226.62  1266.82  1302.61  1339.12  1355.13
                             1368.54  1397.21  1421.77  1431.63  1488.79
                             1519.34  1534.57  1539.92  1617.93  1632.65
                             1690.41  1714.23  1727.55  1743.50  1765.26
                             1808.39  1839.39  1853.02  1905.84  1922.54
                             1929.99  1950.98  1981.25  1991.07  2037.87
                             2052.61  2079.47  2094.19  2146.38  2170.28
                             2186.90  2190.55  2207.76  2211.89  2222.23
                             2271.13  2339.20  2370.49  2384.22  2407.02
                             4317.48  4377.34  4398.66  4431.62  4480.39
                             4498.36  4521.07  4534.77  4591.70  4605.15
                             4606.43  4623.47  4636.45  4669.57  5157.81
                             5367.95

 Zero-point correction=                           0.281799 (Hartree/Particle)
 Thermal correction to Energy=                    0.298266
 Thermal correction to Enthalpy=                  0.299210
 Thermal correction to Gibbs Free Energy=         0.235795
 Sum of electronic and zero-point Energies=           -802.844864
 Sum of electronic and thermal Energies=              -802.828396
 Sum of electronic and thermal Enthalpies=            -802.827452
 Sum of electronic and thermal Free Energies=         -802.890868

                     E (Thermal)             CV                S
                      KCal/Mol        Cal/Mol-Kelvin    Cal/Mol-Kelvin
 Total                  187.165             62.996            133.469
 Electronic               0.000              0.000              0.000
 Translational            0.889              2.981             42.378
 Rotational               0.889              2.981             33.498
 Vibrational            185.387             57.034             57.592
 Vibration     1          0.593              1.986              6.781
 Vibration     2          0.594              1.982              5.362
 Vibration     3          0.596              1.976              4.705
 Vibration     4          0.597              1.971              4.310
 Vibration     5          0.598              1.969              4.209
 Vibration     6          0.605              1.947              3.400
 Vibration     7          0.608              1.935              3.146
 Vibration     8          0.622              1.891              2.545
 Vibration     9          0.629              1.867              2.328
 Vibration    10          0.651              1.798              1.893
 Vibration    11          0.663              1.762              1.729
 Vibration    12          0.681              1.709              1.528
 Vibration    13          0.698              1.659              1.374
 Vibration    14          0.709              1.625              1.283
 Vibration    15          0.717              1.604              1.232
 Vibration    16          0.750              1.512              1.037
 Vibration    17          0.784              1.424              0.887
 Vibration    18          0.792              1.404              0.857
 Vibration    19          0.799              1.385              0.830
 Vibration    20          0.845              1.274              0.686
 Vibration    21          0.861              1.238              0.645
 Vibration    22          0.878              1.199              0.603
 Vibration    23          0.885              1.183              0.587
 Vibration    24          0.957              1.034              0.451
 Vibration    25          0.964              1.020              0.440
 Vibration    26          0.976              0.996              0.422

 Optimization completed.
    -- Stationary point found.
 Normal termination of Gaussian 16 at Fri Dec 11 22:37:16 2020.

 ----------------------------------------------------------------------
 # B3LYP/6-311++G(d,p) empiricaldispersion=gd3bj scf=xqc pop=npa geom=c
 heck
 ----------------------------------------------------------------------

 --------------------------------------
 CID_68964791_JID_8771_Energie_neutraal
 --------------------------------------
 Structure from the checkpoint file:  "JID_8771.chk"
 Charge =  0 Multiplicity = 1

 SCF Done:  E(RB3LYP) =  -803.353558324     A.U. after   15 cycles
 Normal termination of Gaussian 16 at Fri Dec 11 22:43:22 2020.

 ----------------------------------------------------------------------
 # B3LYP/6-311++G(d,p) empiricaldispersion=gd3bj scf=xqc pop=npa geom=c
 heck
 ----------------------------------------------------------------------

 ------------------------------------
 CID_68964791_JID_8771_Energie_kation
 ------------------------------------
 Structure from the checkpoint file:  "JID_8771.chk"
 Charge =  1 Multiplicity = 2

 SCF Done:  E(UB3LYP) =  -803.085599073     A.U. after   22 cycles
 Normal termination of Gaussian 16 at Fri Dec 11 22:56:07 2020.
 Gaussian 16:  ES64L-G16RevA.03 25-Dec-2016

 ----------------------------------------------------------------------
 # B3LYP/6-311++G(d,p) empiricaldispersion=gd3bj scf=xqc pop=npa geom=c
 heck
 ----------------------------------------------------------------------

 -----------------------------------
 CID_68964791_JID_8771_Energie_anion
 -----------------------------------
 Structure from the checkpoint file:  "JID_8771.chk"
 Charge = -1 Multiplicity = 2

                         Standard orientation:
 ---------------------------------------------------------------------
 Center     Atomic      Atomic             Coordinates (Angstroms)
 Number     Number       Type             X           Y           Z
 ---------------------------------------------------------------------
      1          6           0        1.107790    2.372947    1.207072
      2          6           0        2.498449    2.483623    0.596809
      3          8           0        2.686669    1.606382   -0.529954
      4          6           0        2.774185    0.263518   -0.222321
      5          6           0        3.931798   -0.278946    0.327403
      6          6           0        4.006436   -1.647801    0.590576
      7          6           0        2.925863   -2.470866    0.272405
      8          6           0        1.773325   -1.935878   -0.302278
      9          6           0        1.671671   -0.557676   -0.532404
     10          7           0        0.555418    0.052386   -1.116072
     11          6           0       -0.776160   -0.078792   -0.758775
     12          7           0       -1.583026    0.819686   -1.348855
     13          6           0       -2.888275    0.767800   -1.072132
     14          6           0       -3.481343   -0.154655   -0.210737
     15          6           0       -2.617943   -1.058348    0.425197
     16          6           0       -1.258512   -1.032540    0.161287
     17          6           0       -4.966259   -0.171338    0.048275
     18          8           0       -5.286545   -0.258855    1.435634
     19          1           0        0.333216    2.607203    0.470260
     20          1           0        1.013452    3.073198    2.045090
     21          1           0        0.924694    1.362590    1.586985
     22          1           0        2.674814    3.486038    0.197451
     23          1           0        3.270603    2.274189    1.349030
     24          1           0        4.767517    0.380661    0.541352
     25          1           0        4.908482   -2.068211    1.024418
     26          1           0        2.984700   -3.540668    0.449677
     27          1           0        0.958102   -2.586771   -0.597745
     28          1           0        0.749468    0.951980   -1.540118
     29          1           0       -3.502555    1.519933   -1.568013
     30          1           0       -3.022469   -1.767629    1.142030
     31          1           0       -0.582738   -1.708764    0.668055
     32          1           0       -5.433450    0.709909   -0.419861
     33          1           0       -5.432640   -1.056446   -0.399178
     34          1           0       -4.825090    0.471783    1.877361
 ---------------------------------------------------------------------

 SCF Done:  E(UB3LYP) =  -803.344285483     A.U. after   33 cycles
 SCF Done:  E(UB3LYP) =  -803.344285483     a.u. after    1 cycles

 The electronic state is 2-A.
 Alpha  occ. eigenvalues --  -19.05022 -19.02637 -14.23506 -14.18902 -10.13640
 Alpha  occ. eigenvalues --  -10.13518 -10.13310 -10.12332 -10.12271 -10.09817
 Alpha  occ. eigenvalues --  -10.08482 -10.08461 -10.08406 -10.08118 -10.06794
 Alpha  occ. eigenvalues --  -10.06784 -10.06722 -10.06641  -0.96647  -0.92655
 Alpha  occ. eigenvalues --   -0.87219  -0.81291  -0.75641  -0.69979  -0.67972
 Alpha  occ. eigenvalues --   -0.66622  -0.64962  -0.63419  -0.58147  -0.55536
 Alpha  occ. eigenvalues --   -0.53227  -0.52902  -0.49702  -0.49106  -0.44737
 Alpha  occ. eigenvalues --   -0.43512  -0.42122  -0.40770  -0.38854  -0.38815
 Alpha  occ. eigenvalues --   -0.37760  -0.36637  -0.35344  -0.34545  -0.34373
 Alpha  occ. eigenvalues --   -0.33361  -0.33207  -0.31845  -0.30152  -0.29508
 Alpha  occ. eigenvalues --   -0.29196  -0.28375  -0.27905  -0.27173  -0.26713
 Alpha  occ. eigenvalues --   -0.24604  -0.24459  -0.22823  -0.19562  -0.19288
 Alpha  occ. eigenvalues --   -0.17635  -0.16320  -0.15688  -0.15335  -0.10412
 Alpha  occ. eigenvalues --    0.04232
 Alpha virt. eigenvalues --    0.05742   0.06426   0.06986   0.07259   0.07643
 Alpha virt. eigenvalues --    0.07749   0.08447   0.08717   0.09394   0.09694
 Alpha virt. eigenvalues --    0.09868   0.10269   0.11272   0.11504   0.12019

  Beta  occ. eigenvalues --  -19.05022 -19.02607 -14.23517 -14.18724 -10.13569
  Beta  occ. eigenvalues --  -10.13514 -10.13287 -10.12305 -10.12257 -10.09813
  Beta  occ. eigenvalues --  -10.08474 -10.08452 -10.08404 -10.08085 -10.06775
  Beta  occ. eigenvalues --  -10.06746 -10.06662 -10.06535  -0.96639  -0.92578
  Beta  occ. eigenvalues --   -0.87098  -0.81136  -0.75603  -0.69727  -0.67930
  Beta  occ. eigenvalues --   -0.66512  -0.64916  -0.63370  -0.58047  -0.55485
  Beta  occ. eigenvalues --   -0.53084  -0.52766  -0.49610  -0.49044  -0.44703
  Beta  occ. eigenvalues --   -0.43419  -0.42064  -0.40715  -0.38828  -0.38768
  Beta  occ. eigenvalues --   -0.37698  -0.36576  -0.35288  -0.34491  -0.34268
  Beta  occ. eigenvalues --   -0.33315  -0.33160  -0.31630  -0.30019  -0.29393
  Beta  occ. eigenvalues --   -0.29143  -0.28273  -0.27831  -0.27086  -0.26660
  Beta  occ. eigenvalues --   -0.24554  -0.24411  -0.22631  -0.19537  -0.19088
  Beta  occ. eigenvalues --   -0.16888  -0.16194  -0.15502  -0.15191  -0.10212
  Beta virt. eigenvalues --    0.06284   0.06844   0.07015   0.07338   0.07771
  Beta virt. eigenvalues --    0.08024   0.08125   0.08668   0.08947   0.09621
  Beta virt. eigenvalues --    0.09919   0.10074   0.10353   0.11392   0.11628

 Mulliken charges and spin densities:
               1          2
     1  C   -0.360566  -0.212483
     2  C    0.407232  -0.553868
     3  O   -0.135202   0.010608
     4  C   -0.677515   0.238973
     5  C    0.541440  -0.342335
     6  C    0.610605  -0.998667
     7  C   -0.042643  -0.233892
     8  C   -0.417360   0.211549
     9  C    0.285133   0.119484
    10  N    0.106154  -0.003728
    11  C   -0.536032  -0.507426
    12  N   -0.103008   0.123301
    13  C   -0.879210   0.272443
    14  C    0.577700   0.381330
    15  C   -0.579115   0.258194
    16  C    0.163742   0.156035
    17  C    0.695225  -1.136883
    18  O   -0.228100  -0.001529
    19  H    0.238825  -0.064369
    20  H   -0.411204   0.557841
    21  H    0.245539  -0.073753
    22  H   -0.065071   0.226851
    23  H   -0.160610   0.281877
    24  H   -0.272979   0.450415
    25  H   -0.342878   0.498603
    26  H   -0.154441   0.316144
    27  H    0.188297  -0.012401
    28  H    0.311965   0.008332
    29  H    0.038694   0.113868
    30  H   -0.062444   0.228054
    31  H   -0.027730   0.191573
    32  H   -0.058871   0.216711
    33  H    0.051120   0.102760
    34  H    0.053309   0.176387
 Sum of Mulliken charges =  -1.00000   1.00000

 Dipole moment (field-independent basis, Debye):
    X=              0.2421    Y=             -0.4783    Z=             -2.5149  Tot=              2.5714
 Quadrupole moment (field-independent basis, Debye-Ang):
   XX=           -203.4782   YY=           -143.0105   ZZ=           -137.2574
   XY=             -1.0790   XZ=              2.5854   YZ=             -1.3666

 Summary of Natural Population Analysis:

                                       Natural Population
                Natural  -----------------------------------------------
    Atom  No    Charge         Core      Valence    Rydberg      Total
 -----------------------------------------------------------------------
      C    1   -0.30467      0.99966     2.29974    0.00527     3.30467
      C    2   -0.00615      0.99957     1.99502    0.01156     3.00615
      O    3   -0.29846      0.99986     3.28947    0.00913     4.29846
      C    4    0.14097      0.99933     1.84563    0.01407     2.85903
      C    5   -0.11682      0.99951     2.10742    0.00989     3.11682
      C    6   -0.10689      0.99957     2.09723    0.01009     3.10689
      C    7   -0.10210      0.99957     2.09247    0.01006     3.10210
      C    8   -0.11511      0.99953     2.10681    0.00877     3.11511
      C    9    0.07014      0.99943     1.91927    0.01116     2.92986
      N   10   -0.30320      0.99963     2.79367    0.00989     3.80320
      C   11    0.21305      0.99953     1.77300    0.01442     2.78695
      N   12   -0.24098      0.99968     2.73036    0.01095     3.74098
      C   13    0.03483      0.99954     1.95009    0.01554     2.96517
      C   14   -0.08288      0.99949     2.07308    0.01031     3.08288
      C   15   -0.03340      0.99953     2.02462    0.00925     3.03340
      C   16   -0.14960      0.99952     2.14188    0.00819     3.14960
      C   17   -0.01107      0.99956     1.99927    0.01224     3.01107
      O   18   -0.36893      0.99990     3.36234    0.00669     4.36893
      H   19    0.10439      0.00000     0.39440    0.00121     0.39561
      H   20    0.10206      0.00000     0.39687    0.00107     0.39794
      H   21    0.10420      0.00000     0.39445    0.00134     0.39580
      H   22    0.08787      0.00000     0.41095    0.00118     0.41213
      H   23    0.08265      0.00000     0.41573    0.00162     0.41735
      H   24    0.10599      0.00000     0.39273    0.00128     0.39401
      H   25    0.10133      0.00000     0.39752    0.00115     0.39867
      H   26    0.10042      0.00000     0.39877    0.00082     0.39958
      H   27    0.10560      0.00000     0.39300    0.00140     0.39440
      H   28    0.20212      0.00000     0.29437    0.00351     0.29788
      H   29    0.08562      0.00000     0.41291    0.00147     0.41438
      H   30    0.10142      0.00000     0.39752    0.00106     0.39858
      H   31    0.10536      0.00000     0.39293    0.00171     0.39464
      H   32    0.07709      0.00000     0.42126    0.00164     0.42291
      H   33    0.08718      0.00000     0.41135    0.00148     0.41282
      H   34    0.22796      0.00000     0.26811    0.00393     0.27204
 =======================================================================
   * Total *    0.00000     17.99242    46.79423    0.21335    65.00000

 Normal termination of Gaussian 16 at Fri Dec 11 23:15:59 2020.
