 Gaussian 16, Revision A.03,

 -----------------------------------------------------------
 # opt freq B3LYP/6-31G(d) empiricaldispersion=gd3bj scf=xqc
 -----------------------------------------------------------

 -------------------------------
 CID_117915931_JID_3448_neutraal
 -------------------------------
 Symbolic Z-matrix:
 Charge =  0 Multiplicity = 1

 SCF Done:  E(RB3LYP) =  -598.990881296     A.U. after   14 cycles
 SCF Done:  E(RB3LYP) =  -598.993700520     A.U. after   12 cycles
 SCF Done:  E(RB3LYP) =  -598.993766711     A.U. after   12 cycles
 SCF Done:  E(RB3LYP) =  -598.994486306     A.U. after   12 cycles
 SCF Done:  E(RB3LYP) =  -598.994703796     A.U. after   11 cycles
 SCF Done:  E(RB3LYP) =  -598.994730286     A.U. after    9 cycles
 SCF Done:  E(RB3LYP) =  -598.994764350     A.U. after   11 cycles
 SCF Done:  E(RB3LYP) =  -598.994779724     A.U. after    9 cycles
 SCF Done:  E(RB3LYP) =  -598.994793723     A.U. after    9 cycles
 SCF Done:  E(RB3LYP) =  -598.994798843     A.U. after    9 cycles
 SCF Done:  E(RB3LYP) =  -598.994858657     A.U. after    9 cycles
 SCF Done:  E(RB3LYP) =  -598.994858311     A.U. after    9 cycles
 SCF Done:  E(RB3LYP) =  -598.994858660     A.U. after    9 cycles
 SCF Done:  E(RB3LYP) =  -598.994858654     A.U. after    6 cycles
 SCF Done:  E(RB3LYP) =  -598.994858672     A.U. after    6 cycles
 SCF Done:  E(RB3LYP) =  -598.994858680     A.U. after    6 cycles
 Optimization completed.
    -- Stationary point found.
 Normal termination of Gaussian 16 at Wed Dec  9 23:31:35 2020.

 --------------------------------------------------------------------
 #N Geom=AllCheck Guess=TCheck SCRF=Check GenChk RB3LYP/6-31G(d) Freq
 --------------------------------------------------------------------

 Structure from the checkpoint file:  "JID_3448.chk"
 -------------------------------
 CID_117915931_JID_3448_neutraal
 -------------------------------
 Charge =  0 Multiplicity = 1

 SCF Done:  E(RB3LYP) =  -598.994858680     A.U. after    1 cycles

  Exact polarizability: 141.900   1.228 115.090   9.042   0.823 101.146
 Approx polarizability: 169.634  -1.844 163.392  14.180  -1.455 149.285

                      1                      2                      3
                      A                      A                      A
 Frequencies --     23.3713                35.0325                44.1851
 Red. masses --      2.7902                 2.6173                 1.7609
 Frc consts  --      0.0009                 0.0019                 0.0020
 IR Inten    --      1.4148                 0.9745                 0.0067

                      4                      5                      6
                      A                      A                      A
 Frequencies --     48.8431                65.4665                84.2292
 Red. masses --      3.1901                 2.9923                 3.1160
 Frc consts  --      0.0045                 0.0076                 0.0130
 IR Inten    --      0.6814                 0.2670                 1.1495

                      7                      8                      9
                      A                      A                      A
 Frequencies --    119.3319               144.3004               168.3982
 Red. masses --      2.4229                 1.4783                 3.3137
 Frc consts  --      0.0203                 0.0181                 0.0554
 IR Inten    --      2.7213                 1.2990                 1.3626

                     10                     11                     12
                      A                      A                      A
 Frequencies --    199.1106               218.4111               231.8713
 Red. masses --      2.2107                 1.9369                 1.1699
 Frc consts  --      0.0516                 0.0544                 0.0371
 IR Inten    --      1.1725                 3.0989                 0.1157

                     13                     14                     15
                      A                      A                      A
 Frequencies --    253.4385               281.8435               302.5830
 Red. masses --      1.3443                 1.8381                 2.3637
 Frc consts  --      0.0509                 0.0860                 0.1275
 IR Inten    --      0.6502                 0.7180                 0.1365

                     16                     17                     18
                      A                      A                      A
 Frequencies --    348.0095               372.1097               389.2210
 Red. masses --      2.2632                 2.4586                 2.1699
 Frc consts  --      0.1615                 0.2006                 0.1937
 IR Inten    --      0.2020                 1.3279                 1.0171

                     19                     20                     21
                      A                      A                      A
 Frequencies --    397.9745               432.9655               451.5557
 Red. masses --      3.4070                 1.9009                 2.2745
 Frc consts  --      0.3179                 0.2099                 0.2732
 IR Inten    --     22.6893                 1.3753                 3.2712

                     22                     23                     24
                      A                      A                      A
 Frequencies --    526.0591               575.2456               619.3090
 Red. masses --      3.0512                 2.8187                 5.3115
 Frc consts  --      0.4975                 0.5495                 1.2003
 IR Inten    --      2.7935                 2.2206                 5.9784

                     25                     26                     27
                      A                      A                      A
 Frequencies --    732.6527               751.1409               809.4206
 Red. masses --      1.5450                11.3099                 2.3908
 Frc consts  --      0.4886                 3.7597                 0.9229
 IR Inten    --     11.4663                17.8310                 3.4885

                     28                     29                     30
                      A                      A                      A
 Frequencies --    825.4653               841.3446               908.3580
 Red. masses --      2.1587                 4.5467                 1.8781
 Frc consts  --      0.8666                 1.8963                 0.9130
 IR Inten    --      1.6067                11.5654                 9.1137

                     31                     32                     33
                      A                      A                      A
 Frequencies --    933.7701               940.5379               964.0305
 Red. masses --      2.0350                 1.2156                 1.6919
 Frc consts  --      1.0454                 0.6336                 0.9264
 IR Inten    --      1.9267                 2.1373                17.1572

                     34                     35                     36
                      A                      A                      A
 Frequencies --    981.8574              1013.2680              1037.8680
 Red. masses --      1.6122                 2.0645                 1.9098
 Frc consts  --      0.9157                 1.2489                 1.2121
 IR Inten    --      7.2305                27.3773                 5.3566

                     37                     38                     39
                      A                      A                      A
 Frequencies --   1062.7662              1090.2464              1096.0092
 Red. masses --      1.4873                 1.9545                 1.3563
 Frc consts  --      0.9897                 1.3688                 0.9599
 IR Inten    --      1.4608                 6.7618                 4.9137

                     40                     41                     42
                      A                      A                      A
 Frequencies --   1114.7183              1145.3987              1156.9981
 Red. masses --      2.7728                 1.2185                 2.0734
 Frc consts  --      2.0300                 0.9418                 1.6353
 IR Inten    --     18.9550                 0.2953                 0.6970

                     43                     44                     45
                      A                      A                      A
 Frequencies --   1184.4698              1191.6443              1206.9414
 Red. masses --      2.0587                 1.3671                 1.7219
 Frc consts  --      1.7017                 1.1438                 1.4778
 IR Inten    --      7.2088                12.4102                21.6188

                     46                     47                     48
                      A                      A                      A
 Frequencies --   1220.5187              1238.3411              1267.7236
 Red. masses --      2.7787                 1.3633                 1.4599
 Frc consts  --      2.4388                 1.2317                 1.3823
 IR Inten    --    427.3299                43.2765                15.5320

                     49                     50                     51
                      A                      A                      A
 Frequencies --   1303.5513              1313.3530              1335.0043
 Red. masses --      3.8915                 1.3942                 1.1817
 Frc consts  --      3.8960                 1.4169                 1.2409
 IR Inten    --     33.4460                23.6177                 2.2022

                     52                     53                     54
                      A                      A                      A
 Frequencies --   1362.9845              1381.8986              1401.5553
 Red. masses --      1.2100                 1.3920                 1.3944
 Frc consts  --      1.3244                 1.5662                 1.6139
 IR Inten    --      4.0643                 5.4469                11.4793

                     55                     56                     57
                      A                      A                      A
 Frequencies --   1407.9772              1421.2176              1428.9068
 Red. masses --      1.4355                 1.4585                 1.2976
 Frc consts  --      1.6767                 1.7358                 1.5610
 IR Inten    --      4.1310                43.7604                 1.2901

                     58                     59                     60
                      A                      A                      A
 Frequencies --   1431.9600              1450.7747              1453.3439
 Red. masses --      1.4064                 1.2668                 1.5038
 Frc consts  --      1.6991                 1.5709                 1.8715
 IR Inten    --      8.3199                 3.6211                88.0981

                     61                     62                     63
                      A                      A                      A
 Frequencies --   1460.5560              1494.3847              1510.5792
 Red. masses --      1.3748                 1.2902                 1.0801
 Frc consts  --      1.7279                 1.6976                 1.4521
 IR Inten    --     74.3947                67.7127                 1.4163

                     64                     65                     66
                      A                      A                      A
 Frequencies --   1516.6773              1518.6094              1519.8102
 Red. masses --      1.0702                 1.0580                 1.0436
 Frc consts  --      1.4505                 1.4375                 1.4202
 IR Inten    --      1.3530                 1.2400                 0.9989

                     67                     68                     69
                      A                      A                      A
 Frequencies --   1527.1177              1529.7408              1530.8546
 Red. masses --      1.0639                 1.0722                 1.0483
 Frc consts  --      1.4618                 1.4782                 1.4474
 IR Inten    --      5.2392                15.3082                22.8922

                     70                     71                     72
                      A                      A                      A
 Frequencies --   1532.1604              1536.1336              1543.2259
 Red. masses --      1.0530                 1.0587                 1.0856
 Frc consts  --      1.4565                 1.4720                 1.5232
 IR Inten    --     11.6973                 2.3839                 6.7596

                     73                     74                     75
                      A                      A                      A
 Frequencies --   1545.1110              1570.0914              1790.0918
 Red. masses --      1.0578                 1.2854                 9.6386
 Frc consts  --      1.4880                 1.8670                18.1977
 IR Inten    --      7.8544                62.9206               394.4947

                     76                     77                     78
                      A                      A                      A
 Frequencies --   3008.9061              3025.1762              3025.3036
 Red. masses --      1.0798                 1.0416                 1.0699
 Frc consts  --      5.7596                 5.6165                 5.7695
 IR Inten    --      7.7700                29.6360                32.0246

                     79                     80                     81
                      A                      A                      A
 Frequencies --   3032.8794              3035.3218              3039.4275
 Red. masses --      1.0426                 1.0364                 1.0456
 Frc consts  --      5.6503                 5.6258                 5.6912
 IR Inten    --    119.6942                28.6838                18.7902

                     82                     83                     84
                      A                      A                      A
 Frequencies --   3042.6043              3048.4266              3071.1211
 Red. masses --      1.0540                 1.0618                 1.1001
 Frc consts  --      5.7487                 5.8135                 6.1132
 IR Inten    --     39.8447                31.0602                24.2241

                     85                     86                     87
                      A                      A                      A
 Frequencies --   3072.3985              3076.4213              3078.9787
 Red. masses --      1.1016                 1.1039                 1.0813
 Frc consts  --      6.1268                 6.1554                 6.0395
 IR Inten    --     63.5482                12.5943                31.4091

                     88                     89                     90
                      A                      A                      A
 Frequencies --   3084.5062              3095.6913              3097.4549
 Red. masses --      1.0856                 1.0963                 1.1008
 Frc consts  --      6.0856                 6.1903                 6.2226
 IR Inten    --     68.8690                14.6248                 6.6252

                     91                     92                     93
                      A                      A                      A
 Frequencies --   3104.5072              3112.0503              3113.3909
 Red. masses --      1.1004                 1.1016                 1.1016
 Frc consts  --      6.2487                 6.2857                 6.2915
 IR Inten    --     84.7562                29.5694                54.6046

                     94                     95                     96
                      A                      A                      A
 Frequencies --   3156.8590              3195.2052              3210.0688
 Red. masses --      1.0999                 1.0957                 1.0941
 Frc consts  --      6.4581                 6.5911                 6.6427
 IR Inten    --     13.2581                 0.9899                 2.9374

 - Thermochemistry -
 -------------------
 Temperature   298.150 Kelvin.  Pressure   1.00000 Atm.
 Atom     1 has atomic number  6 and mass  12.00000

 Molecular mass:   187.15723 amu.
 Principal axes and moments of inertia in atomic units:
                           1         2         3
     Eigenvalues --  1275.562424908.316245472.80955
           X            0.99998  -0.00237   0.00643
           Y            0.00235   0.99999   0.00410
           Z           -0.00644  -0.00409   0.99997
 This molecule is an asymmetric top.
 Rotational symmetry number  1.
 Warning -- assumption of classical behavior for rotation
           may cause significant error
 Rotational temperatures (Kelvin)      0.06790     0.01765     0.01583
 Rotational constants (GHZ):           1.41486     0.36769     0.32977
 Zero-point vibrational energy     811024.6 (Joules/Mol)
                                  193.83953 (Kcal/Mol)
 Warning -- explicit consideration of  24 degrees of freedom as
           vibrations may cause significant error
 Vibrational temperatures:     33.63    50.40    63.57    70.27    94.19
          (Kelvin)            121.19   171.69   207.62   242.29   286.48
                              314.24   333.61   364.64   405.51   435.35
                              500.71   535.38   560.00   572.60   622.94
                              649.69   756.88   827.65   891.05  1054.12
                             1080.72  1164.58  1187.66  1210.51  1306.92
                             1343.49  1353.22  1387.02  1412.67  1457.87
                             1493.26  1529.08  1568.62  1576.91  1603.83
                             1647.97  1664.66  1704.19  1714.51  1736.52
                             1756.05  1781.70  1823.97  1875.52  1889.62
                             1920.77  1961.03  1988.24  2016.53  2025.77
                             2044.82  2055.88  2060.27  2087.34  2091.04
                             2101.41  2150.09  2173.39  2182.16  2184.94
                             2186.67  2197.18  2200.96  2202.56  2204.44
                             2210.15  2220.36  2223.07  2259.01  2575.54
                             4329.14  4352.55  4352.74  4363.64  4367.15
                             4373.06  4377.63  4386.01  4418.66  4420.50
                             4426.28  4429.96  4437.92  4454.01  4456.55
                             4466.69  4477.55  4479.48  4542.02  4597.19
                             4618.57

 Zero-point correction=                           0.308903 (Hartree/Particle)
 Thermal correction to Energy=                    0.325162
 Thermal correction to Enthalpy=                  0.326106
 Thermal correction to Gibbs Free Energy=         0.263180
 Sum of electronic and zero-point Energies=           -598.685956
 Sum of electronic and thermal Energies=              -598.669697
 Sum of electronic and thermal Enthalpies=            -598.668753
 Sum of electronic and thermal Free Energies=         -598.731678

                     E (Thermal)             CV                S
                      KCal/Mol        Cal/Mol-Kelvin    Cal/Mol-Kelvin
 Total                  204.042             57.579            132.438
 Electronic               0.000              0.000              0.000
 Translational            0.889              2.981             41.586
 Rotational               0.889              2.981             31.905
 Vibrational            202.265             51.618             58.947
 Vibration     1          0.593              1.985              6.325
 Vibration     2          0.594              1.982              5.522
 Vibration     3          0.595              1.980              5.062
 Vibration     4          0.595              1.978              4.864
 Vibration     5          0.597              1.971              4.285
 Vibration     6          0.601              1.960              3.790
 Vibration     7          0.609              1.933              3.111
 Vibration     8          0.616              1.909              2.746
 Vibration     9          0.625              1.881              2.453
 Vibration    10          0.637              1.841              2.141
 Vibration    11          0.646              1.813              1.972
 Vibration    12          0.653              1.792              1.864
 Vibration    13          0.665              1.757              1.707
 Vibration    14          0.681              1.707              1.522
 Vibration    15          0.694              1.669              1.403
 Vibration    16          0.726              1.579              1.175
 Vibration    17          0.744              1.529              1.071
 Vibration    18          0.757              1.493              1.003
 Vibration    19          0.764              1.474              0.970
 Vibration    20          0.794              1.398              0.849
 Vibration    21          0.810              1.357              0.791
 Vibration    22          0.881              1.192              0.596
 Vibration    23          0.932              1.085              0.494
 Vibration    24          0.979              0.991              0.418

 Optimization completed.
    -- Stationary point found.
 Normal termination of Gaussian 16 at Wed Dec  9 23:40:58 2020.

 ----------------------------------------------------------------------
 # B3LYP/6-311++G(d,p) empiricaldispersion=gd3bj scf=xqc pop=npa geom=c
 heck
 ----------------------------------------------------------------------

 ---------------------------------------
 CID_117915931_JID_3448_Energie_neutraal
 ---------------------------------------
 Structure from the checkpoint file:  "JID_3448.chk"
 Charge =  0 Multiplicity = 1

 SCF Done:  E(RB3LYP) =  -599.168581400     A.U. after   13 cycles
 Normal termination of Gaussian 16 at Wed Dec  9 23:45:22 2020.

 ----------------------------------------------------------------------
 # B3LYP/6-311++G(d,p) empiricaldispersion=gd3bj scf=xqc pop=npa geom=c
 heck
 ----------------------------------------------------------------------

 -------------------------------------
 CID_117915931_JID_3448_Energie_kation
 -------------------------------------
 Structure from the checkpoint file:  "JID_3448.chk"
 Charge =  1 Multiplicity = 2

 SCF Done:  E(UB3LYP) =  -598.846336013     A.U. after   25 cycles
 Normal termination of Gaussian 16 at Wed Dec  9 23:57:04 2020.
 Gaussian 16:  ES64L-G16RevA.03 25-Dec-2016

 ----------------------------------------------------------------------
 # B3LYP/6-311++G(d,p) empiricaldispersion=gd3bj scf=xqc pop=npa geom=c
 heck
 ----------------------------------------------------------------------

 ------------------------------------
 CID_117915931_JID_3448_Energie_anion
 ------------------------------------
 Structure from the checkpoint file:  "JID_3448.chk"
 Charge = -1 Multiplicity = 2

                         Standard orientation:
 ---------------------------------------------------------------------
 Center     Atomic      Atomic             Coordinates (Angstroms)
 Number     Number       Type             X           Y           Z
 ---------------------------------------------------------------------
      1          6           0       -4.153685   -0.398870    0.517828
      2          6           0       -3.023385    0.424189   -0.112302
      3          6           0       -3.466252    1.876013   -0.332025
      4          6           0       -1.734089    0.389240    0.727136
      5          6           0       -1.143373   -1.005172    0.992190
      6          6           0       -0.856233   -1.848223   -0.259021
      7          6           0        0.109516   -1.206306   -1.248006
      8          8           0        1.393271   -1.007737   -0.621259
      9          6           0        1.810258    0.277247   -0.455490
     10          8           0        1.203733    1.254925   -0.870427
     11          7           0        2.987449    0.334952    0.234518
     12          6           0        3.722704   -0.828866    0.696930
     13          6           0        3.613077    1.627211    0.447724
     14          1           0       -4.386624   -0.027837    1.524619
     15          1           0       -3.891320   -1.458753    0.607218
     16          1           0       -5.069748   -0.333351   -0.080856
     17          1           0       -2.803327   -0.004892   -1.101227
     18          1           0       -3.710815    2.356051    0.624505
     19          1           0       -2.672372    2.463857   -0.806613
     20          1           0       -4.357123    1.929927   -0.968928
     21          1           0       -0.978031    1.013560    0.237690
     22          1           0       -1.940581    0.863757    1.697866
     23          1           0       -0.208863   -0.886168    1.555105
     24          1           0       -1.814837   -1.578634    1.643344
     25          1           0       -0.450829   -2.820683    0.048401
     26          1           0       -1.787858   -2.058552   -0.800714
     27          1           0        0.288100   -1.869265   -2.100544
     28          1           0       -0.250141   -0.244276   -1.615283
     29          1           0        4.665957   -0.940131    0.143828
     30          1           0        3.964168   -0.715672    1.761638
     31          1           0        3.123489   -1.725553    0.561118
     32          1           0        2.951592    2.403404    0.066867
     33          1           0        3.791569    1.790017    1.518418
     34          1           0        4.578189    1.682253   -0.074370
 ---------------------------------------------------------------------

 SCF Done:  E(UB3LYP) =  -599.154053429     A.U. after   28 cycles

 The electronic state is 2-A.
 Alpha  occ. eigenvalues --  -19.05889 -18.99166 -14.24455 -10.21613 -10.12374
 Alpha  occ. eigenvalues --  -10.09727 -10.09585 -10.07894 -10.07237 -10.06680
 Alpha  occ. eigenvalues --  -10.06636 -10.06474 -10.06063  -1.00459  -0.91324
 Alpha  occ. eigenvalues --   -0.84193  -0.72402  -0.68832  -0.63664  -0.62031
 Alpha  occ. eigenvalues --   -0.59537  -0.59261  -0.55109  -0.50103  -0.46262
 Alpha  occ. eigenvalues --   -0.44665  -0.43566  -0.40076  -0.38539  -0.37705
 Alpha  occ. eigenvalues --   -0.36772  -0.35545  -0.34361  -0.33679  -0.32662
 Alpha  occ. eigenvalues --   -0.31686  -0.30308  -0.30269  -0.30105  -0.29559
 Alpha  occ. eigenvalues --   -0.28950  -0.28667  -0.26884  -0.26101  -0.25123
 Alpha  occ. eigenvalues --   -0.24449  -0.22374  -0.21856  -0.21639  -0.19739
 Alpha  occ. eigenvalues --   -0.18200  -0.14584   0.04330
 Alpha virt. eigenvalues --    0.05855   0.07073   0.07481   0.08337   0.08482
 Alpha virt. eigenvalues --    0.08890   0.09627   0.10263   0.10568   0.11046
 Alpha virt. eigenvalues --    0.11238   0.11678   0.12187   0.13252   0.13491

  Beta  occ. eigenvalues --  -19.05884 -18.99163 -14.24454 -10.21610 -10.12364
  Beta  occ. eigenvalues --  -10.09688 -10.09534 -10.07888 -10.07220 -10.06670
  Beta  occ. eigenvalues --  -10.06623 -10.06448 -10.06057  -1.00451  -0.91317
  Beta  occ. eigenvalues --   -0.84180  -0.72383  -0.68806  -0.63634  -0.61967
  Beta  occ. eigenvalues --   -0.59490  -0.59222  -0.55070  -0.50061  -0.46228
  Beta  occ. eigenvalues --   -0.44634  -0.43515  -0.40047  -0.38499  -0.37671
  Beta  occ. eigenvalues --   -0.36743  -0.35519  -0.34327  -0.33654  -0.32637
  Beta  occ. eigenvalues --   -0.31657  -0.30282  -0.30222  -0.30059  -0.29540
  Beta  occ. eigenvalues --   -0.28926  -0.28631  -0.26860  -0.26077  -0.25097
  Beta  occ. eigenvalues --   -0.24426  -0.22352  -0.21832  -0.21619  -0.19727
  Beta  occ. eigenvalues --   -0.18191  -0.14559
  Beta virt. eigenvalues --    0.06225   0.06974   0.07596   0.07826   0.08720
  Beta virt. eigenvalues --    0.09030   0.09617   0.09992   0.10537   0.10938
  Beta virt. eigenvalues --    0.11195   0.11452   0.11956   0.12667   0.13468

 Mulliken charges and spin densities:
               1          2
     1  C    0.411585  -1.103538
     2  C   -0.535503   0.839544
     3  C   -0.218568  -0.382135
     4  C    0.213986  -0.419176
     5  C   -0.139663  -0.060458
     6  C    0.092744  -0.450881
     7  C    0.160472  -0.491709
     8  O   -0.062284   0.018206
     9  C   -0.366353   0.194392
    10  O   -0.320441   0.003413
    11  N   -0.391370   0.318348
    12  C    1.268346  -1.571471
    13  C    0.666665  -0.939646
    14  H   -0.062026   0.202422
    15  H   -0.113133   0.242268
    16  H   -0.150624   0.279581
    17  H    0.087727   0.049104
    18  H    0.058716   0.068695
    19  H    0.095271   0.044476
    20  H    0.000328   0.129344
    21  H    0.159358   0.030136
    22  H    0.017863   0.120345
    23  H   -0.004128   0.181323
    24  H    0.010908   0.152965
    25  H   -0.156631   0.346443
    26  H   -0.067705   0.214533
    27  H   -0.312275   0.494500
    28  H    0.182667   0.015902
    29  H   -0.473758   0.624710
    30  H   -0.469533   0.615632
    31  H   -0.089707   0.276831
    32  H    0.031086   0.143139
    33  H   -0.240047   0.381795
    34  H   -0.283974   0.430970
 Sum of Mulliken charges =  -1.00000   1.00000

 Dipole moment (field-independent basis, Debye):
    X=             -4.6470    Y=              1.5945    Z=             -1.3726  Tot=              5.1010
 Quadrupole moment (field-independent basis, Debye-Ang):
   XX=           -179.8874   YY=           -123.7274   ZZ=           -116.9694
   XY=             -1.5844   XZ=             -5.3811   YZ=              0.9031

 Summary of Natural Population Analysis:

                                       Natural Population
                Natural  -----------------------------------------------
    Atom  No    Charge         Core      Valence    Rydberg      Total
 -----------------------------------------------------------------------
      C    1   -0.28691      0.99965     2.28125    0.00601     3.28691
      C    2   -0.11755      0.99962     2.10856    0.00937     3.11755
      C    3   -0.28114      0.99965     2.27685    0.00464     3.28114
      C    4   -0.19589      0.99960     2.18820    0.00809     3.19589
      C    5   -0.19230      0.99962     2.18386    0.00881     3.19230
      C    6   -0.20155      0.99962     2.19343    0.00850     3.20155
      C    7   -0.01509      0.99955     2.00413    0.01142     3.01509
      O    8   -0.29266      0.99986     3.28393    0.00888     4.29266
      C    9    0.46638      0.99964     1.50847    0.02551     2.53362
      O   10   -0.34355      0.99987     3.33894    0.00475     4.34355
      N   11   -0.25800      0.99966     2.74804    0.01029     3.75800
      C   12   -0.17511      0.99963     2.16721    0.00827     3.17511
      C   13   -0.17535      0.99964     2.16765    0.00806     3.17535
      H   14    0.09523      0.00000     0.40386    0.00092     0.40477
      H   15    0.10053      0.00000     0.39850    0.00097     0.39947
      H   16    0.09762      0.00000     0.40149    0.00089     0.40238
      H   17    0.09068      0.00000     0.40736    0.00196     0.40932
      H   18    0.09436      0.00000     0.40476    0.00088     0.40564
      H   19    0.10118      0.00000     0.39802    0.00080     0.39882
      H   20    0.09574      0.00000     0.40346    0.00080     0.40426
      H   21    0.11032      0.00000     0.38810    0.00158     0.38968
      H   22    0.09432      0.00000     0.40469    0.00099     0.40568
      H   23    0.10102      0.00000     0.39758    0.00140     0.39898
      H   24    0.09705      0.00000     0.40183    0.00112     0.40295
      H   25    0.10133      0.00000     0.39742    0.00125     0.39867
      H   26    0.09853      0.00000     0.40017    0.00130     0.40147
      H   27    0.08904      0.00000     0.40986    0.00110     0.41096
      H   28    0.10076      0.00000     0.39769    0.00155     0.39924
      H   29    0.09349      0.00000     0.40413    0.00238     0.40651
      H   30    0.09486      0.00000     0.40296    0.00218     0.40514
      H   31    0.11285      0.00000     0.38534    0.00180     0.38715
      H   32    0.11345      0.00000     0.38552    0.00103     0.38655
      H   33    0.09377      0.00000     0.40490    0.00133     0.40623
      H   34    0.09259      0.00000     0.40593    0.00148     0.40741
 =======================================================================
   * Total *   -0.00000     12.99562    38.85406    0.15033    52.00000

 Normal termination of Gaussian 16 at Thu Dec 10 00:10:09 2020.
