 Gaussian 16, Revision A.03,

 -----------------------------------------------------------
 # opt freq B3LYP/6-31G(d) empiricaldispersion=gd3bj scf=xqc
 -----------------------------------------------------------

 ------------------------------
 CID_70435613_JID_1949_neutraal
 ------------------------------
 Symbolic Z-matrix:
 Charge =  0 Multiplicity = 1

 SCF Done:  E(RB3LYP) =  -491.694540618     A.U. after   15 cycles
 SCF Done:  E(RB3LYP) =  -491.703089840     A.U. after   13 cycles
 SCF Done:  E(RB3LYP) =  -491.703963532     A.U. after   12 cycles
 SCF Done:  E(RB3LYP) =  -491.704211691     A.U. after   11 cycles
 SCF Done:  E(RB3LYP) =  -491.704369846     A.U. after   12 cycles
 SCF Done:  E(RB3LYP) =  -491.704426738     A.U. after   11 cycles
 SCF Done:  E(RB3LYP) =  -491.704457422     A.U. after   11 cycles
 SCF Done:  E(RB3LYP) =  -491.704460875     A.U. after    9 cycles
 SCF Done:  E(RB3LYP) =  -491.704462593     A.U. after   10 cycles
 SCF Done:  E(RB3LYP) =  -491.704463005     A.U. after    8 cycles
 SCF Done:  E(RB3LYP) =  -491.704463165     A.U. after    8 cycles
 SCF Done:  E(RB3LYP) =  -491.704463192     A.U. after    8 cycles
 Optimization completed.
    -- Stationary point found.

 1\1\GINC-NODE124\FOpt\RB3LYP\6-31G(d)\C7H10N4\VSC10255\08-Dec-2020\0\\
 # opt freq B3LYP/6-31G(d) empiricaldispersion=gd3bj scf=xqc\\CID_70435
 613_JID_1949_neutraal\\0,1\C,1.0215656421,-0.0680308874,-0.0142625943\
 C,-0.1099826732,-0.2085863222,0.6741156996\C,-1.4242953365,-0.61114564
 51,0.0548023561\N,-1.8879385178,-1.9217120374,0.5095649729\C,-2.378317
 6883,-2.1209444616,1.7854269644\N,-2.3945952994,-3.4022044231,2.207146
 7855\N,-2.8978676274,-3.7128535105,3.4008988573\C,-3.3808408886,-2.756
 2853152,4.1879306203\C,-3.3824348374,-1.4019239643,3.8206474204\C,-2.8

 Normal termination of Gaussian 16 at Tue Dec  8 20:42:34 2020.

 --------------------------------------------------------------------
 #N Geom=AllCheck Guess=TCheck SCRF=Check GenChk RB3LYP/6-31G(d) Freq
 --------------------------------------------------------------------

 Structure from the checkpoint file:  "JID_1949.chk"
 ------------------------------
 CID_70435613_JID_1949_neutraal
 ------------------------------
 Charge =  0 Multiplicity = 1

 SCF Done:  E(RB3LYP) =  -491.704463192     A.U. after    1 cycles

  Exact polarizability: 141.535 -11.846  89.799   4.362   3.855  62.775
 Approx polarizability: 203.809 -19.914 154.489  15.255  14.242  99.215

                      1                      2                      3
                      A                      A                      A
 Frequencies --     40.8887                57.3434                85.3410
 Red. masses --      4.6060                 3.6120                 2.7257
 Frc consts  --      0.0045                 0.0070                 0.0117
 IR Inten    --      1.7936                 0.1088                 3.3882

                      4                      5                      6
                      A                      A                      A
 Frequencies --    141.5886               181.8244               212.8851
 Red. masses --      3.1170                 1.6892                 1.6674
 Frc consts  --      0.0368                 0.0329                 0.0445
 IR Inten    --     10.2101                17.7010                28.9300

                      7                      8                      9
                      A                      A                      A
 Frequencies --    250.8524               348.5607               366.8326
 Red. masses --      3.6132                 3.1321                 3.0757
 Frc consts  --      0.1340                 0.2242                 0.2439
 IR Inten    --      8.6513                 6.1237                 7.1662

                     10                     11                     12
                      A                      A                      A
 Frequencies --    397.2745               449.9435               504.2862
 Red. masses --      4.3991                 2.5748                 2.5679
 Frc consts  --      0.4091                 0.3071                 0.3848
 IR Inten    --      0.4749                 6.3046                 7.2523

                     13                     14                     15
                      A                      A                      A
 Frequencies --    545.7478               564.2170               644.1473
 Red. masses --      2.9219                 3.8845                 8.0769
 Frc consts  --      0.5127                 0.7286                 1.9745
 IR Inten    --      0.2130                11.1552                 0.2015

                     16                     17                     18
                      A                      A                      A
 Frequencies --    692.0875               755.3822               797.5636
 Red. masses --      2.3730                 2.7585                 4.4094
 Frc consts  --      0.6697                 0.9274                 1.6526
 IR Inten    --     13.4685                 4.7982                23.0245

                     19                     20                     21
                      A                      A                      A
 Frequencies --    813.5869               911.4713               926.0690
 Red. masses --      1.9230                 1.3422                 1.5495
 Frc consts  --      0.7499                 0.6570                 0.7829
 IR Inten    --     34.8064                 0.0185                 5.6829

                     22                     23                     24
                      A                      A                      A
 Frequencies --    944.9372               955.5939               989.6226
 Red. masses --      2.6580                 1.3880                 1.2975
 Frc consts  --      1.3984                 0.7468                 0.7487
 IR Inten    --      8.3273                30.6327                 0.0508

                     25                     26                     27
                      A                      A                      A
 Frequencies --   1011.2383              1021.9681              1029.9646
 Red. masses --      3.2967                 2.1970                 2.0318
 Frc consts  --      1.9862                 1.3519                 1.2699
 IR Inten    --      3.7803                32.0195                74.5851

                     28                     29                     30
                      A                      A                      A
 Frequencies --   1035.5746              1082.5324              1160.7652
 Red. masses --      1.5699                 2.1520                 1.6491
 Frc consts  --      0.9920                 1.4859                 1.3091
 IR Inten    --     25.7599                 3.2523                14.9277

                     31                     32                     33
                      A                      A                      A
 Frequencies --   1177.0236              1217.0128              1231.8477
 Red. masses --      1.9117                 1.7307                 4.2374
 Frc consts  --      1.5604                 1.5103                 3.7885
 IR Inten    --      1.9716                 4.7828                35.6970

                     34                     35                     36
                      A                      A                      A
 Frequencies --   1284.2464              1307.1720              1333.7438
 Red. masses --      1.4033                 2.4536                 1.2540
 Frc consts  --      1.3636                 2.4701                 1.3143
 IR Inten    --     49.5266                11.8783                 4.9009

                     37                     38                     39
                      A                      A                      A
 Frequencies --   1367.9881              1382.0711              1407.1903
 Red. masses --      1.2151                 1.3050                 1.7729
 Frc consts  --      1.3397                 1.4687                 2.0684
 IR Inten    --     38.4713                23.8904                15.9584

                     40                     41                     42
                      A                      A                      A
 Frequencies --   1440.0495              1475.7286              1494.8519
 Red. masses --      3.0799                 1.2138                 2.5374
 Frc consts  --      3.7631                 1.5575                 3.3407
 IR Inten    --     27.7860                23.4613               179.9177

                     43                     44                     45
                      A                      A                      A
 Frequencies --   1511.5457              1595.5748              1644.3307
 Red. masses --      1.1449                 4.9704                 5.5699
 Frc consts  --      1.5412                 7.4555                 8.8731
 IR Inten    --     45.3398                 7.6321               133.0939

                     46                     47                     48
                      A                      A                      A
 Frequencies --   1731.7658              1736.7025              3063.1797
 Red. masses --      1.5653                 1.9493                 1.0679
 Frc consts  --      2.7658                 3.4640                 5.9036
 IR Inten    --     14.9076                20.1764                30.7520

                     49                     50                     51
                      A                      A                      A
 Frequencies --   3138.6495              3154.7414              3163.6787
 Red. masses --      1.0924                 1.0738                 1.0795
 Frc consts  --      6.3405                 6.2966                 6.3658
 IR Inten    --      1.4239                25.6705                 4.0133

                     52                     53                     54
                      A                      A                      A
 Frequencies --   3197.5445              3212.3493              3230.9373
 Red. masses --      1.0874                 1.0937                 1.0947
 Frc consts  --      6.5506                 6.6496                 6.7331
 IR Inten    --      2.9652                25.4010                 9.0094

                     55                     56                     57
                      A                      A                      A
 Frequencies --   3240.4716              3414.0461              3511.9087
 Red. masses --      1.1163                 1.0543                 1.0866
 Frc consts  --      6.9066                 7.2399                 7.8963
 IR Inten    --     15.3801                 3.5064                 2.1308

 - Thermochemistry -
 -------------------
 Temperature   298.150 Kelvin.  Pressure   1.00000 Atm.
 Atom     1 has atomic number  6 and mass  12.00000

 Molecular mass:   150.09055 amu.
 Principal axes and moments of inertia in atomic units:
                           1         2         3
     Eigenvalues --   779.333222555.559092972.56355
           X            0.99994  -0.00894  -0.00555
           Y            0.00894   0.99996   0.00028
           Z            0.00555  -0.00033   0.99998
 This molecule is an asymmetric top.
 Rotational symmetry number  1.
 Warning -- assumption of classical behavior for rotation
           may cause significant error
 Rotational temperatures (Kelvin)      0.11114     0.03389     0.02914
 Rotational constants (GHZ):           2.31575     0.70620     0.60713
 Zero-point vibrational energy     452107.3 (Joules/Mol)
                                  108.05624 (Kcal/Mol)
 Warning -- explicit consideration of  14 degrees of freedom as
           vibrations may cause significant error
 Vibrational temperatures:     58.83    82.50   122.79   203.71   261.60
          (Kelvin)            306.29   360.92   501.50   527.79   571.59
                              647.37   725.56   785.21   811.78   926.78
                              995.76  1086.83  1147.52  1170.57  1311.40
                             1332.41  1359.55  1374.89  1423.85  1454.95
                             1470.38  1481.89  1489.96  1557.52  1670.08
                             1693.47  1751.01  1772.35  1847.74  1880.73
                             1918.96  1968.23  1988.49  2024.63  2071.91
                             2123.24  2150.76  2174.78  2295.68  2365.83
                             2491.62  2498.73  4407.23  4515.82  4538.97
                             4551.83  4600.55  4621.85  4648.60  4662.32
                             4912.05  5052.85

 Zero-point correction=                           0.172199 (Hartree/Particle)
 Thermal correction to Energy=                    0.182661
 Thermal correction to Enthalpy=                  0.183606
 Thermal correction to Gibbs Free Energy=         0.135180
 Sum of electronic and zero-point Energies=           -491.532265
 Sum of electronic and thermal Energies=              -491.521802
 Sum of electronic and thermal Enthalpies=            -491.520858
 Sum of electronic and thermal Free Energies=         -491.569283

                     E (Thermal)             CV                S
                      KCal/Mol        Cal/Mol-Kelvin    Cal/Mol-Kelvin
 Total                  114.622             38.475            101.920
 Electronic               0.000              0.000              0.000
 Translational            0.889              2.981             40.928
 Rotational               0.889              2.981             30.161
 Vibrational            112.844             32.514             30.831
 Vibration     1          0.594              1.981              5.216
 Vibration     2          0.596              1.975              4.547
 Vibration     3          0.601              1.959              3.764
 Vibration     4          0.615              1.912              2.782
 Vibration     5          0.630              1.864              2.310
 Vibration     6          0.644              1.821              2.019
 Vibration     7          0.663              1.761              1.725
 Vibration     8          0.726              1.578              1.173
 Vibration     9          0.740              1.540              1.093
 Vibration    10          0.764              1.476              0.973
 Vibration    11          0.809              1.361              0.796
 Vibration    12          0.860              1.241              0.647
 Vibration    13          0.901              1.149              0.553
 Vibration    14          0.920              1.109              0.515

                           ! Non-Optimized Parameters !

 1\1\GINC-NODE124\Freq\RB3LYP\6-31G(d)\C7H10N4\VSC10255\08-Dec-2020\0\\
 #N Geom=AllCheck Guess=TCheck SCRF=Check GenChk RB3LYP/6-31G(d) Freq\\
 CID_70435613_JID_1949_neutraal\\0,1\C,1.0215656421,-0.0680308874,-0.01
 42625943\C,-0.1099826732,-0.2085863222,0.6741156996\C,-1.4242953365,-0
 .6111456451,0.0548023561\N,-1.8879385178,-1.9217120374,0.5095649729\C,
 -2.3783176883,-2.1209444616,1.7854269644\N,-2.3945952994,-3.4022044231
 ,2.2071467855\N,-2.8978676274,-3.7128535105,3.4008988573\C,-3.38084088
 86,-2.7562853152,4.1879306203\C,-3.3824348374,-1.4019239643,3.82064742

 Normal termination of Gaussian 16 at Tue Dec  8 20:47:05 2020.

 ----------------------------------------------------------------------
 # B3LYP/6-311++G(d,p) empiricaldispersion=gd3bj scf=xqc pop=npa geom=c
 heck
 ----------------------------------------------------------------------

 --------------------------------------
 CID_70435613_JID_1949_Energie_neutraal
 --------------------------------------
 Structure from the checkpoint file:  "JID_1949.chk"
 Charge =  0 Multiplicity = 1

 SCF Done:  E(RB3LYP) =  -491.844021762     A.U. after   15 cycles
 Normal termination of Gaussian 16 at Tue Dec  8 20:49:02 2020.

 ----------------------------------------------------------------------
 # B3LYP/6-311++G(d,p) empiricaldispersion=gd3bj scf=xqc pop=npa geom=c
 heck
 ----------------------------------------------------------------------

 ------------------------------------
 CID_70435613_JID_1949_Energie_kation
 ------------------------------------
 Structure from the checkpoint file:  "JID_1949.chk"
 Charge =  1 Multiplicity = 2

 SCF Done:  E(UB3LYP) =  -491.545986532     A.U. after   25 cycles
 Normal termination of Gaussian 16 at Tue Dec  8 20:53:45 2020.
 Gaussian 16:  ES64L-G16RevA.03 25-Dec-2016

 -----------------------------------
 CID_70435613_JID_1949_Energie_anion
 -----------------------------------
 Structure from the checkpoint file:  "JID_1949.chk"
 Charge = -1 Multiplicity = 2

                         Standard orientation:
 ---------------------------------------------------------------------
 Center     Atomic      Atomic             Coordinates (Angstroms)
 Number     Number       Type             X           Y           Z
 ---------------------------------------------------------------------
      1          6           0       -3.575204   -0.682729    0.906615
      2          6           0       -2.358608   -0.909017    0.413960
      3          6           0       -1.840013   -0.288717   -0.858560
      4          7           0       -0.733711    0.639703   -0.627280
      5          6           0        0.527782    0.200092   -0.276042
      6          7           0        1.329751    1.127768    0.286098
      7          7           0        2.585228    0.824883    0.613007
      8          6           0        3.052213   -0.400342    0.392882
      9          6           0        2.270470   -1.418544   -0.173982
     10          6           0        0.971715   -1.123444   -0.517864
     11          7           0       -1.165274    1.909441   -0.165219
     12          1           0       -4.283603   -0.037411    0.391813
     13          1           0       -3.910762   -1.130776    1.837953
     14          1           0       -1.661338   -1.547289    0.957065
     15          1           0       -1.509115   -1.056478   -1.567568
     16          1           0       -2.625225    0.291213   -1.346547
     17          1           0        4.083710   -0.568972    0.688081
     18          1           0        2.680806   -2.411781   -0.329948
     19          1           0        0.321491   -1.873526   -0.951558
     20          1           0       -0.963122    1.965956    0.837076
     21          1           0       -0.534931    2.592704   -0.584667
 ---------------------------------------------------------------------

 SCF Done:  E(UB3LYP) =  -491.839322770     A.U. after   33 cycles
 SCF Done:  E(UB3LYP) =  -491.839322770     a.u. after    1 cycles

 The electronic state is 2-A.
 Alpha  occ. eigenvalues --  -14.22770 -14.20600 -14.16698 -14.16487 -10.09845
 Alpha  occ. eigenvalues --  -10.08966 -10.06822 -10.06130 -10.04924 -10.03114
 Alpha  occ. eigenvalues --  -10.02686  -0.88301  -0.84035  -0.70915  -0.68215
 Alpha  occ. eigenvalues --   -0.66025  -0.63544  -0.55993  -0.50404  -0.48637
 Alpha  occ. eigenvalues --   -0.45087  -0.41052  -0.38458  -0.37681  -0.36060
 Alpha  occ. eigenvalues --   -0.34874  -0.32456  -0.31543  -0.28415  -0.27608
 Alpha  occ. eigenvalues --   -0.26946  -0.25714  -0.25156  -0.18504  -0.16777
 Alpha  occ. eigenvalues --   -0.16314  -0.15531  -0.15296  -0.08612  -0.07650
 Alpha  occ. eigenvalues --    0.05422
 Alpha virt. eigenvalues --    0.07466   0.08676   0.09098   0.09805   0.09982
 Alpha virt. eigenvalues --    0.10843   0.11650   0.12404   0.12636   0.13242
 Alpha virt. eigenvalues --    0.14243   0.15153   0.16236   0.17277   0.17534

  Beta  occ. eigenvalues --  -14.22786 -14.20591 -14.16217 -14.16158 -10.09915
  Beta  occ. eigenvalues --  -10.08950 -10.06813 -10.06106 -10.05017 -10.02881
  Beta  occ. eigenvalues --  -10.02415  -0.88183  -0.83451  -0.70843  -0.68001
  Beta  occ. eigenvalues --   -0.65521  -0.63279  -0.55879  -0.49698  -0.48555
  Beta  occ. eigenvalues --   -0.45003  -0.40922  -0.38414  -0.37580  -0.35898
  Beta  occ. eigenvalues --   -0.34718  -0.32416  -0.31446  -0.28255  -0.26906
  Beta  occ. eigenvalues --   -0.26372  -0.25517  -0.25045  -0.17951  -0.16501
  Beta  occ. eigenvalues --   -0.16079  -0.15221  -0.13447  -0.07865  -0.07087
  Beta virt. eigenvalues --    0.07782   0.08921   0.09368   0.09842   0.10281
  Beta virt. eigenvalues --    0.10857   0.11500   0.11787   0.12456   0.12777
  Beta virt. eigenvalues --    0.13447   0.14307   0.15309   0.16307   0.17274

 Mulliken charges and spin densities:
               1          2
     1  C    0.040627  -0.670864
     2  C   -0.730598   1.105494
     3  C    0.966243  -1.464178
     4  N    0.186349   0.122126
     5  C   -0.102851  -0.678789
     6  N   -0.194572   0.163912
     7  N   -0.256382   0.214328
     8  C   -0.359261  -0.061633
     9  C   -0.009345  -0.192191
    10  C    0.041392   0.733910
    11  N   -0.455454   0.047358
    12  H   -0.050291   0.162530
    13  H   -0.251686   0.361737
    14  H    0.101335   0.067552
    15  H   -0.346052   0.502113
    16  H    0.028926   0.139304
    17  H    0.109603   0.011983
    18  H   -0.043310   0.152966
    19  H   -0.144280   0.268241
    20  H    0.210164   0.013455
    21  H    0.259444   0.000645
 Sum of Mulliken charges =  -1.00000   1.00000

 Dipole moment (field-independent basis, Debye):
    X=             -1.0549    Y=              0.0958    Z=             -0.0780  Tot=              1.0621
 Quadrupole moment (field-independent basis, Debye-Ang):
   XX=           -112.6794   YY=            -87.7545   ZZ=            -86.1504
   XY=             -8.5253   XZ=             -2.2727   YZ=             -3.5361

 Summary of Natural Population Analysis:

                                       Natural Population
                Natural  -----------------------------------------------
    Atom  No    Charge         Core      Valence    Rydberg      Total
 -----------------------------------------------------------------------
      C    1   -0.19083      0.99956     2.18430    0.00697     3.19083
      C    2   -0.08973      0.99956     2.07998    0.01020     3.08973
      C    3   -0.10196      0.99959     2.08794    0.01442     3.10196
      N    4   -0.17271      0.99963     2.65978    0.01330     3.67271
      C    5    0.16714      0.99952     1.81614    0.01721     2.83286
      N    6   -0.13455      0.99969     2.62020    0.01466     3.63455
      N    7   -0.06795      0.99973     2.54969    0.01853     3.56795
      C    8   -0.03722      0.99961     2.02242    0.01520     3.03722
      C    9   -0.06792      0.99956     2.05759    0.01077     3.06792
      C   10   -0.08963      0.99952     2.08135    0.00876     3.08963
      N   11   -0.31950      0.99977     2.80993    0.00980     3.81950
      H   12    0.08927      0.00000     0.40935    0.00138     0.41073
      H   13    0.09127      0.00000     0.40750    0.00122     0.40873
      H   14    0.09627      0.00000     0.40242    0.00131     0.40373
      H   15    0.10409      0.00000     0.39393    0.00198     0.39591
      H   16    0.10243      0.00000     0.39616    0.00141     0.39757
      H   17    0.08392      0.00000     0.41466    0.00142     0.41608
      H   18    0.09259      0.00000     0.40649    0.00092     0.40741
      H   19    0.09568      0.00000     0.40235    0.00197     0.40432
      H   20    0.17174      0.00000     0.32566    0.00260     0.32826
      H   21    0.17761      0.00000     0.32002    0.00237     0.32239
 =======================================================================
   * Total *    0.00000     10.99574    28.84786    0.15639    40.00000

 Normal termination of Gaussian 16 at Tue Dec  8 21:01:12 2020.
