 Gaussian 16, Revision A.03,

 -----------------------------------------------------------
 # opt freq B3LYP/6-31G(d) empiricaldispersion=gd3bj scf=xqc
 -----------------------------------------------------------

 -------------------------------
 CID_102766075_JID_7652_neutraal
 -------------------------------
 Symbolic Z-matrix:
 Charge =  0 Multiplicity = 1

 SCF Done:  E(RB3LYP) =  -1160.99933230     A.U. after   15 cycles
 SCF Done:  E(RB3LYP) =  -1161.00817745     A.U. after   13 cycles
 SCF Done:  E(RB3LYP) =  -1161.00873157     A.U. after   13 cycles
 SCF Done:  E(RB3LYP) =  -1161.00915169     A.U. after   13 cycles
 SCF Done:  E(RB3LYP) =  -1161.00971945     A.U. after   12 cycles
 SCF Done:  E(RB3LYP) =  -1161.00935130     A.U. after   12 cycles
 SCF Done:  E(RB3LYP) =  -1161.00985103     A.U. after   12 cycles
 SCF Done:  E(RB3LYP) =  -1161.00991440     A.U. after   11 cycles
 SCF Done:  E(RB3LYP) =  -1161.00999038     A.U. after   12 cycles
 SCF Done:  E(RB3LYP) =  -1161.01003165     A.U. after   11 cycles
 SCF Done:  E(RB3LYP) =  -1161.01022170     A.U. after    9 cycles
 SCF Done:  E(RB3LYP) =  -1161.01022200     A.U. after    9 cycles
 SCF Done:  E(RB3LYP) =  -1161.01022213     A.U. after    9 cycles
 SCF Done:  E(RB3LYP) =  -1161.01022216     A.U. after    6 cycles
 SCF Done:  E(RB3LYP) =  -1161.01022218     A.U. after    6 cycles
 Optimization completed.
    -- Stationary point found.
 Normal termination of Gaussian 16 at Mon Dec 14 13:40:54 2020.

 --------------------------------------------------------------------
 #N Geom=AllCheck Guess=TCheck SCRF=Check GenChk RB3LYP/6-31G(d) Freq
 --------------------------------------------------------------------

 Structure from the checkpoint file:  "JID_7652.chk"
 -------------------------------
 CID_102766075_JID_7652_neutraal
 -------------------------------
 Charge =  0 Multiplicity = 1

 SCF Done:  E(RB3LYP) =  -1161.01022218     A.U. after    1 cycles

  Exact polarizability: 166.341   0.564 150.807   3.526   3.322 114.008
 Approx polarizability: 246.265  -4.987 254.887  15.749   0.980 170.328

                      1                      2                      3
                      A                      A                      A
 Frequencies --     27.5695                30.2122                48.8268
 Red. masses --      3.5550                 4.7903                 1.2083
 Frc consts  --      0.0016                 0.0026                 0.0017
 IR Inten    --      0.2518                 1.7178                 0.2504

                      4                      5                      6
                      A                      A                      A
 Frequencies --     69.2642                72.1049                82.4185
 Red. masses --      3.1003                 6.3667                 2.0179
 Frc consts  --      0.0088                 0.0195                 0.0081
 IR Inten    --      1.3988                 2.1303                 0.3071

                      7                      8                      9
                      A                      A                      A
 Frequencies --     99.5951               129.3590               145.7711
 Red. masses --      4.4670                 5.3136                 2.2425
 Frc consts  --      0.0261                 0.0524                 0.0281
 IR Inten    --      1.1769                 1.5635                 3.1057

                     10                     11                     12
                      A                      A                      A
 Frequencies --    154.2058               174.5555               201.9086
 Red. masses --      2.5535                 5.0348                 3.9146
 Frc consts  --      0.0358                 0.0904                 0.0940
 IR Inten    --      5.2912                 3.7649                 1.2165

                     13                     14                     15
                      A                      A                      A
 Frequencies --    208.1402               249.5648               310.9161
 Red. masses --      5.4319                 4.1004                 4.8464
 Frc consts  --      0.1386                 0.1505                 0.2760
 IR Inten    --      1.2063                 1.6796                 4.6028

                     16                     17                     18
                      A                      A                      A
 Frequencies --    342.6153               364.1353               392.1018
 Red. masses --      4.0736                 4.2848                 3.6098
 Frc consts  --      0.2817                 0.3347                 0.3270
 IR Inten    --      0.4518                 2.5683                 6.0273

                     19                     20                     21
                      A                      A                      A
 Frequencies --    427.4436               442.9641               492.4740
 Red. masses --      4.7901                 4.5057                 3.1638
 Frc consts  --      0.5156                 0.5209                 0.4521
 IR Inten    --      0.8075                 4.8936                 6.1458

                     22                     23                     24
                      A                      A                      A
 Frequencies --    539.1729               570.4643               572.5694
 Red. masses --      4.6542                 5.7653                 3.1376
 Frc consts  --      0.7972                 1.1054                 0.6061
 IR Inten    --     13.8306                 2.3815                44.4696

                     25                     26                     27
                      A                      A                      A
 Frequencies --    593.9476               621.2920               650.6775
 Red. masses --      3.2328                 3.1963                 2.6566
 Frc consts  --      0.6719                 0.7269                 0.6627
 IR Inten    --     15.0506                 5.4665                36.7592

                     28                     29                     30
                      A                      A                      A
 Frequencies --    671.0491               697.7866               701.9236
 Red. masses --      3.2308                 6.7099                 3.1341
 Frc consts  --      0.8572                 1.9249                 0.9098
 IR Inten    --     20.4190                16.4675                65.5148

                     31                     32                     33
                      A                      A                      A
 Frequencies --    762.2531               787.6233               811.3925
 Red. masses --      3.3655                 2.5792                 1.2642
 Frc consts  --      1.1521                 0.9427                 0.4904
 IR Inten    --     14.4625                 6.6462                 6.7907

                     34                     35                     36
                      A                      A                      A
 Frequencies --    813.8717               848.3731               856.3909
 Red. masses --      1.3476                 1.4395                 4.5900
 Frc consts  --      0.5259                 0.6104                 1.9834
 IR Inten    --     17.1080                 9.1875                12.2182

                     37                     38                     39
                      A                      A                      A
 Frequencies --    903.3730               935.2209               962.0867
 Red. masses --      3.4918                 4.4879                 2.8570
 Frc consts  --      1.6789                 2.3127                 1.5581
 IR Inten    --     18.6761                 4.0568                18.0375

                     40                     41                     42
                      A                      A                      A
 Frequencies --    977.3196              1013.4685              1044.4669
 Red. masses --      3.4798                 1.9154                 2.0132
 Frc consts  --      1.9583                 1.1591                 1.2940
 IR Inten    --      6.0150                16.6643                13.1174

                     43                     44                     45
                      A                      A                      A
 Frequencies --   1067.5414              1074.0088              1077.8104
 Red. masses --      1.6848                 1.5082                 1.4185
 Frc consts  --      1.1313                 1.0250                 0.9709
 IR Inten    --      9.0964                 4.6287                12.1069

                     46                     47                     48
                      A                      A                      A
 Frequencies --   1090.6574              1107.0998              1130.7558
 Red. masses --      1.8029                 1.3897                 2.5210
 Frc consts  --      1.2636                 1.0035                 1.8991
 IR Inten    --      8.4834                 0.4473                17.7550

                     49                     50                     51
                      A                      A                      A
 Frequencies --   1146.6055              1199.8467              1216.9431
 Red. masses --      1.2305                 2.3129                 1.5149
 Frc consts  --      0.9531                 1.9618                 1.3218
 IR Inten    --      1.3321               195.6265                 9.8375

                     52                     53                     54
                      A                      A                      A
 Frequencies --   1222.1584              1227.1244              1283.4606
 Red. masses --      2.4025                 2.6851                 1.5428
 Frc consts  --      2.1143                 2.3823                 1.4973
 IR Inten    --     19.7875                 5.6178                 8.6469

                     55                     56                     57
                      A                      A                      A
 Frequencies --   1285.7571              1318.1175              1356.6269
 Red. masses --      1.6731                 1.9049                 1.9899
 Frc consts  --      1.6296                 1.9500                 2.1578
 IR Inten    --     11.5048                70.5144                41.3675

                     58                     59                     60
                      A                      A                      A
 Frequencies --   1361.5230              1396.5193              1413.1398
 Red. masses --      2.7069                 2.6962                 1.5826
 Frc consts  --      2.9565                 3.0981                 1.8620
 IR Inten    --     25.8877                52.5542                37.9598

                     61                     62                     63
                      A                      A                      A
 Frequencies --   1420.5178              1442.9295              1455.5782
 Red. masses --      1.3006                 1.3058                 2.5703
 Frc consts  --      1.5463                 1.6019                 3.2085
 IR Inten    --      6.1527                 4.8683               142.6420

                     64                     65                     66
                      A                      A                      A
 Frequencies --   1481.8408              1493.4229              1497.8906
 Red. masses --      1.0910                 4.4236                 1.1056
 Frc consts  --      1.4115                 5.8128                 1.4615
 IR Inten    --      1.5608                43.9127                 7.6714

                     67                     68                     69
                      A                      A                      A
 Frequencies --   1507.4620              1513.7609              1517.0138
 Red. masses --      1.0667                 1.0870                 1.2106
 Frc consts  --      1.4281                 1.4675                 1.6414
 IR Inten    --      3.5820                12.3480                20.2016

                     70                     71                     72
                      A                      A                      A
 Frequencies --   1526.0303              1594.1229              1744.8989
 Red. masses --      1.3576                 4.7188                 9.8612
 Frc consts  --      1.8627                 7.0652                17.6897
 IR Inten    --     13.0100                19.0271               227.3113

                     73                     74                     75
                      A                      A                      A
 Frequencies --   1838.0301              3054.7536              3074.9732
 Red. masses --     10.4056                 1.0398                 1.0371
 Frc consts  --     20.7121                 5.7169                 5.7775
 IR Inten    --    263.2751                21.2372                 4.8925

                     76                     77                     78
                      A                      A                      A
 Frequencies --   3113.5242              3118.6195              3128.6500
 Red. masses --      1.0940                 1.0844                 1.0874
 Frc consts  --      6.2483                 6.2141                 6.2715
 IR Inten    --     14.4349                 1.8835                22.1965

                     79                     80                     81
                      A                      A                      A
 Frequencies --   3140.2294              3140.9393              3157.0049
 Red. masses --      1.0998                 1.1010                 1.0526
 Frc consts  --      6.3899                 6.3996                 6.1812
 IR Inten    --      6.6433                22.1701                 8.4524

                     82                     83                     84
                      A                      A                      A
 Frequencies --   3163.1674              3177.4813              3231.9877
 Red. masses --      1.0580                 1.1032                 1.0933
 Frc consts  --      6.2373                 6.5623                 6.7286
 IR Inten    --      8.8134                 7.4649                 4.5032

                     85                     86                     87
                      A                      A                      A
 Frequencies --   3240.1740              3253.4612              3685.9838
 Red. masses --      1.1203                 1.1170                 1.0639
 Frc consts  --      6.9300                 6.9662                 8.5163
 IR Inten    --      1.1200                10.7148                62.5960

 - Thermochemistry -
 -------------------
 Temperature   298.150 Kelvin.  Pressure   1.00000 Atm.
 Atom     1 has atomic number  6 and mass  12.00000

 Molecular mass:   254.07251 amu.
 Principal axes and moments of inertia in atomic units:
                           1         2         3
     Eigenvalues --  2923.407745167.773105545.52731
           X            0.99968  -0.00236  -0.02506
           Y            0.00372   0.99851   0.05441
           Z            0.02489  -0.05449   0.99820
 This molecule is an asymmetric top.
 Rotational symmetry number  1.
 Warning -- assumption of classical behavior for rotation
           may cause significant error
 Rotational temperatures (Kelvin)      0.02963     0.01676     0.01562
 Rotational constants (GHZ):           0.61734     0.34923     0.32544
 Zero-point vibrational energy     642939.0 (Joules/Mol)
                                  153.66612 (Kcal/Mol)
 Warning -- explicit consideration of  25 degrees of freedom as
           vibrations may cause significant error
 Vibrational temperatures:     39.67    43.47    70.25    99.66   103.74
          (Kelvin)            118.58   143.30   186.12   209.73   221.87
                              251.15   290.50   299.47   359.07   447.34
                              492.95   523.91   564.15   615.00   637.33
                              708.56   775.75   820.77   823.80   854.56
                              893.90   936.18   965.49  1003.96  1009.91
                             1096.71  1133.21  1167.41  1170.98  1220.62
                             1232.16  1299.75  1345.57  1384.23  1406.14
                             1458.16  1502.75  1535.95  1545.26  1550.73
                             1569.21  1592.87  1626.91  1649.71  1726.31
                             1750.91  1758.41  1765.56  1846.61  1849.92
                             1896.48  1951.88  1958.93  2009.28  2033.19
                             2043.81  2076.05  2094.25  2132.04  2148.70
                             2155.13  2168.90  2177.96  2182.64  2195.62
                             2293.59  2510.52  2644.52  4395.11  4424.20
                             4479.67  4487.00  4501.43  4518.09  4519.11
                             4542.23  4551.09  4571.69  4650.11  4661.89
                             4681.00  5303.31

 Zero-point correction=                           0.244883 (Hartree/Particle)
 Thermal correction to Energy=                    0.262195
 Thermal correction to Enthalpy=                  0.263139
 Thermal correction to Gibbs Free Energy=         0.197743
 Sum of electronic and zero-point Energies=          -1160.765340
 Sum of electronic and thermal Energies=             -1160.748027
 Sum of electronic and thermal Enthalpies=           -1160.747083
 Sum of electronic and thermal Free Energies=        -1160.812479

                     E (Thermal)             CV                S
                      KCal/Mol        Cal/Mol-Kelvin    Cal/Mol-Kelvin
 Total                  164.530             62.769            137.638
 Electronic               0.000              0.000              0.000
 Translational            0.889              2.981             42.497
 Rotational               0.889              2.981             32.793
 Vibrational            162.752             56.807             62.348
 Vibration     1          0.593              1.984              5.997
 Vibration     2          0.594              1.984              5.815
 Vibration     3          0.595              1.978              4.864
 Vibration     4          0.598              1.969              4.174
 Vibration     5          0.598              1.967              4.095
 Vibration     6          0.600              1.961              3.832
 Vibration     7          0.604              1.949              3.462
 Vibration     8          0.612              1.924              2.956
 Vibration     9          0.617              1.907              2.727
 Vibration    10          0.620              1.898              2.620
 Vibration    11          0.627              1.874              2.386
 Vibration    12          0.639              1.837              2.116
 Vibration    13          0.641              1.828              2.060
 Vibration    14          0.662              1.763              1.734
 Vibration    15          0.700              1.653              1.357
 Vibration    16          0.722              1.590              1.200
 Vibration    17          0.738              1.546              1.104
 Vibration    18          0.760              1.487              0.992
 Vibration    19          0.789              1.411              0.867
 Vibration    20          0.803              1.376              0.817
 Vibration    21          0.848              1.267              0.677
 Vibration    22          0.894              1.163              0.567
 Vibration    23          0.927              1.095              0.503
 Vibration    24          0.929              1.091              0.499
 Vibration    25          0.952              1.045              0.460

 Optimization completed.
    -- Stationary point found.
 Normal termination of Gaussian 16 at Mon Dec 14 13:53:27 2020.

 ----------------------------------------------------------------------
 # B3LYP/6-311++G(d,p) empiricaldispersion=gd3bj scf=xqc pop=npa geom=c
 heck
 ----------------------------------------------------------------------

 ---------------------------------------
 CID_102766075_JID_7652_Energie_neutraal
 ---------------------------------------
 Structure from the checkpoint file:  "JID_7652.chk"
 Charge =  0 Multiplicity = 1

 SCF Done:  E(RB3LYP) =  -1161.25858362     A.U. after   16 cycles
 Normal termination of Gaussian 16 at Mon Dec 14 13:59:26 2020.

 ----------------------------------------------------------------------
 # B3LYP/6-311++G(d,p) empiricaldispersion=gd3bj scf=xqc pop=npa geom=c
 heck
 ----------------------------------------------------------------------

 -------------------------------------
 CID_102766075_JID_7652_Energie_kation
 -------------------------------------
 Structure from the checkpoint file:  "JID_7652.chk"
 Charge =  1 Multiplicity = 2

 SCF Done:  E(UB3LYP) =  -1160.95359546     A.U. after   29 cycles
 Normal termination of Gaussian 16 at Mon Dec 14 14:15:43 2020.
 Gaussian 16:  ES64L-G16RevA.03 25-Dec-2016

 ----------------------------------------------------------------------
 # B3LYP/6-311++G(d,p) empiricaldispersion=gd3bj scf=xqc pop=npa geom=c
 heck
 ----------------------------------------------------------------------

 ------------------------------------
 CID_102766075_JID_7652_Energie_anion
 ------------------------------------
 Structure from the checkpoint file:  "JID_7652.chk"
 Charge = -1 Multiplicity = 2

                         Standard orientation:
 ---------------------------------------------------------------------
 Center     Atomic      Atomic             Coordinates (Angstroms)
 Number     Number       Type             X           Y           Z
 ---------------------------------------------------------------------
      1          6           0       -1.930077    2.694483    0.073060
      2          6           0       -2.144711    1.238523   -0.228659
      3          6           0       -1.265150    0.202101   -0.012814
      4         16           0       -1.993321   -1.302891   -0.520259
      5          6           0       -3.413401   -0.409056   -0.968385
      6          7           0       -3.363442    0.877604   -0.772673
      7          6           0        0.116085    0.320840    0.562153
      8          6           0        0.403335   -0.437889    1.866531
      9          8           0        1.513374   -0.522894    2.342483
     10          8           0       -0.707022   -0.882788    2.478975
     11          7           0        1.202186    0.049532   -0.385522
     12          6           0        1.998150    1.144361   -0.871181
     13          6           0        2.593813    2.093626    0.141690
     14          6           0        3.486509    1.156204   -0.621609
     15          6           0        1.396233   -1.263915   -0.731173
     16          8           0        0.725865   -2.146717   -0.198148
     17          6           0        2.436653   -1.580948   -1.784376
     18          1           0       -2.300626    3.299281   -0.760153
     19          1           0       -2.491341    2.994761    0.966310
     20          1           0       -0.877889    2.944116    0.234314
     21          1           0       -4.273296   -0.912904   -1.396479
     22          1           0        0.235851    1.368553    0.845321
     23          1           0       -0.407126   -1.312426    3.302163
     24          1           0        1.652198    1.586407   -1.805465
     25          1           0        2.600697    3.152299   -0.098794
     26          1           0        2.436904    1.854526    1.189190
     27          1           0        3.899155    0.324144   -0.061423
     28          1           0        4.127909    1.546904   -1.405824
     29          1           0        2.430710   -0.859898   -2.606104
     30          1           0        3.439802   -1.578412   -1.345954
     31          1           0        2.226612   -2.581839   -2.163487
 ---------------------------------------------------------------------

 SCF Done:  E(UB3LYP) =  -1161.24867993     A.U. after   33 cycles
 SCF Done:  E(UB3LYP) =  -1161.24867993     a.u. after    1 cycles

 The electronic state is 2-A.
 Alpha  occ. eigenvalues --  -88.77483 -19.08171 -19.02283 -19.00068 -14.25715
 Alpha  occ. eigenvalues --  -14.20884 -10.21844 -10.18417 -10.14641 -10.12404
 Alpha  occ. eigenvalues --  -10.12353 -10.10888 -10.10417 -10.08454 -10.08334
 Alpha  occ. eigenvalues --  -10.08310 -10.07472  -7.86085  -5.82358  -5.81990
 Alpha  occ. eigenvalues --   -5.81708  -1.02331  -0.95552  -0.93186  -0.86346
 Alpha  occ. eigenvalues --   -0.85667  -0.76187  -0.71389  -0.68271  -0.66187
 Alpha  occ. eigenvalues --   -0.63059  -0.58177  -0.55251  -0.53667  -0.51411
 Alpha  occ. eigenvalues --   -0.49478  -0.45854  -0.44285  -0.43098  -0.41384
 Alpha  occ. eigenvalues --   -0.40456  -0.39626  -0.38979  -0.37126  -0.35614
 Alpha  occ. eigenvalues --   -0.34538  -0.33820  -0.33674  -0.33011  -0.31331
 Alpha  occ. eigenvalues --   -0.31118  -0.30704  -0.29786  -0.28837  -0.28603
 Alpha  occ. eigenvalues --   -0.27796  -0.27251  -0.25284  -0.23420  -0.23112
 Alpha  occ. eigenvalues --   -0.21716  -0.20393  -0.18129  -0.17326  -0.16681
 Alpha  occ. eigenvalues --   -0.16231  -0.13972   0.04241
 Alpha virt. eigenvalues --    0.06021   0.06366   0.07007   0.07820   0.08347
 Alpha virt. eigenvalues --    0.08461   0.09003   0.09597   0.09756   0.10578
 Alpha virt. eigenvalues --    0.10935   0.11768   0.11947   0.12481   0.12810

  Beta  occ. eigenvalues --  -88.77468 -19.08138 -19.02277 -19.00068 -14.25708
  Beta  occ. eigenvalues --  -14.20871 -10.21824 -10.18414 -10.14635 -10.12330
  Beta  occ. eigenvalues --  -10.12295 -10.10873 -10.10359 -10.08428 -10.08315
  Beta  occ. eigenvalues --  -10.08280 -10.07449  -7.86072  -5.82352  -5.81984
  Beta  occ. eigenvalues --   -5.81660  -1.02279  -0.95546  -0.93154  -0.86289
  Beta  occ. eigenvalues --   -0.85617  -0.76143  -0.71319  -0.68187  -0.66147
  Beta  occ. eigenvalues --   -0.63016  -0.58073  -0.55210  -0.53595  -0.51319
  Beta  occ. eigenvalues --   -0.49367  -0.45793  -0.44235  -0.43033  -0.41324
  Beta  occ. eigenvalues --   -0.40404  -0.39557  -0.38942  -0.37080  -0.35589
  Beta  occ. eigenvalues --   -0.34492  -0.33764  -0.33587  -0.32958  -0.31297
  Beta  occ. eigenvalues --   -0.31082  -0.30669  -0.29740  -0.28801  -0.28397
  Beta  occ. eigenvalues --   -0.27755  -0.27224  -0.25216  -0.23389  -0.23076
  Beta  occ. eigenvalues --   -0.21679  -0.20329  -0.18061  -0.17178  -0.16629
  Beta  occ. eigenvalues --   -0.16196  -0.13637
  Beta virt. eigenvalues --    0.06663   0.07019   0.07220   0.07689   0.07821
  Beta virt. eigenvalues --    0.08664   0.08829   0.09357   0.09813   0.10186
  Beta virt. eigenvalues --    0.10761   0.11210   0.11992   0.12090   0.12666

 Mulliken charges and spin densities:
               1          2
     1  C    0.611360  -1.446709
     2  C   -1.984350   1.370052
     3  C    1.758614  -1.052758
     4  S    0.050545  -0.328511
     5  C   -0.175388   0.320975
     6  N    0.008877   0.011132
     7  C    0.057181  -0.519872
     8  C   -0.410282   0.555484
     9  O   -0.222488   0.029323
    10  O   -0.119024   0.015412
    11  N    0.564554  -0.026631
    12  C   -1.881500   1.647108
    13  C    1.312245  -1.641515
    14  C    1.274386  -1.623447
    15  C    0.027436   0.049197
    16  O   -0.273840   0.010813
    17  C   -0.119311  -0.474266
    18  H    0.007305   0.155912
    19  H    0.013950   0.160288
    20  H   -0.168270   0.294594
    21  H    0.187992   0.039722
    22  H   -0.110013   0.294122
    23  H   -0.171689   0.462964
    24  H   -0.688907   0.961644
    25  H   -0.436076   0.609109
    26  H    0.162227   0.024273
    27  H    0.192952  -0.053640
    28  H   -0.389491   0.565005
    29  H   -0.159826   0.328844
    30  H   -0.025956   0.189127
    31  H    0.106787   0.072251
 Sum of Mulliken charges =  -1.00000   1.00000

 Dipole moment (field-independent basis, Debye):
    X=             -2.9392    Y=             -4.1674    Z=              1.5249  Tot=              5.3227
 Quadrupole moment (field-independent basis, Debye-Ang):
   XX=           -163.2262   YY=           -157.3355   ZZ=           -147.8986
   XY=             -6.8425   XZ=              8.3286   YZ=             13.7697

 Summary of Natural Population Analysis:

                                       Natural Population
                Natural  -----------------------------------------------
    Atom  No    Charge         Core      Valence    Rydberg      Total
 -----------------------------------------------------------------------
      C    1   -0.29495      0.99962     2.28934    0.00598     3.29495
      C    2    0.06966      0.99943     1.91612    0.01479     2.93034
      C    3   -0.11286      0.99939     2.10016    0.01331     3.11286
      S    4    0.22695      4.99942     2.75395    0.01968     7.77305
      C    5   -0.04254      0.99966     2.02606    0.01682     3.04254
      N    6   -0.24776      0.99967     2.73690    0.01119     3.74776
      C    7   -0.06465      0.99945     2.04860    0.01660     3.06465
      C    8    0.41813      0.99969     1.55533    0.02685     2.58187
      O    9   -0.31073      0.99986     3.30493    0.00594     4.31073
      O   10   -0.33466      0.99987     3.32850    0.00629     4.33466
      N   11   -0.25157      0.99961     2.73823    0.01372     3.75157
      C   12   -0.02088      0.99955     2.00723    0.01410     3.02088
      C   13   -0.19991      0.99961     2.19034    0.00996     3.19991
      C   14   -0.19378      0.99961     2.18424    0.00993     3.19378
      C   15    0.35584      0.99965     1.62321    0.02129     2.64416
      O   16   -0.32517      0.99988     3.31932    0.00597     4.32517
      C   17   -0.32768      0.99963     2.32307    0.00498     3.32768
      H   18    0.11027      0.00000     0.38840    0.00133     0.38973
      H   19    0.10473      0.00000     0.39432    0.00096     0.39527
      H   20    0.10211      0.00000     0.39672    0.00117     0.39789
      H   21    0.09384      0.00000     0.40513    0.00103     0.40616
      H   22    0.12784      0.00000     0.36962    0.00255     0.37216
      H   23    0.24171      0.00000     0.25224    0.00605     0.25829
      H   24    0.10609      0.00000     0.39038    0.00353     0.39391
      H   25    0.11008      0.00000     0.38755    0.00237     0.38992
      H   26    0.10990      0.00000     0.38874    0.00135     0.39010
      H   27    0.10547      0.00000     0.39338    0.00115     0.39453
      H   28    0.10907      0.00000     0.38848    0.00245     0.39093
      H   29    0.11176      0.00000     0.38710    0.00115     0.38824
      H   30    0.11234      0.00000     0.38661    0.00105     0.38766
      H   31    0.11135      0.00000     0.38786    0.00079     0.38865
 =======================================================================
   * Total *    0.00000     20.99362    45.76205    0.24433    67.00000

 Normal termination of Gaussian 16 at Mon Dec 14 14:33:31 2020.
