 Gaussian 16, Revision A.03,

 -----------------------------------------------------------
 # opt freq B3LYP/6-31G(d) empiricaldispersion=gd3bj scf=xqc
 -----------------------------------------------------------

 --------------------------------
 CID_115279129_JID_10542_neutraal
 --------------------------------
 Symbolic Z-matrix:
 Charge =  0 Multiplicity = 1

 SCF Done:  E(RB3LYP) =  -986.728599900     A.U. after   16 cycles
 SCF Done:  E(RB3LYP) =  -986.735102722     A.U. after   15 cycles
 SCF Done:  E(RB3LYP) =  -986.734147363     A.U. after   15 cycles
 SCF Done:  E(RB3LYP) =  -986.732439127     A.U. after   15 cycles
 SCF Done:  E(RB3LYP) =  -986.728311240     A.U. after   15 cycles
 SCF Done:  E(RB3LYP) =  -986.735468778     A.U. after   11 cycles
 SCF Done:  E(RB3LYP) =  -986.739207813     A.U. after   15 cycles
 SCF Done:  E(RB3LYP) =  -986.739408654     A.U. after   14 cycles
 SCF Done:  E(RB3LYP) =  -986.741779174     A.U. after   14 cycles
 SCF Done:  E(RB3LYP) =  -986.743770359     A.U. after   14 cycles
 SCF Done:  E(RB3LYP) =  -986.746727576     A.U. after   10 cycles
 SCF Done:  E(RB3LYP) =  -986.746730936     A.U. after   10 cycles
 SCF Done:  E(RB3LYP) =  -986.746731982     A.U. after    9 cycles
 SCF Done:  E(RB3LYP) =  -986.746732866     A.U. after    8 cycles
 SCF Done:  E(RB3LYP) =  -986.746732870     A.U. after    8 cycles
 Optimization completed.
    -- Stationary point found.
 Normal termination of Gaussian 16 at Sun Dec 13 17:00:23 2020.

 --------------------------------------------------------------------
 #N Geom=AllCheck Guess=TCheck SCRF=Check GenChk RB3LYP/6-31G(d) Freq
 --------------------------------------------------------------------

 Structure from the checkpoint file:  "JID_10542.chk"
 --------------------------------
 CID_115279129_JID_10542_neutraal
 --------------------------------
 Charge =  0 Multiplicity = 1

 SCF Done:  E(RB3LYP) =  -986.746732870     A.U. after    1 cycles

  Exact polarizability: 192.473 -34.467 169.391 -14.491 -20.339 147.867
 Approx polarizability: 290.294 -74.580 271.447 -39.239 -44.285 262.710

                      1                      2                      3
                      A                      A                      A
 Frequencies --     27.7885                35.4447                55.7100
 Red. masses --      6.1255                 4.7555                 7.1149
 Frc consts  --      0.0028                 0.0035                 0.0130
 IR Inten    --      0.6237                 0.7696                 0.0401

                      4                      5                      6
                      A                      A                      A
 Frequencies --     66.6113                87.0245                92.1509
 Red. masses --      4.0649                 4.8819                 5.3251
 Frc consts  --      0.0106                 0.0218                 0.0266
 IR Inten    --      0.8890                 1.5356                 3.8596

                      7                      8                      9
                      A                      A                      A
 Frequencies --    116.4025               142.0581               162.1655
 Red. masses --      4.4130                 6.6479                 3.3035
 Frc consts  --      0.0352                 0.0790                 0.0512
 IR Inten    --      1.0501                 2.0633                 5.1401

                     10                     11                     12
                      A                      A                      A
 Frequencies --    177.2263               185.5397               215.2028
 Red. masses --      4.1201                 2.2740                 1.8056
 Frc consts  --      0.0762                 0.0461                 0.0493
 IR Inten    --      2.3930                 0.9069                 0.8738

                     13                     14                     15
                      A                      A                      A
 Frequencies --    258.9547               285.8076               295.1943
 Red. masses --      1.8612                 3.8260                 3.5403
 Frc consts  --      0.0735                 0.1841                 0.1818
 IR Inten    --      0.8585                 6.6661                12.3686

                     16                     17                     18
                      A                      A                      A
 Frequencies --    312.4598               320.2384               360.0046
 Red. masses --      7.9579                 5.9940                 7.0155
 Frc consts  --      0.4578                 0.3622                 0.5357
 IR Inten    --      5.7032                 1.4675                 0.8651

                     19                     20                     21
                      A                      A                      A
 Frequencies --    394.0134               398.1339               417.4442
 Red. masses --      4.5071                 3.8939                 1.9146
 Frc consts  --      0.4123                 0.3637                 0.1966
 IR Inten    --      5.9524                 2.7563                 1.1916

                     22                     23                     24
                      A                      A                      A
 Frequencies --    472.9704               487.5102               500.8453
 Red. masses --      4.2899                 4.1739                 2.9823
 Frc consts  --      0.5654                 0.5845                 0.4408
 IR Inten    --      9.6525                10.5398                 2.6539

                     25                     26                     27
                      A                      A                      A
 Frequencies --    522.8145               539.1550               558.1422
 Red. masses --      4.0741                 5.2975                 1.4384
 Frc consts  --      0.6561                 0.9073                 0.2640
 IR Inten    --      7.5489                 6.0258               122.2564

                     28                     29                     30
                      A                      A                      A
 Frequencies --    571.8699               623.5951               664.1387
 Red. masses --      3.8649                 3.7898                 4.3475
 Frc consts  --      0.7447                 0.8683                 1.1298
 IR Inten    --     24.1535                 8.7923                12.3646

                     31                     32                     33
                      A                      A                      A
 Frequencies --    675.5693               718.1505               745.1778
 Red. masses --      2.3487                 3.4628                 4.2485
 Frc consts  --      0.6316                 1.0522                 1.3900
 IR Inten    --     28.2115                40.9703                17.8643

                     34                     35                     36
                      A                      A                      A
 Frequencies --    755.0367               784.9203               813.5008
 Red. masses --      6.8742                 3.0315                 5.3416
 Frc consts  --      2.3089                 1.1004                 2.0827
 IR Inten    --     24.6181                20.0580                 0.8423

                     37                     38                     39
                      A                      A                      A
 Frequencies --    828.3420               838.8336               849.8598
 Red. masses --      2.6445                 2.6126                 2.3642
 Frc consts  --      1.0691                 1.0831                 1.0061
 IR Inten    --      4.2416                29.5814                37.1067

                     40                     41                     42
                      A                      A                      A
 Frequencies --    882.5243               895.7941               926.2914
 Red. masses --      1.5402                 2.7974                 6.1218
 Frc consts  --      0.7068                 1.3226                 3.0948
 IR Inten    --      2.6303                22.5517                30.2403

                     43                     44                     45
                      A                      A                      A
 Frequencies --    938.0547               953.1618               980.0310
 Red. masses --      2.1147                 1.4276                 1.3137
 Frc consts  --      1.0963                 0.7642                 0.7434
 IR Inten    --      1.5296                 9.1052                 1.1871

                     46                     47                     48
                      A                      A                      A
 Frequencies --   1031.9635              1065.6244              1083.8323
 Red. masses --      2.3005                 2.3625                 3.1538
 Frc consts  --      1.4434                 1.5806                 2.1828
 IR Inten    --     11.4634                 7.5929                 3.9381

                     49                     50                     51
                      A                      A                      A
 Frequencies --   1109.0252              1110.1792              1131.8554
 Red. masses --      1.6944                 2.0104                 2.2989
 Frc consts  --      1.2279                 1.4599                 1.7352
 IR Inten    --      0.4522                23.0177                 2.6910

                     52                     53                     54
                      A                      A                      A
 Frequencies --   1151.6857              1155.7886              1158.1924
 Red. masses --      5.3067                 2.3013                 1.7837
 Frc consts  --      4.1471                 1.8112                 1.4097
 IR Inten    --     51.8858               112.9340                68.9397

                     55                     56                     57
                      A                      A                      A
 Frequencies --   1163.1908              1195.1831              1210.7962
 Red. masses --      1.4238                 2.7346                 1.5312
 Frc consts  --      1.1350                 2.3015                 1.3226
 IR Inten    --      3.3227                 1.7014                21.5343

                     58                     59                     60
                      A                      A                      A
 Frequencies --   1221.2092              1244.0671              1282.4873
 Red. masses --      3.6784                 1.0945                 2.3502
 Frc consts  --      3.2321                 0.9980                 2.2775
 IR Inten    --     10.9789                 1.8974                65.1539

                     61                     62                     63
                      A                      A                      A
 Frequencies --   1304.8218              1310.1391              1338.2502
 Red. masses --      1.9815                 1.5514                 1.4884
 Frc consts  --      1.9877                 1.5690                 1.5705
 IR Inten    --    106.5558                22.7532                 3.6981

                     64                     65                     66
                      A                      A                      A
 Frequencies --   1347.4268              1356.1872              1375.7069
 Red. masses --      1.3063                 2.5949                 1.2707
 Frc consts  --      1.3973                 2.8119                 1.4170
 IR Inten    --      2.2644               178.1460                 0.9422

                     67                     68                     69
                      A                      A                      A
 Frequencies --   1385.8319              1392.3664              1411.7850
 Red. masses --      6.8561                 5.8384                 1.2891
 Frc consts  --      7.7580                 6.6689                 1.5138
 IR Inten    --    344.5060               294.7922                17.3063

                     70                     71                     72
                      A                      A                      A
 Frequencies --   1424.1431              1443.8888              1469.0035
 Red. masses --      1.3442                 1.3505                 1.5469
 Frc consts  --      1.6063                 1.6588                 1.9668
 IR Inten    --      4.4819                12.5572                 8.6485

                     73                     74                     75
                      A                      A                      A
 Frequencies --   1474.3048              1494.5213              1510.7588
 Red. masses --      1.7022                 1.6327                 1.0910
 Frc consts  --      2.1799                 2.1486                 1.4671
 IR Inten    --     24.9250                 3.4752                 2.1209

                     76                     77                     78
                      A                      A                      A
 Frequencies --   1513.4523              1514.4918              1517.5592
 Red. masses --      1.2682                 1.0605                 1.4808
 Frc consts  --      1.7115                 1.4332                 2.0092
 IR Inten    --     13.4871                12.3173                11.9519

                     79                     80                     81
                      A                      A                      A
 Frequencies --   1524.3129              1532.7167              1547.3824
 Red. masses --      1.1161                 1.1194                 1.1089
 Frc consts  --      1.5280                 1.5493                 1.5644
 IR Inten    --      9.5336                 1.2838                 5.9557

                     82                     83                     84
                      A                      A                      A
 Frequencies --   1581.8031              1618.4660              1653.7369
 Red. masses --      3.2030                 3.6761                 5.3179
 Frc consts  --      4.7219                 5.6734                 8.5688
 IR Inten    --    127.3843                52.1613               220.8646

                     85                     86                     87
                      A                      A                      A
 Frequencies --   1670.7701              1786.5739              3000.0460
 Red. masses --      6.6592                 9.1078                 1.0707
 Frc consts  --     10.9523                17.1279                 5.6777
 IR Inten    --    215.8320               265.1310                33.4349

                     88                     89                     90
                      A                      A                      A
 Frequencies --   3006.1853              3011.7057              3016.9454
 Red. masses --      1.0709                 1.0662                 1.0485
 Frc consts  --      5.7022                 5.6980                 5.6229
 IR Inten    --     31.9870                41.9380                60.9850

                     91                     92                     93
                      A                      A                      A
 Frequencies --   3019.5135              3086.8005              3101.6778
 Red. masses --      1.0650                 1.0923                 1.0967
 Frc consts  --      5.7212                 6.1318                 6.2164
 IR Inten    --     73.1245                35.8226                23.1076

                     94                     95                     96
                      A                      A                      A
 Frequencies --   3106.2358              3119.3823              3124.8552
 Red. masses --      1.0956                 1.0952                 1.0957
 Frc consts  --      6.2284                 6.2787                 6.3035
 IR Inten    --     23.2796                32.1614                23.1390

                     97                     98                     99
                      A                      A                      A
 Frequencies --   3152.8748              3229.4473              3251.2083
 Red. masses --      1.0992                 1.0885                 1.0911
 Frc consts  --      6.4378                 6.6885                 6.7951
 IR Inten    --     14.0933                 6.4825                 3.5338

                    100                    101                    102
                      A                      A                      A
 Frequencies --   3252.7462              3505.7548              3583.8018
 Red. masses --      1.0932                 1.0755                 1.0774
 Frc consts  --      6.8150                 7.7880                 8.1532
 IR Inten    --      1.3911                14.0698                95.7808

 - Thermochemistry -
 -------------------
 Temperature   298.150 Kelvin.  Pressure   1.00000 Atm.
 Atom     1 has atomic number  6 and mass  12.00000

 Molecular mass:   280.11716 amu.
 Principal axes and moments of inertia in atomic units:
                           1         2         3
     Eigenvalues --  4210.320507370.235058345.64619
           X            0.99987   0.01550   0.00483
           Y           -0.01512   0.99741  -0.07028
           Z           -0.00591   0.07020   0.99752
 This molecule is an asymmetric top.
 Rotational symmetry number  1.
 Warning -- assumption of classical behavior for rotation
           may cause significant error
 Rotational temperatures (Kelvin)      0.02057     0.01175     0.01038
 Rotational constants (GHZ):           0.42865     0.24487     0.21625
 Zero-point vibrational energy     767503.3 (Joules/Mol)
                                  183.43768 (Kcal/Mol)
 Warning -- explicit consideration of  28 degrees of freedom as
           vibrations may cause significant error
 Vibrational temperatures:     39.98    51.00    80.15    95.84   125.21
          (Kelvin)            132.58   167.48   204.39   233.32   254.99
                              266.95   309.63   372.58   411.21   424.72
                              449.56   460.75   517.97   566.90   572.83
                              600.61   680.50   701.42   720.60   752.21
                              775.72   803.04   822.79   897.21   955.55
                              971.99  1033.26  1072.14  1086.33  1129.33
                             1170.45  1191.80  1206.89  1222.76  1269.76
                             1288.85  1332.73  1349.65  1371.39  1410.05
                             1484.77  1533.20  1559.39  1595.64  1597.30
                             1628.49  1657.02  1662.92  1666.38  1673.57
                             1719.60  1742.07  1757.05  1789.94  1845.21
                             1877.35  1885.00  1925.44  1938.65  1951.25
                             1979.34  1993.90  2003.30  2031.24  2049.02
                             2077.43  2113.57  2121.20  2150.28  2173.64
                             2177.52  2179.02  2183.43  2193.15  2205.24
                             2226.34  2275.86  2328.61  2379.36  2403.87
                             2570.48  4316.40  4325.23  4333.17  4340.71
                             4344.41  4441.22  4462.62  4469.18  4488.10
                             4495.97  4536.28  4646.45  4677.76  4679.98
                             5044.00  5156.29

 Zero-point correction=                           0.292327 (Hartree/Particle)
 Thermal correction to Energy=                    0.310428
 Thermal correction to Enthalpy=                  0.311372
 Thermal correction to Gibbs Free Energy=         0.244985
 Sum of electronic and zero-point Energies=           -986.454406
 Sum of electronic and thermal Energies=              -986.436305
 Sum of electronic and thermal Enthalpies=            -986.435361
 Sum of electronic and thermal Free Energies=         -986.501748

                     E (Thermal)             CV                S
                      KCal/Mol        Cal/Mol-Kelvin    Cal/Mol-Kelvin
 Total                  194.796             68.569            139.723
 Electronic               0.000              0.000              0.000
 Translational            0.889              2.981             42.788
 Rotational               0.889              2.981             33.915
 Vibrational            193.019             62.607             63.020
 Vibration     1          0.593              1.984              5.981
 Vibration     2          0.594              1.982              5.499
 Vibration     3          0.596              1.975              4.604
 Vibration     4          0.598              1.970              4.251
 Vibration     5          0.601              1.958              3.726
 Vibration     6          0.602              1.955              3.614
 Vibration     7          0.608              1.936              3.159
 Vibration     8          0.616              1.911              2.776
 Vibration     9          0.622              1.889              2.524
 Vibration    10          0.628              1.870              2.357
 Vibration    11          0.632              1.860              2.272
 Vibration    12          0.645              1.818              1.999
 Vibration    13          0.668              1.748              1.669
 Vibration    14          0.684              1.700              1.499
 Vibration    15          0.689              1.683              1.444
 Vibration    16          0.701              1.650              1.349
 Vibration    17          0.706              1.635              1.309
 Vibration    18          0.735              1.555              1.122
 Vibration    19          0.761              1.483              0.985
 Vibration    20          0.764              1.474              0.970
 Vibration    21          0.780              1.432              0.901
 Vibration    22          0.830              1.310              0.729
 Vibration    23          0.843              1.278              0.690
 Vibration    24          0.856              1.248              0.656
 Vibration    25          0.878              1.199              0.603
 Vibration    26          0.894              1.163              0.567
 Vibration    27          0.914              1.122              0.528
 Vibration    28          0.928              1.092              0.501

                           ! Non-Optimized Parameters !
 Normal termination of Gaussian 16 at Sun Dec 13 17:18:42 2020.

 ----------------------------------------------------------------------
 # B3LYP/6-311++G(d,p) empiricaldispersion=gd3bj scf=xqc pop=npa geom=c
 heck
 ----------------------------------------------------------------------

 ----------------------------------------
 CID_115279129_JID_10542_Energie_neutraal
 ----------------------------------------
 Structure from the checkpoint file:  "JID_10542.chk"
 Charge =  0 Multiplicity = 1

 SCF Done:  E(RB3LYP) =  -987.030992713     A.U. after   17 cycles
 Normal termination of Gaussian 16 at Sun Dec 13 17:26:14 2020.

 ----------------------------------------------------------------------
 # B3LYP/6-311++G(d,p) empiricaldispersion=gd3bj scf=xqc pop=npa geom=c
 heck
 ----------------------------------------------------------------------

 --------------------------------------
 CID_115279129_JID_10542_Energie_kation
 --------------------------------------
 Structure from the checkpoint file:  "JID_10542.chk"
 Charge =  1 Multiplicity = 2

 SCF Done:  E(UB3LYP) =  -986.730100678     A.U. after   33 cycles
 SCF Done:  E(UB3LYP) =  -986.730100678     a.u. after    1 cycles
 Normal termination of Gaussian 16 at Sun Dec 13 17:46:41 2020.
 Gaussian 16:  ES64L-G16RevA.03 25-Dec-2016

 ----------------------------------------------------------------------
 # B3LYP/6-311++G(d,p) empiricaldispersion=gd3bj scf=xqc pop=npa geom=c
 heck
 ----------------------------------------------------------------------

 -------------------------------------
 CID_115279129_JID_10542_Energie_anion
 -------------------------------------
 Structure from the checkpoint file:  "JID_10542.chk"
 Charge = -1 Multiplicity = 2

                         Standard orientation:
 ---------------------------------------------------------------------
 Center     Atomic      Atomic             Coordinates (Angstroms)
 Number     Number       Type             X           Y           Z
 ---------------------------------------------------------------------
      1          6           0       -0.755471    3.636694   -0.901622
      2          7           0       -0.512468    2.597255    0.076383
      3          6           0        0.460185    1.648559   -0.059419
      4          6           0        0.537515    0.555396    0.853372
      5          6           0        1.599800   -0.335352    0.786707
      6          6           0        2.549854   -0.214007   -0.224003
      7          6           0        2.470729    0.821005   -1.157597
      8          6           0        1.442781    1.743413   -1.072992
      9          7           0        3.634192   -1.178283   -0.308311
     10          8           0        3.658479   -2.092552    0.519889
     11          8           0        4.467927   -1.029486   -1.206140
     12          6           0       -0.440500    0.391764    1.972276
     13          8           0       -0.099733    0.314216    3.140229
     14          7           0       -1.807235    0.396244    1.630631
     15          7           0       -2.336216   -0.408890    0.585713
     16          6           0       -2.490076    0.242518   -0.712108
     17          6           0       -3.361509   -0.657881   -1.587810
     18          8           0       -2.786400   -1.947561   -1.726172
     19          6           0       -2.648008   -2.574387   -0.459445
     20          6           0       -1.755033   -1.750320    0.466774
     21          1           0       -0.982953    3.231111   -1.898747
     22          1           0        0.109891    4.303141   -0.990351
     23          1           0       -1.606118    4.233574   -0.566922
     24          1           0       -1.272305    2.360043    0.700766
     25          1           0        1.684171   -1.136540    1.510256
     26          1           0        3.220996    0.888702   -1.935419
     27          1           0        1.398138    2.553357   -1.790798
     28          1           0       -2.362596    0.281866    2.476599
     29          1           0       -1.527881    0.408321   -1.221268
     30          1           0       -2.982294    1.208686   -0.564164
     31          1           0       -4.368113   -0.734788   -1.146301
     32          1           0       -3.445257   -0.243322   -2.596293
     33          1           0       -2.204302   -3.556482   -0.643091
     34          1           0       -3.636949   -2.708352    0.007266
     35          1           0       -0.733116   -1.728384    0.058351
     36          1           0       -1.723009   -2.206556    1.461948
 ---------------------------------------------------------------------

 SCF Done:  E(UB3LYP) =  -987.062615139     A.U. after   25 cycles

 The electronic state is 2-A.
 Alpha  occ. eigenvalues --  -19.05169 -18.99768 -18.94629 -18.94453 -14.32360
 Alpha  occ. eigenvalues --  -14.26290 -14.26049 -14.21458 -10.16992 -10.14316
 Alpha  occ. eigenvalues --  -10.14170 -10.11463 -10.11323 -10.11271 -10.08875
 Alpha  occ. eigenvalues --  -10.05947 -10.05917 -10.05285 -10.04724 -10.03606
 Alpha  occ. eigenvalues --   -1.02441  -0.97010  -0.95068  -0.89565  -0.85251
 Alpha  occ. eigenvalues --   -0.83480  -0.75257  -0.73107  -0.69878  -0.65525
 Alpha  occ. eigenvalues --   -0.63573  -0.60181  -0.59869  -0.58015  -0.53792
 Alpha  occ. eigenvalues --   -0.52746  -0.49743  -0.46874  -0.46047  -0.43875
 Alpha  occ. eigenvalues --   -0.42492  -0.40524  -0.39447  -0.39257  -0.38665
 Alpha  occ. eigenvalues --   -0.37315  -0.36963  -0.35870  -0.35283  -0.34806
 Alpha  occ. eigenvalues --   -0.34050  -0.33565  -0.32743  -0.32267  -0.31600
 Alpha  occ. eigenvalues --   -0.30539  -0.29772  -0.29455  -0.28450  -0.28244
 Alpha  occ. eigenvalues --   -0.26902  -0.25379  -0.24232  -0.23017  -0.19580
 Alpha  occ. eigenvalues --   -0.19197  -0.18548  -0.16857  -0.14375  -0.14033
 Alpha  occ. eigenvalues --   -0.13025  -0.12377  -0.10238  -0.09160   0.02970
 Alpha virt. eigenvalues --    0.05648   0.06755   0.07078   0.07871   0.08224
 Alpha virt. eigenvalues --    0.09394   0.09479   0.10447   0.10982   0.11426
 Alpha virt. eigenvalues --    0.12050   0.12091   0.12624   0.13406   0.13566

  Beta  occ. eigenvalues --  -19.05168 -18.99711 -18.94246 -18.93977 -14.31758
  Beta  occ. eigenvalues --  -14.26292 -14.26039 -14.21369 -10.16925 -10.14316
  Beta  occ. eigenvalues --  -10.14171 -10.11460 -10.11327 -10.11266 -10.08532
  Beta  occ. eigenvalues --  -10.05991 -10.05934 -10.05238 -10.04842 -10.03294
  Beta  occ. eigenvalues --   -1.01467  -0.97005  -0.94976  -0.89527  -0.84433
  Beta  occ. eigenvalues --   -0.83206  -0.75231  -0.72878  -0.69872  -0.65183
  Beta  occ. eigenvalues --   -0.63337  -0.60141  -0.59639  -0.58004  -0.53580
  Beta  occ. eigenvalues --   -0.51951  -0.49688  -0.46789  -0.45975  -0.43617
  Beta  occ. eigenvalues --   -0.42346  -0.40507  -0.39363  -0.39241  -0.38577
  Beta  occ. eigenvalues --   -0.37257  -0.36562  -0.35583  -0.35086  -0.34002
  Beta  occ. eigenvalues --   -0.33440  -0.32430  -0.32212  -0.32048  -0.31519
  Beta  occ. eigenvalues --   -0.30202  -0.29708  -0.29280  -0.28380  -0.28131
  Beta  occ. eigenvalues --   -0.26605  -0.24668  -0.24209  -0.22896  -0.19390
  Beta  occ. eigenvalues --   -0.19181  -0.17758  -0.16722  -0.14313  -0.13190
  Beta  occ. eigenvalues --   -0.11972  -0.10417  -0.09806  -0.08289
  Beta virt. eigenvalues --    0.05648   0.06745   0.07661   0.07856   0.08243
  Beta virt. eigenvalues --    0.09353   0.09427   0.09914   0.10448   0.10992
  Beta virt. eigenvalues --    0.11517   0.12038   0.12522   0.12650   0.13502

 Mulliken charges and spin densities:
               1          2
     1  C   -0.367081  -0.005254
     2  N   -0.162194   0.032782
     3  C   -0.317485   0.230858
     4  C    0.884110  -0.025151
     5  C    0.005636   0.046454
     6  C   -0.646704  -0.079812
     7  C    0.123959   0.298101
     8  C   -0.290605  -0.103893
     9  N   -0.260329   0.197066
    10  O   -0.179385   0.182735
    11  O   -0.169358   0.153077
    12  C   -0.712059   0.050510
    13  O   -0.237046   0.020889
    14  N   -0.521628   0.005537
    15  N    0.321590  -0.016485
    16  C   -0.297586  -0.006493
    17  C   -0.510563   0.013908
    18  O   -0.092839   0.001595
    19  C   -0.406228  -0.023453
    20  C   -0.100854  -0.016427
    21  H    0.119770   0.014101
    22  H    0.145485   0.003960
    23  H    0.120568  -0.000907
    24  H    0.275243  -0.002245
    25  H    0.264198  -0.004365
    26  H    0.228577  -0.018377
    27  H    0.124970   0.005559
    28  H    0.327756   0.001513
    29  H    0.243296  -0.002444
    30  H    0.160580   0.003239
    31  H    0.112185   0.002993
    32  H    0.179960  -0.000215
    33  H    0.183725   0.001925
    34  H    0.118211  -0.001216
    35  H    0.169803   0.044206
    36  H    0.162321  -0.004269
 Sum of Mulliken charges =  -1.00000   1.00000

 Dipole moment (field-independent basis, Debye):
    X=            -14.8105    Y=              4.5252    Z=             -1.2224  Tot=             15.5346
 Quadrupole moment (field-independent basis, Debye-Ang):
   XX=           -184.4162   YY=           -133.3489   ZZ=           -144.3615
   XY=             17.3340   XZ=              1.8784   YZ=             -8.3442

 Summary of Natural Population Analysis:

                                       Natural Population
                Natural  -----------------------------------------------
    Atom  No    Charge         Core      Valence    Rydberg      Total
 -----------------------------------------------------------------------
      C    1   -0.17802      0.99967     2.17155    0.00680     3.17802
      N    2   -0.30405      0.99966     2.79558    0.00881     3.80405
      C    3    0.15380      0.99949     1.83230    0.01441     2.84620
      C    4   -0.12686      0.99943     2.11435    0.01308     3.12686
      C    5   -0.05974      0.99949     2.05117    0.00908     3.05974
      C    6    0.01497      0.99940     1.96982    0.01581     2.98503
      C    7   -0.01532      0.99954     2.00667    0.00910     3.01532
      C    8   -0.16608      0.99955     2.15936    0.00717     3.16608
      N    9    0.30420      0.99971     2.17007    0.02602     3.19580
      O   10   -0.19436      0.99990     3.18690    0.00756     4.19436
      O   11   -0.20637      0.99990     3.19897    0.00750     4.20637
      C   12    0.34787      0.99962     1.62883    0.02368     2.65213
      O   13   -0.29775      0.99987     3.29140    0.00647     4.29775
      N   14   -0.25517      0.99967     2.74037    0.01513     3.75517
      N   15   -0.19800      0.99970     2.68043    0.01788     3.69800
      C   16   -0.10167      0.99962     2.09268    0.00938     3.10167
      C   17   -0.01205      0.99959     2.00155    0.01091     3.01205
      O   18   -0.29666      0.99989     3.28701    0.00976     4.29666
      C   19   -0.01223      0.99959     2.00167    0.01097     3.01223
      C   20   -0.10777      0.99962     2.09992    0.00823     3.10777
      H   21    0.08431      0.00000     0.41381    0.00188     0.41569
      H   22    0.09219      0.00000     0.40629    0.00153     0.40781
      H   23    0.09254      0.00000     0.40672    0.00074     0.40746
      H   24    0.19443      0.00000     0.30379    0.00178     0.30557
      H   25    0.11940      0.00000     0.37936    0.00123     0.38060
      H   26    0.11046      0.00000     0.38844    0.00109     0.38954
      H   27    0.09596      0.00000     0.40301    0.00103     0.40404
      H   28    0.18444      0.00000     0.31399    0.00156     0.31556
      H   29    0.09902      0.00000     0.39912    0.00186     0.40098
      H   30    0.09894      0.00000     0.39990    0.00116     0.40106
      H   31    0.07557      0.00000     0.42288    0.00156     0.42443
      H   32    0.09084      0.00000     0.40814    0.00102     0.40916
      H   33    0.09357      0.00000     0.40542    0.00100     0.40643
      H   34    0.07547      0.00000     0.42299    0.00154     0.42453
      H   35    0.10248      0.00000     0.39553    0.00200     0.39752
      H   36    0.10162      0.00000     0.39748    0.00089     0.39838
 =======================================================================
   * Total *    0.00000     19.99291    53.74748    0.25961    74.00000

 Normal termination of Gaussian 16 at Sun Dec 13 18:02:07 2020.
