 Gaussian 16, Revision A.03,

 -----------------------------------------------------------
 # opt freq B3LYP/6-31G(d) empiricaldispersion=gd3bj scf=xqc
 -----------------------------------------------------------

 --------------------------------
 CID_120512761_JID_10579_neutraal
 --------------------------------
 Symbolic Z-matrix:
 Charge =  0 Multiplicity = 1

 SCF Done:  E(RB3LYP) =  -954.816515952     A.U. after   15 cycles
 SCF Done:  E(RB3LYP) =  -954.819113710     A.U. after   14 cycles
 SCF Done:  E(RB3LYP) =  -954.823704478     A.U. after   14 cycles
 SCF Done:  E(RB3LYP) =  -954.825986318     A.U. after   13 cycles
 SCF Done:  E(RB3LYP) =  -954.828531165     A.U. after   13 cycles
 SCF Done:  E(RB3LYP) =  -954.828780406     A.U. after   13 cycles
 SCF Done:  E(RB3LYP) =  -954.829270720     A.U. after   12 cycles
 SCF Done:  E(RB3LYP) =  -954.829828940     A.U. after   13 cycles
 SCF Done:  E(RB3LYP) =  -954.830483912     A.U. after   13 cycles
 SCF Done:  E(RB3LYP) =  -954.831194375     A.U. after   13 cycles
 SCF Done:  E(RB3LYP) =  -954.840394768     A.U. after    7 cycles
 SCF Done:  E(RB3LYP) =  -954.840394824     A.U. after    8 cycles
 SCF Done:  E(RB3LYP) =  -954.840394896     A.U. after    8 cycles
 SCF Done:  E(RB3LYP) =  -954.840394985     A.U. after    8 cycles
 SCF Done:  E(RB3LYP) =  -954.840395064     A.U. after    8 cycles
 SCF Done:  E(RB3LYP) =  -954.840395125     A.U. after    7 cycles
 Optimization completed.
    -- Stationary point found.
 Normal termination of Gaussian 16 at Mon Dec 14 14:40:42 2020.

 --------------------------------------------------------------------
 #N Geom=AllCheck Guess=TCheck SCRF=Check GenChk RB3LYP/6-31G(d) Freq
 --------------------------------------------------------------------

 Structure from the checkpoint file:  "JID_10579.chk"
 --------------------------------
 CID_120512761_JID_10579_neutraal
 --------------------------------
 Charge =  0 Multiplicity = 1

 SCF Done:  E(RB3LYP) =  -954.840395125     A.U. after    1 cycles

  Exact polarizability: 179.567  -2.519 167.459 -15.689  -7.297 141.009
 Approx polarizability: 250.444 -22.570 265.984 -29.063  -9.074 243.151

                      1                      2                      3
                      A                      A                      A
 Frequencies --     14.5405                30.2668                48.9616
 Red. masses --      5.5509                 7.8955                 4.3904
 Frc consts  --      0.0007                 0.0043                 0.0062
 IR Inten    --      0.0299                 1.6644                 1.6857

                      4                      5                      6
                      A                      A                      A
 Frequencies --     53.9874                67.7855               100.6958
 Red. masses --      2.9539                 2.2737                 4.4053
 Frc consts  --      0.0051                 0.0062                 0.0263
 IR Inten    --      0.2029                 1.4158                 2.3136

                      7                      8                      9
                      A                      A                      A
 Frequencies --    129.1767               148.4434               152.1977
 Red. masses --      4.0310                 2.5853                 2.5017
 Frc consts  --      0.0396                 0.0336                 0.0341
 IR Inten    --      0.5004                 2.5570                 0.8179

                     10                     11                     12
                      A                      A                      A
 Frequencies --    182.9099               191.7747               221.4186
 Red. masses --      5.9896                 4.4087                 4.0466
 Frc consts  --      0.1181                 0.0955                 0.1169
 IR Inten    --      2.6764                 1.4761                 0.0621

                     13                     14                     15
                      A                      A                      A
 Frequencies --    247.3776               267.4326               290.1312
 Red. masses --      3.9752                 3.5344                 2.4762
 Frc consts  --      0.1433                 0.1489                 0.1228
 IR Inten    --      1.3853                 0.2811                 1.5545

                     16                     17                     18
                      A                      A                      A
 Frequencies --    313.4935               355.7370               370.1893
 Red. masses --      3.4645                 5.1888                 4.6667
 Frc consts  --      0.2006                 0.3869                 0.3768
 IR Inten    --      3.0915                10.3000                 5.1257

                     19                     20                     21
                      A                      A                      A
 Frequencies --    393.0707               397.6082               424.6277
 Red. masses --      2.2414                 3.0544                 3.9072
 Frc consts  --      0.2040                 0.2845                 0.4151
 IR Inten    --      3.7606                 1.7529                 2.0438

                     22                     23                     24
                      A                      A                      A
 Frequencies --    455.2676               469.0346               475.3411
 Red. masses --      4.9628                 3.9839                 4.3031
 Frc consts  --      0.6061                 0.5164                 0.5728
 IR Inten    --      4.3376                 4.8985                 5.6587

                     25                     26                     27
                      A                      A                      A
 Frequencies --    518.6433               541.9197               557.9927
 Red. masses --      1.7920                 3.5331                 3.7833
 Frc consts  --      0.2840                 0.6113                 0.6940
 IR Inten    --      3.5472                 9.0121                20.2262

                     28                     29                     30
                      A                      A                      A
 Frequencies --    590.4395               613.0329               621.4453
 Red. masses --      3.3867                 1.5852                 1.3646
 Frc consts  --      0.6956                 0.3510                 0.3105
 IR Inten    --      7.7122                41.9992                79.8755

                     31                     32                     33
                      A                      A                      A
 Frequencies --    652.7415               675.5693               701.7634
 Red. masses --      4.0367                 4.7378                 4.3496
 Frc consts  --      1.0134                 1.2740                 1.2621
 IR Inten    --     32.8459                29.3574                 1.7137

                     34                     35                     36
                      A                      A                      A
 Frequencies --    736.3758               755.4822               771.2940
 Red. masses --      3.7043                 3.7250                 4.3979
 Frc consts  --      1.1835                 1.2526                 1.5415
 IR Inten    --      3.4468                58.5914                10.5240

                     37                     38                     39
                      A                      A                      A
 Frequencies --    790.3039               801.8746               808.8493
 Red. masses --      3.4299                 1.5688                 3.9820
 Frc consts  --      1.2622                 0.5943                 1.5349
 IR Inten    --     23.6465                 2.7450                14.3880

                     40                     41                     42
                      A                      A                      A
 Frequencies --    823.6075               853.6419               883.5150
 Red. masses --      1.6991                 3.0521                 1.6500
 Frc consts  --      0.6791                 1.3104                 0.7588
 IR Inten    --     60.8328                 3.5778                13.3389

                     43                     44                     45
                      A                      A                      A
 Frequencies --    890.9219               929.5374               937.4234
 Red. masses --      1.3845                 2.2346                 3.2563
 Frc consts  --      0.6475                 1.1376                 1.6860
 IR Inten    --      4.4082                 1.1149                 3.7552

                     46                     47                     48
                      A                      A                      A
 Frequencies --    945.1873               962.3393              1001.6269
 Red. masses --      2.7554                 1.5343                 1.2727
 Frc consts  --      1.4504                 0.8372                 0.7523
 IR Inten    --      5.6392                 2.7791                 0.4707

                     49                     50                     51
                      A                      A                      A
 Frequencies --   1028.0231              1054.7941              1073.7030
 Red. masses --      2.0261                 2.0298                 3.1190
 Frc consts  --      1.2616                 1.3306                 2.1185
 IR Inten    --     13.2879                 5.4834                 1.8476

                     52                     53                     54
                      A                      A                      A
 Frequencies --   1076.4544              1094.7827              1106.6795
 Red. masses --      3.3402                 1.7036                 1.8039
 Frc consts  --      2.2804                 1.2030                 1.3017
 IR Inten    --     10.1611                 2.3631                 6.1610

                     55                     56                     57
                      A                      A                      A
 Frequencies --   1122.7037              1157.4616              1160.5209
 Red. masses --      1.8896                 1.3687                 2.2606
 Frc consts  --      1.4033                 1.0804                 1.7938
 IR Inten    --     13.3392                 8.9090               154.3382

                     58                     59                     60
                      A                      A                      A
 Frequencies --   1176.3765              1185.8971              1197.5109
 Red. masses --      1.9287                 1.5310                 1.8872
 Frc consts  --      1.5726                 1.2686                 1.5945
 IR Inten    --     49.0774                30.9103                14.7227

                     61                     62                     63
                      A                      A                      A
 Frequencies --   1216.3532              1240.1702              1250.4409
 Red. masses --      1.7132                 2.0442                 2.3526
 Frc consts  --      1.4934                 1.8524                 2.1674
 IR Inten    --     26.5901                 6.7020                 4.4838

                     64                     65                     66
                      A                      A                      A
 Frequencies --   1290.7301              1305.5131              1316.7189
 Red. masses --      2.0777                 1.2733                 1.2071
 Frc consts  --      2.0394                 1.2786                 1.2331
 IR Inten    --     19.4512                 0.5565                 2.2233

                     67                     68                     69
                      A                      A                      A
 Frequencies --   1332.4902              1368.8948              1376.7994
 Red. masses --      1.5826                 1.3415                 2.5507
 Frc consts  --      1.6556                 1.4811                 2.8487
 IR Inten    --     21.2718                 3.2949                61.5531

                     70                     71                     72
                      A                      A                      A
 Frequencies --   1386.6700              1390.5916              1404.0523
 Red. masses --      2.7716                 1.4120                 1.4468
 Frc consts  --      3.1400                 1.6087                 1.6805
 IR Inten    --    235.3980                 0.5923                 0.0760

                     73                     74                     75
                      A                      A                      A
 Frequencies --   1408.2145              1412.5148              1433.0917
 Red. masses --      1.4789                 1.5050                 1.7345
 Frc consts  --      1.7279                 1.7692                 2.0988
 IR Inten    --     12.1177                10.0804                86.5528

                     76                     77                     78
                      A                      A                      A
 Frequencies --   1451.4840              1483.6498              1494.7491
 Red. masses --      2.0645                 1.4398                 1.9648
 Frc consts  --      2.5627                 1.8672                 2.5865
 IR Inten    --      8.6593                30.1312                58.7600

                     79                     80                     81
                      A                      A                      A
 Frequencies --   1509.9150              1515.8678              1517.2565
 Red. masses --      1.0863                 1.0784                 1.0828
 Frc consts  --      1.4592                 1.4600                 1.4686
 IR Inten    --      5.6717                 9.5949                 6.5537

                     82                     83                     84
                      A                      A                      A
 Frequencies --   1523.3143              1526.1914              1535.6884
 Red. masses --      1.1121                 1.0906                 1.0845
 Frc consts  --      1.5204                 1.4967                 1.5069
 IR Inten    --      3.8164                13.1763                 9.6191

                     85                     86                     87
                      A                      A                      A
 Frequencies --   1541.1817              1607.1917              1662.6287
 Red. masses --      1.1034                 6.0846                 5.9562
 Frc consts  --      1.5441                 9.2601                 9.7009
 IR Inten    --      8.8029                53.7156                28.8356

                     88                     89                     90
                      A                      A                      A
 Frequencies --   1769.3601              1773.3700              1838.1819
 Red. masses --      9.6061                 8.5428                10.2644
 Frc consts  --     17.7187                15.8288                20.4344
 IR Inten    --    480.3352               265.6613               252.9770

                     91                     92                     93
                      A                      A                      A
 Frequencies --   3029.9715              3046.2063              3052.5378
 Red. masses --      1.0677                 1.0629                 1.0637
 Frc consts  --      5.7755                 5.8112                 5.8399
 IR Inten    --     24.1402                12.0348                31.3067

                     94                     95                     96
                      A                      A                      A
 Frequencies --   3063.3164              3085.4012              3087.1997
 Red. masses --      1.0620                 1.0932                 1.0946
 Frc consts  --      5.8718                 6.1318                 6.1463
 IR Inten    --     17.9021                47.2385                24.4309

                     97                     98                     99
                      A                      A                      A
 Frequencies --   3090.8889              3094.7600              3104.3854
 Red. masses --      1.0811                 1.0371                 1.0989
 Frc consts  --      6.0854                 5.8521                 6.2396
 IR Inten    --      8.9260                16.3582                 2.8048

                    100                    101                    102
                      A                      A                      A
 Frequencies --   3109.2116              3147.5876              3165.2846
 Red. masses --      1.0937                 1.0983                 1.1038
 Frc consts  --      6.2297                 6.4109                 6.5157
 IR Inten    --     77.5300                18.2465                12.5748

                    103                    104                    105
                      A                      A                      A
 Frequencies --   3191.8814              3209.8571              3235.8362
 Red. masses --      1.0896                 1.1035                 1.0938
 Frc consts  --      6.5406                 6.6986                 6.7478
 IR Inten    --     16.8179                 0.4346                 4.3565

                    106                    107                    108
                      A                      A                      A
 Frequencies --   3266.7573              3572.5788              3680.3865
 Red. masses --      1.0923                 1.0752                 1.0641
 Frc consts  --      6.8682                 8.0856                 8.4924
 IR Inten    --      3.0667                23.9854                61.7071

 - Thermochemistry -
 -------------------
 Temperature   298.150 Kelvin.  Pressure   1.00000 Atm.
 Atom     1 has atomic number  6 and mass  12.00000

 Molecular mass:   278.12666 amu.
 Principal axes and moments of inertia in atomic units:
                           1         2         3
     Eigenvalues --  3517.942616522.521017462.85528
           X            0.99954   0.02987   0.00451
           Y           -0.02980   0.99946  -0.01392
           Z           -0.00493   0.01378   0.99989
 This molecule is an asymmetric top.
 Rotational symmetry number  1.
 Warning -- assumption of classical behavior for rotation
           may cause significant error
 Rotational temperatures (Kelvin)      0.02462     0.01328     0.01161
 Rotational constants (GHZ):           0.51301     0.27669     0.24183
 Zero-point vibrational energy     829725.3 (Joules/Mol)
                                  198.30909 (Kcal/Mol)
 Warning -- explicit consideration of  29 degrees of freedom as
           vibrations may cause significant error
 Vibrational temperatures:     20.92    43.55    70.44    77.68    97.53
          (Kelvin)            144.88   185.86   213.58   218.98   263.17
                              275.92   318.57   355.92   384.78   417.43
                              451.05   511.83   532.62   565.54   572.07
                              610.94   655.03   674.84   683.91   746.21
                              779.70   802.83   849.51   882.02   894.12
                              939.15   971.99  1009.68  1059.48  1086.97
                             1109.72  1137.07  1153.72  1163.75  1184.99
                             1228.20  1271.18  1281.84  1337.40  1348.74
                             1359.91  1384.59  1441.12  1479.10  1517.61
                             1544.82  1548.78  1575.15  1592.27  1615.32
                             1665.33  1669.73  1692.54  1706.24  1722.95
                             1750.06  1784.33  1799.11  1857.07  1878.34
                             1894.46  1917.16  1969.53  1980.91  1995.11
                             2000.75  2020.12  2026.11  2032.29  2061.90
                             2088.36  2134.64  2150.61  2172.43  2181.00
                             2182.99  2191.71  2195.85  2209.51  2217.42
                             2312.39  2392.15  2545.71  2551.48  2644.73
                             4359.45  4382.81  4391.92  4407.43  4439.20
                             4441.79  4447.10  4452.67  4466.52  4473.46
                             4528.68  4554.14  4592.41  4618.27  4655.65
                             4700.14  5140.14  5295.26

 Zero-point correction=                           0.316026 (Hartree/Particle)
 Thermal correction to Energy=                    0.334539
 Thermal correction to Enthalpy=                  0.335483
 Thermal correction to Gibbs Free Energy=         0.267749
 Sum of electronic and zero-point Energies=           -954.524369
 Sum of electronic and thermal Energies=              -954.505856
 Sum of electronic and thermal Enthalpies=            -954.504912
 Sum of electronic and thermal Free Energies=         -954.572647

                     E (Thermal)             CV                S
                      KCal/Mol        Cal/Mol-Kelvin    Cal/Mol-Kelvin
 Total                  209.927             71.075            142.560
 Electronic               0.000              0.000              0.000
 Translational            0.889              2.981             42.767
 Rotational               0.889              2.981             33.504
 Vibrational            208.149             65.113             66.289
 Vibration     1          0.593              1.986              7.267
 Vibration     2          0.594              1.984              5.812
 Vibration     3          0.595              1.978              4.859
 Vibration     4          0.596              1.976              4.666
 Vibration     5          0.598              1.970              4.217
 Vibration     6          0.604              1.949              3.441
 Vibration     7          0.612              1.924              2.958
 Vibration     8          0.618              1.904              2.692
 Vibration     9          0.619              1.900              2.645
 Vibration    10          0.630              1.863              2.299
 Vibration    11          0.634              1.851              2.211
 Vibration    12          0.648              1.808              1.947
 Vibration    13          0.661              1.767              1.749
 Vibration    14          0.673              1.733              1.613
 Vibration    15          0.686              1.692              1.473
 Vibration    16          0.701              1.648              1.344
 Vibration    17          0.731              1.563              1.141
 Vibration    18          0.742              1.533              1.079
 Vibration    19          0.760              1.485              0.988
 Vibration    20          0.764              1.475              0.971
 Vibration    21          0.787              1.417              0.876
 Vibration    22          0.814              1.349              0.780
 Vibration    23          0.826              1.319              0.740
 Vibration    24          0.832              1.305              0.723
 Vibration    25          0.874              1.209              0.613
 Vibration    26          0.897              1.157              0.561
 Vibration    27          0.914              1.122              0.528
 Vibration    28          0.948              1.052              0.466
 Vibration    29          0.972              1.004              0.428

 Optimization completed.
    -- Stationary point found.
 Normal termination of Gaussian 16 at Mon Dec 14 15:02:40 2020.

 ----------------------------------------------------------------------
 # B3LYP/6-311++G(d,p) empiricaldispersion=gd3bj scf=xqc pop=npa geom=c
 heck
 ----------------------------------------------------------------------

 ----------------------------------------
 CID_120512761_JID_10579_Energie_neutraal
 ----------------------------------------
 Structure from the checkpoint file:  "JID_10579.chk"
 Charge =  0 Multiplicity = 1

 SCF Done:  E(RB3LYP) =  -955.119542510     A.U. after   16 cycles
 Normal termination of Gaussian 16 at Mon Dec 14 15:12:42 2020.

 ----------------------------------------------------------------------
 # B3LYP/6-311++G(d,p) empiricaldispersion=gd3bj scf=xqc pop=npa geom=c
 heck
 ----------------------------------------------------------------------

 --------------------------------------
 CID_120512761_JID_10579_Energie_kation
 --------------------------------------
 Structure from the checkpoint file:  "JID_10579.chk"
 Charge =  1 Multiplicity = 2

 SCF Done:  E(UB3LYP) =  -954.824660503     A.U. after   25 cycles
 Normal termination of Gaussian 16 at Mon Dec 14 15:34:21 2020.
 Gaussian 16:  ES64L-G16RevA.03 25-Dec-2016

 ----------------------------------------------------------------------
 # B3LYP/6-311++G(d,p) empiricaldispersion=gd3bj scf=xqc pop=npa geom=c
 heck
 ----------------------------------------------------------------------

 -------------------------------------
 CID_120512761_JID_10579_Energie_anion
 -------------------------------------
 Structure from the checkpoint file:  "JID_10579.chk"
 Charge = -1 Multiplicity = 2

                         Standard orientation:
 ---------------------------------------------------------------------
 Center     Atomic      Atomic             Coordinates (Angstroms)
 Number     Number       Type             X           Y           Z
 ---------------------------------------------------------------------
      1          6           0       -2.065886    2.001803   -0.840049
      2          7           0       -2.186017    0.656818   -0.265479
      3          6           0       -3.274516    0.450108    0.633750
      4          8           0       -4.013146    1.382748    0.941411
      5          6           0       -3.405136   -0.908742    1.116501
      6          6           0       -2.571603   -1.905672    0.705198
      7          6           0       -1.505807   -1.634083   -0.193926
      8          6           0       -1.339536   -0.353378   -0.646013
      9          6           0       -0.276035   -0.003762   -1.658727
     10          8           0       -0.591035    0.247538   -2.814380
     11          7           0        1.028620    0.071065   -1.247123
     12          6           0        1.681270   -0.322596    0.002845
     13          6           0        3.175629    0.095034   -0.122664
     14          6           0        3.359514    1.616984   -0.156750
     15          6           0        2.732517    2.278848    1.075247
     16          6           0        1.256639    1.888596    1.212431
     17          6           0        1.078318    0.367379    1.250491
     18          6           0        1.687371   -1.853718    0.117569
     19          8           0        1.504696   -2.620201   -0.801367
     20          8           0        2.002698   -2.274038    1.364329
     21          1           0       -1.019695    2.307766   -0.867594
     22          1           0       -2.462996    2.010992   -1.857739
     23          1           0       -2.644010    2.670810   -0.206523
     24          1           0       -4.223714   -1.082864    1.805132
     25          1           0       -2.714196   -2.920057    1.068776
     26          1           0       -0.838627   -2.412413   -0.535835
     27          1           0        1.644675    0.196149   -2.042983
     28          1           0        3.707814   -0.321002    0.739504
     29          1           0        3.601578   -0.375341   -1.018285
     30          1           0        2.900873    2.028062   -1.065176
     31          1           0        4.430381    1.843784   -0.215922
     32          1           0        2.835823    3.368290    1.013156
     33          1           0        3.277800    1.959103    1.974876
     34          1           0        0.693261    2.307401    0.370970
     35          1           0        0.827331    2.320350    2.123477
     36          1           0        0.026064    0.100989    1.363216
     37          1           0        1.596417   -0.038089    2.124809
     38          1           0        2.040856   -3.248299    1.319006
 ---------------------------------------------------------------------

 SCF Done:  E(UB3LYP) =  -955.126669080     A.U. after   32 cycles

 The electronic state is 2-A.
 Alpha  occ. eigenvalues --  -19.08066 -19.02542 -18.98190 -18.95455 -14.23960
 Alpha  occ. eigenvalues --  -14.23800 -10.21512 -10.16668 -10.14881 -10.14045
 Alpha  occ. eigenvalues --  -10.09813 -10.09193 -10.09096 -10.08625 -10.08593
 Alpha  occ. eigenvalues --  -10.08050 -10.07871 -10.05614 -10.04642 -10.03576
 Alpha  occ. eigenvalues --   -1.02225  -0.93832  -0.93158  -0.91031  -0.83632
 Alpha  occ. eigenvalues --   -0.83260  -0.74460  -0.69807  -0.67649  -0.66768
 Alpha  occ. eigenvalues --   -0.63712  -0.59381  -0.57222  -0.54872  -0.53449
 Alpha  occ. eigenvalues --   -0.52030  -0.49408  -0.48766  -0.46619  -0.42785
 Alpha  occ. eigenvalues --   -0.40869  -0.40480  -0.39460  -0.38830  -0.38012
 Alpha  occ. eigenvalues --   -0.37110  -0.36035  -0.35138  -0.34816  -0.33915
 Alpha  occ. eigenvalues --   -0.33251  -0.32096  -0.31596  -0.30829  -0.30320
 Alpha  occ. eigenvalues --   -0.30127  -0.29264  -0.29089  -0.28601  -0.27631
 Alpha  occ. eigenvalues --   -0.26825  -0.26050  -0.25005  -0.24746  -0.23986
 Alpha  occ. eigenvalues --   -0.23384  -0.22983  -0.21277  -0.19165  -0.17378
 Alpha  occ. eigenvalues --   -0.16497  -0.15662  -0.13302  -0.09666   0.03554
 Alpha virt. eigenvalues --    0.05298   0.06149   0.07615   0.07989   0.08256
 Alpha virt. eigenvalues --    0.09168   0.09370   0.10134   0.10604   0.10740
 Alpha virt. eigenvalues --    0.11000   0.11441   0.12040   0.12928   0.13240

  Beta  occ. eigenvalues --  -19.08015 -19.02533 -18.98069 -18.95443 -14.23794
  Beta  occ. eigenvalues --  -14.23741 -10.21500 -10.16594 -10.14874 -10.14055
  Beta  occ. eigenvalues --  -10.09804 -10.09088 -10.08880 -10.08620 -10.08604
  Beta  occ. eigenvalues --  -10.08049 -10.07865 -10.05464 -10.04708 -10.03394
  Beta  occ. eigenvalues --   -1.02156  -0.93635  -0.93073  -0.90927  -0.83519
  Beta  occ. eigenvalues --   -0.82952  -0.74427  -0.69506  -0.67601  -0.66746
  Beta  occ. eigenvalues --   -0.63250  -0.59266  -0.57168  -0.54689  -0.53315
  Beta  occ. eigenvalues --   -0.51889  -0.49286  -0.48614  -0.46456  -0.42728
  Beta  occ. eigenvalues --   -0.40749  -0.40391  -0.39390  -0.38685  -0.37963
  Beta  occ. eigenvalues --   -0.36933  -0.35966  -0.34903  -0.34583  -0.33837
  Beta  occ. eigenvalues --   -0.33113  -0.32012  -0.31493  -0.30751  -0.30288
  Beta  occ. eigenvalues --   -0.29986  -0.29219  -0.29019  -0.28349  -0.27348
  Beta  occ. eigenvalues --   -0.26769  -0.25972  -0.24876  -0.24695  -0.23928
  Beta  occ. eigenvalues --   -0.23345  -0.22850  -0.20768  -0.19113  -0.16363
  Beta  occ. eigenvalues --   -0.16099  -0.15407  -0.13191  -0.08792
  Beta virt. eigenvalues --    0.05623   0.07002   0.07580   0.08100   0.08258
  Beta virt. eigenvalues --    0.08400   0.09254   0.09429   0.10240   0.10596
  Beta virt. eigenvalues --    0.10937   0.11445   0.11566   0.12068   0.12966

 Mulliken charges and spin densities:
               1          2
     1  C   -0.192674  -0.018552
     2  N    0.154938   0.072321
     3  C    0.029795   0.039048
     4  O   -0.388570   0.004164
     5  C   -0.199664   0.047979
     6  C   -0.241695   0.111537
     7  C   -0.241581   0.120945
     8  C    0.124072   0.236151
     9  C   -0.736216  -0.077070
    10  O   -0.253453   0.034782
    11  N   -0.088962   0.017382
    12  C    0.918814   0.033708
    13  C   -0.440373  -0.222404
    14  C   -0.369967   0.058664
    15  C   -0.166415  -0.340826
    16  C   -0.275252   0.033435
    17  C   -0.110288  -0.254462
    18  C   -0.118529  -0.456876
    19  O   -0.202944   0.021496
    20  O   -0.093402   0.045711
    21  H    0.160199   0.019245
    22  H    0.166817   0.032086
    23  H    0.189200   0.001897
    24  H    0.159336  -0.013082
    25  H    0.092391   0.047852
    26  H    0.235324  -0.004522
    27  H    0.303702   0.000931
    28  H   -0.132854   0.308243
    29  H    0.186070  -0.004364
    30  H    0.120706  -0.009415
    31  H   -0.105055   0.288905
    32  H    0.092145   0.079970
    33  H    0.048017   0.072006
    34  H    0.099481  -0.055542
    35  H    0.156079   0.025893
    36  H    0.326876  -0.024803
    37  H    0.133722   0.099088
    38  H   -0.339791   0.628478
 Sum of Mulliken charges =  -1.00000   1.00000

 Dipole moment (field-independent basis, Debye):
    X=              4.8438    Y=              2.9499    Z=             -0.0438  Tot=              5.6715
 Quadrupole moment (field-independent basis, Debye-Ang):
   XX=           -182.7311   YY=           -150.7117   ZZ=           -152.2465
   XY=             14.9902   XZ=             -2.3276   YZ=              0.0893

 Summary of Natural Population Analysis:

                                       Natural Population
                Natural  -----------------------------------------------
    Atom  No    Charge         Core      Valence    Rydberg      Total
 -----------------------------------------------------------------------
      C    1   -0.18351      0.99964     2.17757    0.00629     3.18351
      N    2   -0.19358      0.99961     2.68516    0.00882     3.69358
      C    3    0.31116      0.99961     1.66683    0.02239     2.68884
      O    4   -0.34680      0.99988     3.34104    0.00588     4.34680
      C    5   -0.12372      0.99953     2.11568    0.00851     3.12372
      C    6   -0.05302      0.99957     2.04253    0.01092     3.05302
      C    7   -0.16809      0.99951     2.15901    0.00956     3.16809
      C    8    0.12825      0.99945     1.85903    0.01327     2.87175
      C    9    0.35208      0.99962     1.62620    0.02210     2.64792
      O   10   -0.30348      0.99988     3.29816    0.00543     4.30348
      N   11   -0.32248      0.99964     2.81186    0.01098     3.82248
      C   12    0.02499      0.99950     1.96024    0.01527     2.97501
      C   13   -0.18872      0.99959     2.17919    0.00993     3.18872
      C   14   -0.19194      0.99963     2.18393    0.00838     3.19194
      C   15   -0.18982      0.99963     2.18207    0.00812     3.18982
      C   16   -0.19073      0.99962     2.18402    0.00709     3.19073
      C   17   -0.19655      0.99958     2.18683    0.01014     3.19655
      C   18    0.41482      0.99963     1.55846    0.02709     2.58518
      O   19   -0.30646      0.99987     3.30079    0.00581     4.30646
      O   20   -0.34471      0.99987     3.33781    0.00702     4.34471
      H   21    0.09220      0.00000     0.40659    0.00120     0.40780
      H   22    0.10285      0.00000     0.39623    0.00092     0.39715
      H   23    0.11391      0.00000     0.38497    0.00112     0.38609
      H   24    0.09776      0.00000     0.40095    0.00129     0.40224
      H   25    0.09462      0.00000     0.40460    0.00079     0.40538
      H   26    0.11278      0.00000     0.38565    0.00156     0.38722
      H   27    0.19145      0.00000     0.30610    0.00245     0.30855
      H   28    0.10846      0.00000     0.39025    0.00129     0.39154
      H   29    0.10176      0.00000     0.39723    0.00102     0.39824
      H   30    0.09614      0.00000     0.40266    0.00120     0.40386
      H   31    0.10077      0.00000     0.39831    0.00092     0.39923
      H   32    0.09715      0.00000     0.40209    0.00075     0.40285
      H   33    0.09353      0.00000     0.40539    0.00108     0.40647
      H   34    0.09754      0.00000     0.40108    0.00138     0.40246
      H   35    0.10099      0.00000     0.39822    0.00079     0.39901
      H   36    0.11816      0.00000     0.38009    0.00175     0.38184
      H   37    0.10725      0.00000     0.39132    0.00143     0.39275
      H   38    0.24497      0.00000     0.24162    0.01341     0.25503
 =======================================================================
   * Total *    0.00000     19.99287    53.74978    0.25735    74.00000

 Normal termination of Gaussian 16 at Mon Dec 14 16:02:23 2020.
