 Gaussian 16, Revision A.03,

 -----------------------------------------------------------
 # opt freq B3LYP/6-31G(d) empiricaldispersion=gd3bj scf=xqc
 -----------------------------------------------------------

 -------------------------------
 CID_120498312_JID_9164_neutraal
 -------------------------------
 Symbolic Z-matrix:
 Charge =  0 Multiplicity = 1

 SCF Done:  E(RB3LYP) =  -808.979463305     A.U. after   15 cycles
 SCF Done:  E(RB3LYP) =  -808.980804426     A.U. after   13 cycles
 SCF Done:  E(RB3LYP) =  -808.978840554     A.U. after   13 cycles
 SCF Done:  E(RB3LYP) =  -808.984047318     A.U. after   12 cycles
 SCF Done:  E(RB3LYP) =  -808.984855959     A.U. after   12 cycles
 SCF Done:  E(RB3LYP) =  -808.986691692     A.U. after   12 cycles
 SCF Done:  E(RB3LYP) =  -808.986592743     A.U. after   11 cycles
 SCF Done:  E(RB3LYP) =  -808.987064051     A.U. after   11 cycles
 SCF Done:  E(RB3LYP) =  -808.987126667     A.U. after   10 cycles
 SCF Done:  E(RB3LYP) =  -808.987147036     A.U. after   10 cycles
 SCF Done:  E(RB3LYP) =  -808.987187586     A.U. after    8 cycles
 SCF Done:  E(RB3LYP) =  -808.987187329     A.U. after    8 cycles
 SCF Done:  E(RB3LYP) =  -808.987187439     A.U. after    8 cycles
 SCF Done:  E(RB3LYP) =  -808.987187467     A.U. after    7 cycles
 SCF Done:  E(RB3LYP) =  -808.987187542     A.U. after    7 cycles
 Optimization completed on the basis of negligible forces.
    -- Stationary point found.
 Normal termination of Gaussian 16 at Sun Dec 13 13:13:01 2020.

 --------------------------------------------------------------------
 #N Geom=AllCheck Guess=TCheck SCRF=Check GenChk RB3LYP/6-31G(d) Freq
 --------------------------------------------------------------------

 Structure from the checkpoint file:  "JID_9164.chk"
 -------------------------------
 CID_120498312_JID_9164_neutraal
 -------------------------------
 Charge =  0 Multiplicity = 1

 SCF Done:  E(RB3LYP) =  -808.987187542     A.U. after    1 cycles

  Exact polarizability: 205.597  -6.136 156.754   3.353   5.256 162.406
 Approx polarizability: 296.921  -0.778 215.197  10.982  13.492 271.172

                      1                      2                      3
                      A                      A                      A
 Frequencies --      9.1765                38.4389                45.6339
 Red. masses --      1.0439                 4.1461                 4.0777
 Frc consts  --      0.0001                 0.0036                 0.0050
 IR Inten    --      0.2159                 0.2469                 1.1328

                      4                      5                      6
                      A                      A                      A
 Frequencies --     61.2136                83.2513                85.7530
 Red. masses --      4.4912                 3.5103                 2.8668
 Frc consts  --      0.0099                 0.0143                 0.0124
 IR Inten    --      0.4334                 0.7869                 1.3410

                      7                      8                      9
                      A                      A                      A
 Frequencies --     95.7422               120.6089               179.3257
 Red. masses --      2.9285                 3.0314                 2.8684
 Frc consts  --      0.0158                 0.0260                 0.0543
 IR Inten    --      0.1643                 0.4327                 1.5247

                     10                     11                     12
                      A                      A                      A
 Frequencies --    182.2241               197.1772               220.1661
 Red. masses --      4.5752                 3.3719                 2.3816
 Frc consts  --      0.0895                 0.0772                 0.0680
 IR Inten    --      2.8800                 0.0365                 1.3889

                     13                     14                     15
                      A                      A                      A
 Frequencies --    233.3293               240.4950               266.3732
 Red. masses --      1.6366                 1.2080                 1.1280
 Frc consts  --      0.0525                 0.0412                 0.0472
 IR Inten    --      0.1158                 1.1191                31.9890

                     16                     17                     18
                      A                      A                      A
 Frequencies --    268.2289               284.7634               292.3905
 Red. masses --      1.8337                 2.5201                 2.6328
 Frc consts  --      0.0777                 0.1204                 0.1326
 IR Inten    --      0.3465                 4.2149                 0.6028

                     19                     20                     21
                      A                      A                      A
 Frequencies --    298.5276               339.5711               363.7404
 Red. masses --      3.3840                 3.6061                 3.0592
 Frc consts  --      0.1777                 0.2450                 0.2385
 IR Inten    --      1.1905                 5.7470                 9.1400

                     22                     23                     24
                      A                      A                      A
 Frequencies --    393.0182               399.5945               425.5642
 Red. masses --      2.7087                 3.0469                 3.7072
 Frc consts  --      0.2465                 0.2867                 0.3956
 IR Inten    --      9.2990                 0.5602                 0.1596

                     25                     26                     27
                      A                      A                      A
 Frequencies --    454.7830               492.6221               531.0507
 Red. masses --      2.9170                 3.0060                 4.9206
 Frc consts  --      0.3555                 0.4298                 0.8176
 IR Inten    --      1.0938                10.5223                 1.8403

                     28                     29                     30
                      A                      A                      A
 Frequencies --    568.3875               578.7985               608.3686
 Red. masses --      3.8791                 2.1353                 3.7082
 Frc consts  --      0.7384                 0.4215                 0.8086
 IR Inten    --      7.9217                 1.6792                 1.8767

                     31                     32                     33
                      A                      A                      A
 Frequencies --    643.4255               653.7578               721.6056
 Red. masses --      3.8715                 4.0085                 2.4342
 Frc consts  --      0.9443                 1.0094                 0.7468
 IR Inten    --      9.3558                 4.3995                 8.6904

                     34                     35                     36
                      A                      A                      A
 Frequencies --    738.1279               761.2915               792.0505
 Red. masses --      3.9225                 4.4122                 2.4524
 Frc consts  --      1.2591                 1.5066                 0.9065
 IR Inten    --      8.7759                 0.3178                21.0225

                     37                     38                     39
                      A                      A                      A
 Frequencies --    806.8839               840.1498               885.8080
 Red. masses --      1.9386                 2.2747                 1.9531
 Frc consts  --      0.7436                 0.9460                 0.9029
 IR Inten    --      9.9963                 5.3130                 4.8748

                     40                     41                     42
                      A                      A                      A
 Frequencies --    903.0291               907.2585               910.9497
 Red. masses --      1.9923                 1.3272                 1.5237
 Frc consts  --      0.9572                 0.6436                 0.7450
 IR Inten    --     80.2839                 2.8605                 5.6290

                     43                     44                     45
                      A                      A                      A
 Frequencies --    918.5338               933.0710               951.5561
 Red. masses --      1.5910                 2.2508                 1.4073
 Frc consts  --      0.7909                 1.1546                 0.7508
 IR Inten    --     15.6701                19.7076                30.4481

                     46                     47                     48
                      A                      A                      A
 Frequencies --    953.0535               969.1137               979.3129
 Red. masses --      2.4623                 1.9554                 1.3163
 Frc consts  --      1.3177                 1.0820                 0.7438
 IR Inten    --      2.3034                 2.2338                 0.9192

                     49                     50                     51
                      A                      A                      A
 Frequencies --    988.8743               999.0780              1020.4626
 Red. masses --      1.8603                 1.2426                 4.0518
 Frc consts  --      1.0718                 0.7308                 2.4860
 IR Inten    --      3.4492                 2.7972                 0.3889

                     52                     53                     54
                      A                      A                      A
 Frequencies --   1035.7250              1043.3767              1066.1553
 Red. masses --      1.7972                 1.7006                 1.5426
 Frc consts  --      1.1359                 1.0907                 1.0331
 IR Inten    --      0.9225                 5.6475                 2.4430

                     55                     56                     57
                      A                      A                      A
 Frequencies --   1076.6813              1077.7778              1119.3892
 Red. masses --      1.5333                 3.3361                 1.9431
 Frc consts  --      1.0473                 2.2832                 1.4345
 IR Inten    --      3.4291                12.6858                29.0407

                     58                     59                     60
                      A                      A                      A
 Frequencies --   1128.7643              1134.6397              1156.7330
 Red. masses --      1.9983                 1.6780                 2.0276
 Frc consts  --      1.5001                 1.2728                 1.5985
 IR Inten    --     11.0694                 4.2488                20.1884

                     61                     62                     63
                      A                      A                      A
 Frequencies --   1186.9632              1193.7899              1203.5625
 Red. masses --      1.8882                 1.6647                 1.8169
 Frc consts  --      1.5674                 1.3978                 1.5507
 IR Inten    --      7.0761                 3.8877                16.4110

                     64                     65                     66
                      A                      A                      A
 Frequencies --   1207.7670              1217.1753              1228.3599
 Red. masses --      1.1943                 1.9182                 1.5765
 Frc consts  --      1.0264                 1.6744                 1.4015
 IR Inten    --      2.4967                 6.9407                 8.2577

                     67                     68                     69
                      A                      A                      A
 Frequencies --   1240.1736              1277.2167              1286.9413
 Red. masses --      1.7327                 1.5777                 2.7811
 Frc consts  --      1.5701                 1.5164                 2.7139
 IR Inten    --      3.4679                13.7011                10.8517

                     70                     71                     72
                      A                      A                      A
 Frequencies --   1320.2592              1327.5560              1350.4362
 Red. masses --      1.7171                 1.3778                 1.3643
 Frc consts  --      1.7635                 1.4307                 1.4659
 IR Inten    --      8.0046                 1.0349                 2.4229

                     73                     74                     75
                      A                      A                      A
 Frequencies --   1354.8436              1357.4682              1363.7313
 Red. masses --      1.4856                 1.4097                 1.5067
 Frc consts  --      1.6067                 1.5305                 1.6510
 IR Inten    --     32.7827                12.8698                 3.2899

                     76                     77                     78
                      A                      A                      A
 Frequencies --   1369.0300              1382.4680              1388.4280
 Red. masses --      1.6624                 1.5353                 1.4663
 Frc consts  --      1.8358                 1.7289                 1.6654
 IR Inten    --      1.3475                16.3139                27.4775

                     79                     80                     81
                      A                      A                      A
 Frequencies --   1393.0799              1419.6092              1426.5194
 Red. masses --      1.5393                 2.1897                 1.2517
 Frc consts  --      1.7600                 2.6000                 1.5007
 IR Inten    --     24.5040               133.6306                12.2930

                     82                     83                     84
                      A                      A                      A
 Frequencies --   1440.6648              1442.4423              1450.0653
 Red. masses --      1.2683                 1.2494                 1.5789
 Frc consts  --      1.5509                 1.5317                 1.9560
 IR Inten    --     12.9525                 1.7301                72.8435

                     85                     86                     87
                      A                      A                      A
 Frequencies --   1486.0625              1514.2270              1515.4309
 Red. masses --      2.2365                 1.0622                 1.0444
 Frc consts  --      2.9101                 1.4349                 1.4132
 IR Inten    --      5.3152                 1.6640                 5.7503

                     88                     89                     90
                      A                      A                      A
 Frequencies --   1518.7110              1519.0246              1525.4789
 Red. masses --      1.0602                 1.0761                 1.0587
 Frc consts  --      1.4408                 1.4629                 1.4515
 IR Inten    --      1.6257                 7.3179                 3.6979

                     91                     92                     93
                      A                      A                      A
 Frequencies --   1527.0623              1529.6038              1543.8268
 Red. masses --      1.1880                 1.1386                 1.6792
 Frc consts  --      1.6322                 1.5695                 2.3580
 IR Inten    --      9.0774                 1.6152                 9.8206

                     94                     95                     96
                      A                      A                      A
 Frequencies --   1548.0675              1552.1692              1652.1669
 Red. masses --      1.2122                 1.0953                 5.3523
 Frc consts  --      1.7116                 1.5547                 8.6079
 IR Inten    --     13.1815                 4.7629                 3.1872

                     97                     98                     99
                      A                      A                      A
 Frequencies --   1670.2859              1692.0340              1719.6553
 Red. masses --      5.7908                 1.0890                 9.9046
 Frc consts  --      9.5185                 1.8369                17.2571
 IR Inten    --     16.7044                24.4616               260.6583

                    100                    101                    102
                      A                      A                      A
 Frequencies --   3026.2061              3044.9045              3045.9704
 Red. masses --      1.0745                 1.0484                 1.0373
 Frc consts  --      5.7975                 5.7272                 5.6703
 IR Inten    --     36.0103                13.3976                29.8111

                    103                    104                    105
                      A                      A                      A
 Frequencies --   3047.6401              3062.7128              3063.6910
 Red. masses --      1.0715                 1.0476                 1.0643
 Frc consts  --      5.8635                 5.7899                 5.8857
 IR Inten    --     20.7606                 6.1247                37.1897

                    106                    107                    108
                      A                      A                      A
 Frequencies --   3070.1584              3075.6714              3098.9766
 Red. masses --      1.0686                 1.0743                 1.1010
 Frc consts  --      5.9347                 5.9874                 6.2296
 IR Inten    --     16.2122                29.4738                17.5547

                    109                    110                    111
                      A                      A                      A
 Frequencies --   3105.7674              3117.6996              3124.7790
 Red. masses --      1.0980                 1.0990                 1.0905
 Frc consts  --      6.2400                 6.2936                 6.2735
 IR Inten    --     13.0699                33.5644                15.1709

                    112                    113                    114
                      A                      A                      A
 Frequencies --   3127.3663              3128.4421              3135.2761
 Red. masses --      1.1046                 1.1012                 1.0971
 Frc consts  --      6.3652                 6.3498                 6.3542
 IR Inten    --     31.9028                18.5879                32.6806

                    115                    116                    117
                      A                      A                      A
 Frequencies --   3140.2078              3145.6162              3159.0642
 Red. masses --      1.0942                 1.0922                 1.1004
 Frc consts  --      6.3570                 6.3673                 6.4700
 IR Inten    --     23.1386                15.6868                23.3904

                    118                    119                    120
                      A                      A                      A
 Frequencies --   3166.1579              3181.0795              3194.0563
 Red. masses --      1.0898                 1.0865                 1.0900
 Frc consts  --      6.4365                 6.4775                 6.5521
 IR Inten    --     13.8575                 5.3362                20.2904

                    121                    122                    123
                      A                      A                      A
 Frequencies --   3207.9579              3439.1890              3529.4192
 Red. masses --      1.0959                 1.0505                 1.0906
 Frc consts  --      6.6450                 7.3207                 8.0041
 IR Inten    --     14.8128                 3.9592                 0.9385

 - Thermochemistry -
 -------------------
 Temperature   298.150 Kelvin.  Pressure   1.00000 Atm.
 Atom     1 has atomic number  6 and mass  12.00000

 Molecular mass:   260.18886 amu.
 Principal axes and moments of inertia in atomic units:
                           1         2         3
     Eigenvalues --  3918.391345158.263417020.92468
           X            0.99873  -0.05016   0.00523
           Y            0.05010   0.99869   0.01012
           Z           -0.00573  -0.00984   0.99994
 This molecule is an asymmetric top.
 Rotational symmetry number  1.
 Warning -- assumption of classical behavior for rotation
           may cause significant error
 Rotational temperatures (Kelvin)      0.02210     0.01679     0.01234
 Rotational constants (GHZ):           0.46058     0.34987     0.25705
 Zero-point vibrational energy    1000409.0 (Joules/Mol)
                                  239.10349 (Kcal/Mol)
 Warning -- explicit consideration of  30 degrees of freedom as
           vibrations may cause significant error
 Vibrational temperatures:     13.20    55.30    65.66    88.07   119.78
          (Kelvin)            123.38   137.75   173.53   258.01   262.18
                              283.69   316.77   335.71   346.02   383.25
                              385.92   409.71   420.68   429.51   488.57
                              523.34   565.47   574.93   612.29   654.33
                              708.77   764.06   817.78   832.76   875.31
                              925.75   940.61  1038.23  1062.00  1095.33
                             1139.58  1160.93  1208.79  1274.48  1299.26
                             1305.34  1310.65  1321.57  1342.48  1369.08
                             1371.23  1394.34  1409.01  1422.77  1437.45
                             1468.22  1490.18  1501.19  1533.96  1549.10
                             1550.68  1610.55  1624.04  1632.49  1664.28
                             1707.78  1717.60  1731.66  1737.71  1751.24
                             1767.34  1784.33  1837.63  1851.62  1899.56
                             1910.06  1942.98  1949.32  1953.09  1962.11
                             1969.73  1989.06  1997.64  2004.33  2042.50
                             2052.44  2072.80  2075.35  2086.32  2138.11
                             2178.63  2180.37  2185.09  2185.54  2194.82
                             2197.10  2200.76  2221.22  2227.32  2233.23
                             2377.10  2403.17  2434.46  2474.20  4354.04
                             4380.94  4382.47  4384.87  4406.56  4407.97
                             4417.27  4425.21  4458.74  4468.51  4485.67
                             4495.86  4499.58  4501.13  4510.96  4518.06
                             4525.84  4545.19  4555.40  4576.86  4595.53
                             4615.54  4948.23  5078.05

 Zero-point correction=                           0.381036 (Hartree/Particle)
 Thermal correction to Energy=                    0.400535
 Thermal correction to Enthalpy=                  0.401479
 Thermal correction to Gibbs Free Energy=         0.331796
 Sum of electronic and zero-point Energies=           -808.606152
 Sum of electronic and thermal Energies=              -808.586653
 Sum of electronic and thermal Enthalpies=            -808.585709
 Sum of electronic and thermal Free Energies=         -808.655391

                     E (Thermal)             CV                S
                      KCal/Mol        Cal/Mol-Kelvin    Cal/Mol-Kelvin
 Total                  251.339             74.297            146.660
 Electronic               0.000              0.000              0.000
 Translational            0.889              2.981             42.568
 Rotational               0.889              2.981             33.317
 Vibrational            249.562             68.336             70.774
 Vibration     1          0.593              1.987              8.182
 Vibration     2          0.594              1.982              5.338
 Vibration     3          0.595              1.979              4.998
 Vibration     4          0.597              1.973              4.418
 Vibration     5          0.600              1.961              3.813
 Vibration     6          0.601              1.959              3.755
 Vibration     7          0.603              1.952              3.539
 Vibration     8          0.609              1.932              3.091
 Vibration     9          0.629              1.868              2.335
 Vibration    10          0.630              1.864              2.306
 Vibration    11          0.637              1.844              2.159
 Vibration    12          0.647              1.810              1.958
 Vibration    13          0.654              1.790              1.853
 Vibration    14          0.658              1.778              1.799
 Vibration    15          0.672              1.735              1.620
 Vibration    16          0.673              1.732              1.608
 Vibration    17          0.683              1.702              1.505
 Vibration    18          0.688              1.688              1.460
 Vibration    19          0.692              1.676              1.425
 Vibration    20          0.719              1.596              1.214
 Vibration    21          0.737              1.547              1.106
 Vibration    22          0.760              1.485              0.989
 Vibration    23          0.766              1.471              0.964
 Vibration    24          0.787              1.415              0.873
 Vibration    25          0.813              1.350              0.781
 Vibration    26          0.848              1.266              0.677
 Vibration    27          0.886              1.181              0.585
 Vibration    28          0.924              1.100              0.507
 Vibration    29          0.935              1.077              0.488
 Vibration    30          0.967              1.014              0.435

 Optimization completed on the basis of negligible forces.
    -- Stationary point found.
 Normal termination of Gaussian 16 at Sun Dec 13 13:39:53 2020.

 ----------------------------------------------------------------------
 # B3LYP/6-311++G(d,p) empiricaldispersion=gd3bj scf=xqc pop=npa geom=c
 heck
 ----------------------------------------------------------------------

 ---------------------------------------
 CID_120498312_JID_9164_Energie_neutraal
 ---------------------------------------
 Structure from the checkpoint file:  "JID_9164.chk"
 Charge =  0 Multiplicity = 1

 SCF Done:  E(RB3LYP) =  -809.212120918     A.U. after   16 cycles
 Normal termination of Gaussian 16 at Sun Dec 13 13:53:25 2020.

 ----------------------------------------------------------------------
 # B3LYP/6-311++G(d,p) empiricaldispersion=gd3bj scf=xqc pop=npa geom=c
 heck
 ----------------------------------------------------------------------

 -------------------------------------
 CID_120498312_JID_9164_Energie_kation
 -------------------------------------
 Structure from the checkpoint file:  "JID_9164.chk"
 Charge =  1 Multiplicity = 2

 SCF Done:  E(UB3LYP) =  -808.918399996     A.U. after   32 cycles
 Normal termination of Gaussian 16 at Sun Dec 13 14:30:02 2020.
 Gaussian 16:  ES64L-G16RevA.03 25-Dec-2016

 ----------------------------------------------------------------------
 # B3LYP/6-311++G(d,p) empiricaldispersion=gd3bj scf=xqc pop=npa geom=c
 heck
 ----------------------------------------------------------------------

 ------------------------------------
 CID_120498312_JID_9164_Energie_anion
 ------------------------------------
 Structure from the checkpoint file:  "JID_9164.chk"
 Charge = -1 Multiplicity = 2

                         Standard orientation:
 ---------------------------------------------------------------------
 Center     Atomic      Atomic             Coordinates (Angstroms)
 Number     Number       Type             X           Y           Z
 ---------------------------------------------------------------------
      1          6           0       -4.200570   -0.977443   -1.116297
      2          6           0       -2.979720   -0.980606   -0.229064
      3          6           0       -1.702743   -1.149550   -0.782431
      4          6           0       -0.554570   -1.128525    0.007768
      5          6           0       -0.683510   -0.962580    1.392541
      6          6           0       -1.942435   -0.794404    1.958847
      7          6           0       -3.083769   -0.797825    1.152345
      8          6           0        0.810741   -1.316374   -0.619009
      9          6           0        1.369964   -2.739046   -0.352610
     10          6           0        2.883972   -2.540474   -0.246309
     11          6           0        2.988938   -1.202314    0.483847
     12          7           0        1.856842   -0.436942   -0.059373
     13          6           0        1.924123    0.933814    0.002629
     14          8           0        2.843778    1.458025    0.633947
     15          6           0        0.926732    1.846794   -0.727933
     16          6           0        0.546577    1.436975   -2.157813
     17          6           0       -0.318509    2.220772    0.119361
     18          6           0        0.026962    2.521035    1.582835
     19          7           0       -0.988140    3.343462   -0.563013
     20          1           0       -4.169648   -0.144277   -1.829077
     21          1           0       -4.269767   -1.901129   -1.703283
     22          1           0       -5.119626   -0.882525   -0.530262
     23          1           0       -1.604393   -1.280926   -1.858501
     24          1           0        0.206334   -0.937781    2.014507
     25          1           0       -2.039138   -0.651783    3.031542
     26          1           0       -4.063888   -0.656525    1.600714
     27          1           0        0.731906   -1.160483   -1.699332
     28          1           0        0.972547   -3.108673    0.598951
     29          1           0        1.061257   -3.438966   -1.134161
     30          1           0        3.385609   -3.353991    0.285954
     31          1           0        3.332742   -2.457567   -1.243232
     32          1           0        2.890665   -1.325727    1.571873
     33          1           0        3.915978   -0.657321    0.301694
     34          1           0        1.519497    2.767386   -0.798157
     35          1           0       -0.244538    0.683964   -2.173897
     36          1           0        0.158320    2.310644   -2.684637
     37          1           0        1.412963    1.050352   -2.706510
     38          1           0       -1.024353    1.387381    0.090283
     39          1           0        0.769704    3.324395    1.651924
     40          1           0       -0.876246    2.831811    2.121730
     41          1           0        0.441639    1.649018    2.096539
     42          1           0       -1.870309    3.536528   -0.089959
     43          1           0       -0.421494    4.184858   -0.441830
 ---------------------------------------------------------------------

 SCF Done:  E(UB3LYP) =  -809.200516379     A.U. after   33 cycles
 SCF Done:  E(UB3LYP) =  -809.200516379     a.u. after    1 cycles

 The electronic state is 2-A.
 Alpha  occ. eigenvalues --  -18.98956 -14.24880 -14.20404 -10.17576 -10.13010
 Alpha  occ. eigenvalues --  -10.11174 -10.10849 -10.09644 -10.09487 -10.09008
 Alpha  occ. eigenvalues --  -10.08764 -10.08667 -10.08567 -10.08385 -10.08315
 Alpha  occ. eigenvalues --  -10.08248 -10.07597 -10.06683 -10.06380  -0.94363
 Alpha  occ. eigenvalues --   -0.85266  -0.80179  -0.77451  -0.71052  -0.69900
 Alpha  occ. eigenvalues --   -0.68364  -0.67490  -0.63252  -0.62915  -0.59797
 Alpha  occ. eigenvalues --   -0.56850  -0.54420  -0.51810  -0.51474  -0.50110
 Alpha  occ. eigenvalues --   -0.49840  -0.45001  -0.42809  -0.42075  -0.40353
 Alpha  occ. eigenvalues --   -0.38037  -0.37219  -0.36749  -0.36255  -0.35186
 Alpha  occ. eigenvalues --   -0.34149  -0.33518  -0.33180  -0.32723  -0.32462
 Alpha  occ. eigenvalues --   -0.31980  -0.31795  -0.31760  -0.30164  -0.29575
 Alpha  occ. eigenvalues --   -0.29329  -0.28336  -0.27351  -0.26982  -0.26645
 Alpha  occ. eigenvalues --   -0.25907  -0.25689  -0.24987  -0.24792  -0.24231
 Alpha  occ. eigenvalues --   -0.22967  -0.16890  -0.16191  -0.15686  -0.15592
 Alpha  occ. eigenvalues --   -0.14698   0.03928
 Alpha virt. eigenvalues --    0.05572   0.06358   0.06553   0.07015   0.07212
 Alpha virt. eigenvalues --    0.07665   0.07980   0.08283   0.08978   0.09366
 Alpha virt. eigenvalues --    0.10116   0.10276   0.10389   0.10612   0.10947

  Beta  occ. eigenvalues --  -18.98954 -14.24879 -14.20387 -10.17575 -10.13003
  Beta  occ. eigenvalues --  -10.11166 -10.10846 -10.09645 -10.09486 -10.09006
  Beta  occ. eigenvalues --  -10.08756 -10.08646 -10.08544 -10.08377 -10.08300
  Beta  occ. eigenvalues --  -10.08230 -10.07563 -10.06672 -10.06370  -0.94359
  Beta  occ. eigenvalues --   -0.85256  -0.80154  -0.77437  -0.71031  -0.69882
  Beta  occ. eigenvalues --   -0.68342  -0.67467  -0.63228  -0.62890  -0.59749
  Beta  occ. eigenvalues --   -0.56824  -0.54392  -0.51771  -0.51433  -0.50072
  Beta  occ. eigenvalues --   -0.49816  -0.44975  -0.42777  -0.42050  -0.40322
  Beta  occ. eigenvalues --   -0.38018  -0.37199  -0.36726  -0.36228  -0.35163
  Beta  occ. eigenvalues --   -0.34117  -0.33491  -0.33153  -0.32706  -0.32432
  Beta  occ. eigenvalues --   -0.31959  -0.31772  -0.31739  -0.30149  -0.29540
  Beta  occ. eigenvalues --   -0.29297  -0.28321  -0.27334  -0.26956  -0.26625
  Beta  occ. eigenvalues --   -0.25883  -0.25660  -0.24961  -0.24768  -0.24209
  Beta  occ. eigenvalues --   -0.22955  -0.16878  -0.16180  -0.15670  -0.15586
  Beta  occ. eigenvalues --   -0.14688
  Beta virt. eigenvalues --    0.05946   0.06447   0.06857   0.06890   0.07148
  Beta virt. eigenvalues --    0.07330   0.08114   0.08551   0.08621   0.09128
  Beta virt. eigenvalues --    0.09479   0.10447   0.10464   0.10749   0.10797

 Mulliken charges and spin densities:
               1          2
     1  C    3.240200  -3.879236
     2  C   -1.387798   1.358117
     3  C   -0.322340   0.232832
     4  C   -0.261853   1.054142
     5  C   -0.418528  -0.176087
     6  C    0.540128  -1.032359
     7  C   -0.594889   0.360294
     8  C    0.062299  -0.079654
     9  C   -0.308399  -0.239751
    10  C    1.120864  -1.497320
    11  C   -0.311917   0.164718
    12  N    0.096899   0.041529
    13  C   -0.353092  -0.126776
    14  O   -0.254093   0.000322
    15  C    0.410914   0.033605
    16  C   -0.336827  -0.212175
    17  C   -1.049604   0.578035
    18  C   -0.252945  -0.368776
    19  N   -0.149504  -0.042749
    20  H   -0.110070   0.283638
    21  H   -0.126717   0.289882
    22  H   -0.305789   0.454946
    23  H   -0.402926   0.605898
    24  H    0.150108   0.007996
    25  H   -0.309273   0.485744
    26  H   -0.695290   0.870205
    27  H   -0.032121   0.263952
    28  H    0.071834   0.087568
    29  H   -0.540650   0.732613
    30  H   -0.228083   0.411831
    31  H    0.027408   0.114256
    32  H    0.064779   0.091905
    33  H    0.138897   0.053299
    34  H    0.227777  -0.000945
    35  H    0.279267  -0.197666
    36  H    0.046712   0.131322
    37  H   -0.029705   0.188141
    38  H    0.936557  -0.607781
    39  H    0.099520   0.051621
    40  H   -0.037336   0.172524
    41  H    0.165005   0.026274
    42  H    0.001105   0.237091
    43  H    0.139479   0.076975
 Sum of Mulliken charges =  -1.00000   1.00000

 Dipole moment (field-independent basis, Debye):
    X=              3.6286    Y=              2.3697    Z=              0.9415  Tot=              4.4349
 Quadrupole moment (field-independent basis, Debye-Ang):
   XX=           -200.0787   YY=           -172.5683   ZZ=           -160.8820
   XY=             -0.7120   XZ=              0.0210   YZ=             -7.0580

 Summary of Natural Population Analysis:

                                       Natural Population
                Natural  -----------------------------------------------
    Atom  No    Charge         Core      Valence    Rydberg      Total
 -----------------------------------------------------------------------
      C    1   -0.29311      0.99963     2.28784    0.00564     3.29311
      C    2   -0.01029      0.99951     2.00087    0.00991     3.01029
      C    3   -0.10121      0.99945     2.09201    0.00975     3.10121
      C    4   -0.01956      0.99948     2.00710    0.01297     3.01956
      C    5   -0.10746      0.99950     2.09855    0.00941     3.10746
      C    6   -0.09343      0.99956     2.08352    0.01036     3.09343
      C    7   -0.10312      0.99951     2.09335    0.01027     3.10312
      C    8   -0.01150      0.99955     1.99734    0.01461     3.01150
      C    9   -0.18323      0.99961     2.17540    0.00821     3.18323
      C   10   -0.19526      0.99963     2.18785    0.00779     3.19526
      C   11   -0.08044      0.99962     2.07007    0.01075     3.08044
      N   12   -0.26067      0.99963     2.75078    0.01026     3.76067
      C   13    0.35635      0.99960     1.62132    0.02272     2.64365
      O   14   -0.33142      0.99988     3.32659    0.00495     4.33142
      C   15   -0.14610      0.99954     2.13566    0.01090     3.14610
      C   16   -0.28786      0.99964     2.28199    0.00622     3.28786
      C   17   -0.01912      0.99958     2.00795    0.01158     3.01912
      C   18   -0.29252      0.99965     2.28656    0.00632     3.29252
      N   19   -0.41983      0.99977     2.91003    0.01002     3.91983
      H   20    0.10646      0.00000     0.39239    0.00115     0.39354
      H   21    0.10559      0.00000     0.39328    0.00112     0.39441
      H   22    0.10401      0.00000     0.39471    0.00129     0.39599
      H   23    0.10197      0.00000     0.39614    0.00189     0.39803
      H   24    0.10352      0.00000     0.39461    0.00187     0.39648
      H   25    0.10164      0.00000     0.39743    0.00093     0.39836
      H   26    0.10298      0.00000     0.39551    0.00150     0.39702
      H   27    0.10398      0.00000     0.39380    0.00223     0.39602
      H   28    0.09969      0.00000     0.39884    0.00148     0.40031
      H   29    0.10855      0.00000     0.38985    0.00159     0.39145
      H   30    0.10370      0.00000     0.39531    0.00099     0.39630
      H   31    0.09849      0.00000     0.40020    0.00132     0.40151
      H   32    0.09111      0.00000     0.40780    0.00108     0.40889
      H   33    0.10861      0.00000     0.39036    0.00103     0.39139
      H   34    0.10639      0.00000     0.39196    0.00166     0.39361
      H   35    0.10041      0.00000     0.39822    0.00137     0.39959
      H   36    0.11052      0.00000     0.38849    0.00099     0.38948
      H   37    0.09745      0.00000     0.40166    0.00088     0.40255
      H   38    0.10033      0.00000     0.39633    0.00334     0.39967
      H   39    0.09876      0.00000     0.40037    0.00087     0.40124
      H   40    0.09751      0.00000     0.40141    0.00108     0.40249
      H   41    0.10433      0.00000     0.39484    0.00083     0.39567
      H   42    0.17611      0.00000     0.32240    0.00148     0.32389
      H   43    0.16767      0.00000     0.33082    0.00151     0.33233
 =======================================================================
   * Total *    0.00000     18.99235    51.78151    0.22614    71.00000

 Normal termination of Gaussian 16 at Sun Dec 13 15:07:12 2020.
