 Gaussian 16, Revision A.03,

 -----------------------------------------------------------
 # opt freq B3LYP/6-31G(d) empiricaldispersion=gd3bj scf=xqc
 -----------------------------------------------------------

 -------------------------------
 CID_116732496_JID_3082_neutraal
 -------------------------------
 Symbolic Z-matrix:
 Charge =  0 Multiplicity = 1

 SCF Done:  E(RB3LYP) =  -645.967903012     A.U. after   15 cycles
 SCF Done:  E(RB3LYP) =  -645.978980108     A.U. after   13 cycles
 SCF Done:  E(RB3LYP) =  -645.979521808     A.U. after   14 cycles
 SCF Done:  E(RB3LYP) =  -645.980571706     A.U. after   12 cycles
 SCF Done:  E(RB3LYP) =  -645.981340917     A.U. after   14 cycles
 SCF Done:  E(RB3LYP) =  -645.981381604     A.U. after   17 cycles
 SCF Done:  E(RB3LYP) =  -645.981900790     A.U. after   13 cycles
 SCF Done:  E(RB3LYP) =  -645.981831334     A.U. after   12 cycles
 SCF Done:  E(RB3LYP) =  -645.982092781     A.U. after   13 cycles
 SCF Done:  E(RB3LYP) =  -645.982103726     A.U. after   12 cycles
 SCF Done:  E(RB3LYP) =  -645.982108848     A.U. after   12 cycles
 SCF Done:  E(RB3LYP) =  -645.982110204     A.U. after    9 cycles
 SCF Done:  E(RB3LYP) =  -645.982110469     A.U. after    8 cycles
 SCF Done:  E(RB3LYP) =  -645.982110542     A.U. after    6 cycles
 Optimization completed.
    -- Stationary point found.
 Normal termination of Gaussian 16 at Wed Dec  9 22:23:54 2020.

 --------------------------------------------------------------------
 #N Geom=AllCheck Guess=TCheck SCRF=Check GenChk RB3LYP/6-31G(d) Freq
 --------------------------------------------------------------------

 Structure from the checkpoint file:  "JID_3082.chk"
 -------------------------------
 CID_116732496_JID_3082_neutraal
 -------------------------------
 Charge =  0 Multiplicity = 1

 SCF Done:  E(RB3LYP) =  -645.982110542     A.U. after    1 cycles

  Exact polarizability: 132.484  -1.296  83.202  -1.303   4.498  84.077
 Approx polarizability: 186.710   5.707 117.872   7.510  18.650 145.393

                      1                      2                      3
                      A                      A                      A
 Frequencies --     26.1274                59.5862               104.2877
 Red. masses --      6.0767                 5.5749                 2.6180
 Frc consts  --      0.0024                 0.0117                 0.0168
 IR Inten    --      1.8166                 2.0267                 3.0950

                      4                      5                      6
                      A                      A                      A
 Frequencies --    112.2829               132.2957               156.8248
 Red. masses --      3.3792                 4.0196                 1.9622
 Frc consts  --      0.0251                 0.0415                 0.0284
 IR Inten    --      3.1249                 1.6695                 1.7198

                      7                      8                      9
                      A                      A                      A
 Frequencies --    199.3287               217.4910               250.4868
 Red. masses --      1.6699                 3.1796                 3.4385
 Frc consts  --      0.0391                 0.0886                 0.1271
 IR Inten    --      4.4794                 2.1754                 6.3771

                     10                     11                     12
                      A                      A                      A
 Frequencies --    275.5464               311.4485               380.5478
 Red. masses --      3.2552                 3.0297                 4.4380
 Frc consts  --      0.1456                 0.1732                 0.3787
 IR Inten    --      3.0536                 0.5396                 1.1984

                     13                     14                     15
                      A                      A                      A
 Frequencies --    425.0144               494.2030               525.2411
 Red. masses --      6.2816                 4.5373                 4.1665
 Frc consts  --      0.6685                 0.6529                 0.6772
 IR Inten    --     11.4582                 1.8721                 0.4293

                     16                     17                     18
                      A                      A                      A
 Frequencies --    585.6103               668.7204               678.9701
 Red. masses --      5.9541                 2.9550                 3.2123
 Frc consts  --      1.2031                 0.7786                 0.8725
 IR Inten    --      6.8880                 0.6838                 1.5253

                     19                     20                     21
                      A                      A                      A
 Frequencies --    767.2523               774.5287               811.0170
 Red. masses --      4.5776                 4.4367                 1.2383
 Frc consts  --      1.5877                 1.5681                 0.4799
 IR Inten    --     63.9619                34.0193                 0.1374

                     22                     23                     24
                      A                      A                      A
 Frequencies --    832.9968               910.5821               931.5446
 Red. masses --      2.4456                 2.2527                12.8695
 Frc consts  --      0.9998                 1.1005                 6.5799
 IR Inten    --     29.2920                 3.2045                11.9515

                     25                     26                     27
                      A                      A                      A
 Frequencies --    942.4399               969.9377              1013.1017
 Red. masses --      2.5016                 2.9121                 1.7806
 Frc consts  --      1.3091                 1.6141                 1.0768
 IR Inten    --      1.6025                 3.4936                 0.2752

                     28                     29                     30
                      A                      A                      A
 Frequencies --   1013.5296              1036.5367              1060.5388
 Red. masses --      8.4199                 8.8575                 1.3201
 Frc consts  --      5.0960                 5.6070                 0.8748
 IR Inten    --      3.1946                 4.2117                 9.2363

                     31                     32                     33
                      A                      A                      A
 Frequencies --   1079.2337              1093.5477              1171.8891
 Red. masses --      3.1907                 4.3093                 4.1120
 Frc consts  --      2.1896                 3.0362                 3.3272
 IR Inten    --     29.4787                16.9036                69.4099

                     34                     35                     36
                      A                      A                      A
 Frequencies --   1192.5028              1196.6832              1219.6489
 Red. masses --      1.3046                 2.1369                 1.5291
 Frc consts  --      1.0931                 1.8030                 1.3402
 IR Inten    --      4.4168                56.1386                25.7467

                     37                     38                     39
                      A                      A                      A
 Frequencies --   1240.5335              1264.2523              1270.2004
 Red. masses --      1.5043                 1.3846                 1.6113
 Frc consts  --      1.3639                 1.3039                 1.5317
 IR Inten    --      9.2929                20.9440                46.5043

                     40                     41                     42
                      A                      A                      A
 Frequencies --   1293.3785              1306.1921              1329.9662
 Red. masses --      1.4205                 1.7149                 7.3550
 Frc consts  --      1.4000                 1.7238                 7.6650
 IR Inten    --      0.4145                28.9194                28.1031

                     43                     44                     45
                      A                      A                      A
 Frequencies --   1383.7026              1401.0076              1497.3758
 Red. masses --      8.0182                 1.2345                 1.0971
 Frc consts  --      9.0451                 1.4276                 1.4494
 IR Inten    --      6.2811                 2.8644                 6.8439

                     46                     47                     48
                      A                      A                      A
 Frequencies --   1502.1731              1511.2092              1519.4186
 Red. masses --      1.1404                 1.3243                 1.1614
 Frc consts  --      1.5162                 1.7819                 1.5797
 IR Inten    --      0.9247                 1.8177                 0.9511

                     49                     50                     51
                      A                      A                      A
 Frequencies --   1523.7622              1534.1942              1537.4531
 Red. masses --      2.2695                 1.0553                 1.2397
 Frc consts  --      3.1047                 1.4635                 1.7265
 IR Inten    --     19.0331                 8.3715                 9.3317

                     52                     53                     54
                      A                      A                      A
 Frequencies --   1604.9821              1817.4266              3001.5706
 Red. masses --      9.7871                10.1284                 1.0883
 Frc consts  --     14.8541                19.7108                 5.7771
 IR Inten    --     34.0348               187.8294                60.3173

                     55                     56                     57
                      A                      A                      A
 Frequencies --   3017.8869              3070.1584              3089.3231
 Red. masses --      1.0352                 1.1052                 1.0585
 Frc consts  --      5.5548                 6.1377                 5.9523
 IR Inten    --     42.1713                47.4114                28.0528

                     58                     59                     60
                      A                      A                      A
 Frequencies --   3090.7058              3094.0349              3136.1781
 Red. masses --      1.0583                 1.0622                 1.1088
 Frc consts  --      5.9562                 5.9912                 6.4253
 IR Inten    --     33.3955                 4.8318                11.5125

                     61                     62                     63
                      A                      A                      A
 Frequencies --   3151.3615              3151.8801              3158.9350
 Red. masses --      1.1072                 1.1004                 1.1078
 Frc consts  --      6.4784                 6.4409                 6.5130
 IR Inten    --     25.2122                19.0131                29.2871

 - Thermochemistry -
 -------------------
 Temperature   298.150 Kelvin.  Pressure   1.00000 Atm.
 Atom     1 has atomic number  6 and mass  12.00000

 Molecular mass:   182.06914 amu.
 Principal axes and moments of inertia in atomic units:
                           1         2         3
     Eigenvalues --  1102.066323695.639144048.10278
           X            0.99991  -0.01031  -0.00868
           Y            0.00974   0.99795  -0.06326
           Z            0.00931   0.06317   0.99796
 This molecule is an asymmetric top.
 Rotational symmetry number  1.
 Warning -- assumption of classical behavior for rotation
           may cause significant error
 Rotational temperatures (Kelvin)      0.07859     0.02344     0.02140
 Rotational constants (GHZ):           1.63760     0.48834     0.44582
 Zero-point vibrational energy     473247.4 (Joules/Mol)
                                  113.10884 (Kcal/Mol)
 Warning -- explicit consideration of  16 degrees of freedom as
           vibrations may cause significant error
 Vibrational temperatures:     37.59    85.73   150.05   161.55   190.34
          (Kelvin)            225.64   286.79   312.92   360.39   396.45
                              448.10   547.52   611.50   711.05   755.70
                              842.56   962.14   976.89  1103.90  1114.37
                             1166.87  1198.50  1310.12  1340.28  1355.96
                             1395.52  1457.63  1458.24  1491.35  1525.88
                             1552.78  1573.37  1686.09  1715.75  1721.76
                             1754.80  1784.85  1818.98  1827.54  1860.88
                             1879.32  1913.52  1990.84  2015.74  2154.39
                             2161.29  2174.29  2186.10  2192.35  2207.36
                             2212.05  2309.21  2614.87  4318.59  4342.07
                             4417.27  4444.85  4446.84  4451.63  4512.26
                             4534.11  4534.85  4545.00

 Zero-point correction=                           0.180250 (Hartree/Particle)
 Thermal correction to Energy=                    0.192314
 Thermal correction to Enthalpy=                  0.193258
 Thermal correction to Gibbs Free Energy=         0.140654
 Sum of electronic and zero-point Energies=           -645.801860
 Sum of electronic and thermal Energies=              -645.789797
 Sum of electronic and thermal Enthalpies=            -645.788853
 Sum of electronic and thermal Free Energies=         -645.841457

                     E (Thermal)             CV                S
                      KCal/Mol        Cal/Mol-Kelvin    Cal/Mol-Kelvin
 Total                  120.679             43.571            110.715
 Electronic               0.000              0.000              0.000
 Translational            0.889              2.981             41.504
 Rotational               0.889              2.981             31.178
 Vibrational            118.901             37.609             38.032
 Vibration     1          0.593              1.985              6.104
 Vibration     2          0.597              1.974              4.471
 Vibration     3          0.605              1.946              3.373
 Vibration     4          0.607              1.939              3.229
 Vibration     5          0.612              1.921              2.912
 Vibration     6          0.620              1.895              2.588
 Vibration     7          0.637              1.841              2.139
 Vibration     8          0.646              1.814              1.980
 Vibration     9          0.663              1.762              1.727
 Vibration    10          0.677              1.719              1.561
 Vibration    11          0.700              1.652              1.355
 Vibration    12          0.750              1.512              1.037
 Vibration    13          0.787              1.416              0.875
 Vibration    14          0.850              1.263              0.673
 Vibration    15          0.880              1.194              0.598
 Vibration    16          0.943              1.062              0.475

 Optimization completed.
    -- Stationary point found.
 Normal termination of Gaussian 16 at Wed Dec  9 22:29:18 2020.

 ----------------------------------------------------------------------
 # B3LYP/6-311++G(d,p) empiricaldispersion=gd3bj scf=xqc pop=npa geom=c
 heck
 ----------------------------------------------------------------------

 ---------------------------------------
 CID_116732496_JID_3082_Energie_neutraal
 ---------------------------------------
 Structure from the checkpoint file:  "JID_3082.chk"
 Charge =  0 Multiplicity = 1

 SCF Done:  E(RB3LYP) =  -646.161519942     A.U. after   16 cycles
 Normal termination of Gaussian 16 at Wed Dec  9 22:31:42 2020.

 ----------------------------------------------------------------------
 # B3LYP/6-311++G(d,p) empiricaldispersion=gd3bj scf=xqc pop=npa geom=c
 heck
 ----------------------------------------------------------------------

 -------------------------------------
 CID_116732496_JID_3082_Energie_kation
 -------------------------------------
 Structure from the checkpoint file:  "JID_3082.chk"
 Charge =  1 Multiplicity = 2

 SCF Done:  E(UB3LYP) =  -645.809535342     A.U. after   26 cycles
 Normal termination of Gaussian 16 at Wed Dec  9 22:36:59 2020.
 Gaussian 16:  ES64L-G16RevA.03 25-Dec-2016

 ----------------------------------------------------------------------
 # B3LYP/6-311++G(d,p) empiricaldispersion=gd3bj scf=xqc pop=npa geom=c
 heck
 ----------------------------------------------------------------------

 ------------------------------------
 CID_116732496_JID_3082_Energie_anion
 ------------------------------------
 Structure from the checkpoint file:  "JID_3082.chk"
 Charge = -1 Multiplicity = 2

                         Standard orientation:
 ---------------------------------------------------------------------
 Center     Atomic      Atomic             Coordinates (Angstroms)
 Number     Number       Type             X           Y           Z
 ---------------------------------------------------------------------
      1          6           0        1.593012    2.368024   -0.493790
      2          8           0        1.796788    1.437359    0.558483
      3          6           0        1.522338    0.101658    0.205829
      4          6           0        2.453368   -0.599023   -0.827317
      5          6           0        2.522651   -1.818090    0.129909
      6          6           0        2.010086   -0.907763    1.275734
      7          6           0        0.055293   -0.072872   -0.092174
      8          7           0       -0.404429   -0.599273   -1.205518
      9          8           0       -1.794060   -0.573331   -1.046449
     10          6           0       -2.019032   -0.019929    0.157565
     11          7           0       -0.931461    0.307999    0.795052
     12          6           0       -3.407217    0.165984    0.648627
     13          8           0       -4.387946   -0.156943    0.018960
     14          1           0        1.904860    3.341610   -0.110348
     15          1           0        0.537060    2.423982   -0.793452
     16          1           0        2.196389    2.117446   -1.377545
     17          1           0        2.071154   -0.756639   -1.837479
     18          1           0        3.404229   -0.060118   -0.867954
     19          1           0        3.498613   -2.288869    0.268616
     20          1           0        1.794843   -2.587321   -0.142863
     21          1           0        2.826981   -0.446814    1.837317
     22          1           0        1.264480   -1.300126    1.971757
     23          1           0       -3.448618    0.631150    1.650971
 ---------------------------------------------------------------------

 SCF Done:  E(UB3LYP) =  -646.204391228     A.U. after   25 cycles

 The electronic state is 2-A.
 Alpha  occ. eigenvalues --  -19.03895 -19.02027 -18.91657 -14.20087 -14.14611
 Alpha  occ. eigenvalues --  -10.12444 -10.10903 -10.08277 -10.08210 -10.07006
 Alpha  occ. eigenvalues --  -10.06398 -10.06345 -10.05441  -0.99704  -0.93542
 Alpha  occ. eigenvalues --   -0.85917  -0.77576  -0.74255  -0.70170  -0.60574
 Alpha  occ. eigenvalues --   -0.56175  -0.54044  -0.51064  -0.48730  -0.43981
 Alpha  occ. eigenvalues --   -0.40971  -0.39930  -0.36986  -0.35110  -0.34625
 Alpha  occ. eigenvalues --   -0.33100  -0.32555  -0.30579  -0.29113  -0.27123
 Alpha  occ. eigenvalues --   -0.26748  -0.24857  -0.23998  -0.22944  -0.22544
 Alpha  occ. eigenvalues --   -0.22344  -0.20017  -0.18356  -0.17235  -0.15382
 Alpha  occ. eigenvalues --   -0.13859  -0.13754  -0.08162   0.03217
 Alpha virt. eigenvalues --    0.07450   0.08518   0.10041   0.10535   0.11445
 Alpha virt. eigenvalues --    0.12043   0.12665   0.13219   0.14048   0.14769
 Alpha virt. eigenvalues --    0.14900   0.16480   0.16835   0.17540   0.18079

  Beta  occ. eigenvalues --  -19.03529 -19.02028 -18.90877 -14.19740 -14.14380
  Beta  occ. eigenvalues --  -10.12442 -10.10903 -10.08343 -10.07983 -10.07005
  Beta  occ. eigenvalues --  -10.06399 -10.06347 -10.05125  -0.99131  -0.93542
  Beta  occ. eigenvalues --   -0.84531  -0.77163  -0.74133  -0.69619  -0.60563
  Beta  occ. eigenvalues --   -0.56154  -0.54000  -0.49774  -0.48675  -0.43663
  Beta  occ. eigenvalues --   -0.40821  -0.39847  -0.36769  -0.35055  -0.34429
  Beta  occ. eigenvalues --   -0.32792  -0.31306  -0.30317  -0.29006  -0.26779
  Beta  occ. eigenvalues --   -0.26603  -0.24165  -0.23906  -0.22849  -0.22517
  Beta  occ. eigenvalues --   -0.19965  -0.18782  -0.17874  -0.15986  -0.15116
  Beta  occ. eigenvalues --   -0.13484  -0.11505  -0.07433
  Beta virt. eigenvalues --    0.07438   0.08492   0.10025   0.10510   0.11165
  Beta virt. eigenvalues --    0.11429   0.12263   0.12665   0.13238   0.14063
  Beta virt. eigenvalues --    0.14828   0.15549   0.16759   0.16979   0.17586

 Mulliken charges and spin densities:
               1          2
     1  C   -0.276166   0.001486
     2  O   -0.063354   0.005993
     3  C    0.413595  -0.005563
     4  C   -0.344921  -0.000399
     5  C   -0.446654   0.005953
     6  C   -0.295397   0.003832
     7  C   -0.240709  -0.075315
     8  N   -0.421735   0.176810
     9  O    0.178499   0.078594
    10  C    0.044690   0.175938
    11  N   -0.046184   0.092179
    12  C   -0.418841   0.300311
    13  O   -0.387807   0.255742
    14  H    0.138082   0.000002
    15  H    0.179649   0.003568
    16  H    0.109190  -0.000341
    17  H    0.190919  -0.000859
    18  H    0.113470  -0.000183
    19  H    0.109234   0.005274
    20  H    0.144315  -0.000681
    21  H    0.141931   0.000327
    22  H    0.156211   0.001120
    23  H    0.021983  -0.023790
 Sum of Mulliken charges =  -1.00000   1.00000

 Dipole moment (field-independent basis, Debye):
    X=             10.7824    Y=              0.7192    Z=              0.0935  Tot=             10.8068
 Quadrupole moment (field-independent basis, Debye-Ang):
   XX=           -131.6088   YY=            -81.7762   ZZ=            -88.7585
   XY=             -3.1956   XZ=             -3.6811   YZ=             -5.9183

 Summary of Natural Population Analysis:

                                       Natural Population
                Natural  -----------------------------------------------
    Atom  No    Charge         Core      Valence    Rydberg      Total
 -----------------------------------------------------------------------
      C    1   -0.10176      0.99961     2.09389    0.00827     3.10176
      O    2   -0.29656      0.99986     3.28633    0.01037     4.29656
      C    3    0.12128      0.99943     1.85833    0.02096     2.87872
      C    4   -0.19984      0.99962     2.19292    0.00730     3.19984
      C    5   -0.19410      0.99966     2.18850    0.00595     3.19410
      C    6   -0.18435      0.99961     2.17746    0.00728     3.18435
      C    7    0.12393      0.99957     1.85596    0.02053     2.87607
      N    8   -0.06054      0.99965     2.54641    0.01448     3.56054
      O    9   -0.13054      0.99985     3.12051    0.01017     4.13054
      C   10    0.27131      0.99961     1.71047    0.01861     2.72869
      N   11   -0.24538      0.99967     2.73495    0.01076     3.74538
      C   12    0.21104      0.99971     1.76852    0.02073     2.78896
      O   13   -0.20001      0.99988     3.19167    0.00846     4.20001
      H   14    0.08477      0.00000     0.41440    0.00083     0.41523
      H   15    0.08970      0.00000     0.40903    0.00128     0.41030
      H   16    0.07529      0.00000     0.42331    0.00140     0.42471
      H   17    0.10993      0.00000     0.38904    0.00103     0.39007
      H   18    0.09429      0.00000     0.40451    0.00120     0.40571
      H   19    0.08959      0.00000     0.40936    0.00105     0.41041
      H   20    0.10212      0.00000     0.39675    0.00113     0.39788
      H   21    0.09761      0.00000     0.40119    0.00120     0.40239
      H   22    0.10520      0.00000     0.39390    0.00090     0.39480
      H   23    0.03701      0.00000     0.46022    0.00277     0.46299
 =======================================================================
   * Total *   -0.00000     12.99572    34.82762    0.17666    48.00000

 Normal termination of Gaussian 16 at Wed Dec  9 22:42:15 2020.
