 Gaussian 16, Revision A.03,

 -----------------------------------------------------------
 # opt freq B3LYP/6-31G(d) empiricaldispersion=gd3bj scf=xqc
 -----------------------------------------------------------

 -------------------------------
 CID_152246934_JID_2466_neutraal
 -------------------------------
 Symbolic Z-matrix:
 Charge =  0 Multiplicity = 1

 SCF Done:  E(RB3LYP) =  -586.595189151     A.U. after   15 cycles
 SCF Done:  E(RB3LYP) =  -586.599024456     A.U. after   15 cycles
 SCF Done:  E(RB3LYP) =  -586.600028390     A.U. after   13 cycles
 SCF Done:  E(RB3LYP) =  -586.600816251     A.U. after   12 cycles
 SCF Done:  E(RB3LYP) =  -586.601094734     A.U. after   12 cycles
 SCF Done:  E(RB3LYP) =  -586.601243903     A.U. after   13 cycles
 SCF Done:  E(RB3LYP) =  -586.601320699     A.U. after   13 cycles
 SCF Done:  E(RB3LYP) =  -586.601404462     A.U. after   12 cycles
 SCF Done:  E(RB3LYP) =  -586.601494805     A.U. after   12 cycles
 SCF Done:  E(RB3LYP) =  -586.601515692     A.U. after   10 cycles
 SCF Done:  E(RB3LYP) =  -586.601521448     A.U. after   10 cycles
 SCF Done:  E(RB3LYP) =  -586.601523060     A.U. after    8 cycles
 SCF Done:  E(RB3LYP) =  -586.601523310     A.U. after    8 cycles
 SCF Done:  E(RB3LYP) =  -586.601523339     A.U. after    7 cycles
 SCF Done:  E(RB3LYP) =  -586.601523340     A.U. after    7 cycles
 Optimization completed.
    -- Stationary point found.
 Normal termination of Gaussian 16 at Wed Dec  9 17:27:09 2020.

 --------------------------------------------------------------------
 #N Geom=AllCheck Guess=TCheck SCRF=Check GenChk RB3LYP/6-31G(d) Freq
 --------------------------------------------------------------------

 Structure from the checkpoint file:  "JID_2466.chk"
 -------------------------------
 CID_152246934_JID_2466_neutraal
 -------------------------------
 Charge =  0 Multiplicity = 1

 SCF Done:  E(RB3LYP) =  -586.601523340     A.U. after    1 cycles

  Exact polarizability: 115.918 -15.556 102.797   0.398  -0.498  81.277
 Approx polarizability: 144.331 -36.772 188.836  -0.329   3.230 121.623

                      1                      2                      3
                      A                      A                      A
 Frequencies --     30.8521                37.9577                56.6661
 Red. masses --      8.4567                 5.2871                 4.5461
 Frc consts  --      0.0047                 0.0045                 0.0086
 IR Inten    --      0.1225                 0.2813                 0.7263

                      4                      5                      6
                      A                      A                      A
 Frequencies --     95.4773               132.6235               137.4980
 Red. masses --      3.6168                 3.6073                 4.3744
 Frc consts  --      0.0194                 0.0374                 0.0487
 IR Inten    --      4.7330                 1.9589                 2.3968

                      7                      8                      9
                      A                      A                      A
 Frequencies --    180.0477               218.7657               263.2818
 Red. masses --      6.2715                 2.9774                 3.6577
 Frc consts  --      0.1198                 0.0840                 0.1494
 IR Inten    --      0.9677                 2.0222                 4.5309

                     10                     11                     12
                      A                      A                      A
 Frequencies --    270.5550               282.9759               310.2296
 Red. masses --      1.1209                 2.4528                 1.6094
 Frc consts  --      0.0483                 0.1157                 0.0913
 IR Inten    --     43.5441                 7.4484                17.3575

                     13                     14                     15
                      A                      A                      A
 Frequencies --    329.2511               377.1030               408.9415
 Red. masses --      1.7926                 2.1139                 2.4670
 Frc consts  --      0.1145                 0.1771                 0.2431
 IR Inten    --      3.0056                 4.8941                 4.1883

                     16                     17                     18
                      A                      A                      A
 Frequencies --    442.5470               489.7947               563.1275
 Red. masses --      2.3932                 2.6553                 1.1172
 Frc consts  --      0.2761                 0.3753                 0.2087
 IR Inten    --      8.3143                 2.1260               124.8097

                     19                     20                     21
                      A                      A                      A
 Frequencies --    578.5049               631.5585               650.0566
 Red. masses --     12.9690                 2.5182                 2.6161
 Frc consts  --      2.5572                 0.5918                 0.6513
 IR Inten    --     13.4786                 5.9660                31.8922

                     22                     23                     24
                      A                      A                      A
 Frequencies --    676.6094               775.5804               803.7853
 Red. masses --      5.1703                 3.0128                 2.1276
 Frc consts  --      1.3946                 1.0678                 0.8099
 IR Inten    --     18.0106                 0.3951                 1.4133

                     25                     26                     27
                      A                      A                      A
 Frequencies --    837.1129               852.5700               874.6792
 Red. masses --      1.5264                 1.9766                 1.8592
 Frc consts  --      0.6302                 0.8465                 0.8381
 IR Inten    --    210.5897                51.2095                36.6470

                     28                     29                     30
                      A                      A                      A
 Frequencies --    928.5780               947.6446               962.1600
 Red. masses --      2.0213                 2.1635                 1.8597
 Frc consts  --      1.0269                 1.1447                 1.0144
 IR Inten    --      1.4499                25.9636                41.4544

                     31                     32                     33
                      A                      A                      A
 Frequencies --   1000.4600              1039.9954              1048.1835
 Red. masses --      1.8203                 2.2378                 2.5545
 Frc consts  --      1.0735                 1.4260                 1.6536
 IR Inten    --     16.4599                15.7174                 5.7321

                     34                     35                     36
                      A                      A                      A
 Frequencies --   1070.7910              1089.4452              1117.2211
 Red. masses --      1.9516                 1.9689                 1.5883
 Frc consts  --      1.3184                 1.3769                 1.1681
 IR Inten    --      6.3356                87.7570                 4.9319

                     37                     38                     39
                      A                      A                      A
 Frequencies --   1136.3990              1183.8697              1204.6410
 Red. masses --      2.5587                 1.4247                 1.5266
 Frc consts  --      1.9468                 1.1765                 1.3052
 IR Inten    --      4.4028                 5.5302                18.0916

                     40                     41                     42
                      A                      A                      A
 Frequencies --   1245.5434              1270.4485              1285.8694
 Red. masses --      1.2447                 1.3690                 1.2901
 Frc consts  --      1.1377                 1.3018                 1.2568
 IR Inten    --     12.7276                43.2458                11.3064

                     43                     44                     45
                      A                      A                      A
 Frequencies --   1300.7244              1335.4722              1348.2681
 Red. masses --      1.5242                 3.0964                 1.3417
 Frc consts  --      1.5194                 3.2537                 1.4371
 IR Inten    --     12.2943               144.8704                 1.9743

                     46                     47                     48
                      A                      A                      A
 Frequencies --   1356.4571              1373.7465              1397.3339
 Red. masses --      1.2738                 1.3718                 1.3304
 Frc consts  --      1.3809                 1.5253                 1.5305
 IR Inten    --      7.9710                 5.3351                 0.8666

                     49                     50                     51
                      A                      A                      A
 Frequencies --   1411.8028              1422.6263              1435.7039
 Red. masses --      1.4339                 1.4001                 1.3454
 Frc consts  --      1.6839                 1.6695                 1.6339
 IR Inten    --      5.5934                 0.7628                11.1499

                     52                     53                     54
                      A                      A                      A
 Frequencies --   1448.3044              1465.4116              1508.2438
 Red. masses --      1.3410                 1.2934                 1.0903
 Frc consts  --      1.6573                 1.6365                 1.4614
 IR Inten    --      7.8205                74.3218                 4.4582

                     55                     56                     57
                      A                      A                      A
 Frequencies --   1514.8433              1522.0354              1533.2870
 Red. masses --      1.0883                 1.0911                 1.0865
 Frc consts  --      1.4714                 1.4893                 1.5050
 IR Inten    --      3.4308                 8.4461                10.2268

                     58                     59                     60
                      A                      A                      A
 Frequencies --   1687.8078              1693.7734              2254.4938
 Red. masses --      1.0950                 1.0892                13.6062
 Frc consts  --      1.8378                 1.8410                40.7462
 IR Inten    --     32.3432                24.4139               482.9360

                     61                     62                     63
                      A                      A                      A
 Frequencies --   2985.7820              3031.1266              3035.6862
 Red. masses --      1.0721                 1.0642                 1.0637
 Frc consts  --      5.6312                 5.7608                 5.7754
 IR Inten    --     87.4524                 9.1653                27.7490

                     64                     65                     66
                      A                      A                      A
 Frequencies --   3050.0083              3056.9964              3066.2019
 Red. masses --      1.0700                 1.0857                 1.0878
 Frc consts  --      5.8644                 5.9777                 6.0257
 IR Inten    --     38.5110                16.0601                19.3317

                     67                     68                     69
                      A                      A                      A
 Frequencies --   3077.7852              3083.9021              3099.3664
 Red. masses --      1.0995                 1.0974                 1.0901
 Frc consts  --      6.1367                 6.1492                 6.1699
 IR Inten    --     34.9238                62.1676                31.5397

                     70                     71                     72
                      A                      A                      A
 Frequencies --   3164.9367              3481.0799              3489.2445
 Red. masses --      1.0949                 1.0484                 1.0499
 Frc consts  --      6.4620                 7.4854                 7.5308
 IR Inten    --      5.6083                 2.6752                 0.8845

                     73                     74                     75
                      A                      A                      A
 Frequencies --   3572.7347              3576.4617              3641.6866
 Red. masses --      1.0932                 1.0931                 1.0648
 Frc consts  --      8.2214                 8.2376                 8.3201
 IR Inten    --      0.6095                 1.4945                48.1709

 - Thermochemistry -
 -------------------
 Temperature   298.150 Kelvin.  Pressure   1.00000 Atm.
 Atom     1 has atomic number  6 and mass  12.00000

 Molecular mass:   173.12766 amu.
 Principal axes and moments of inertia in atomic units:
                           1         2         3
     Eigenvalues --  1008.605834462.774424999.63640
           X            0.99999  -0.00104  -0.00338
           Y            0.00102   0.99998  -0.00656
           Z            0.00339   0.00656   0.99997
 This molecule is an asymmetric top.
 Rotational symmetry number  1.
 Warning -- assumption of classical behavior for rotation
           may cause significant error
 Rotational temperatures (Kelvin)      0.08587     0.01941     0.01732
 Rotational constants (GHZ):           1.78934     0.40440     0.36097
 Zero-point vibrational energy     617648.3 (Joules/Mol)
                                  147.62149 (Kcal/Mol)
 Warning -- explicit consideration of  19 degrees of freedom as
           vibrations may cause significant error
 Vibrational temperatures:     44.39    54.61    81.53   137.37   190.82
          (Kelvin)            197.83   259.05   314.76   378.80   389.27
                              407.14   446.35   473.72   542.57   588.38
                              636.73   704.71   810.21   832.34   908.67
                              935.29   973.49  1115.89  1156.47  1204.42
                             1226.66  1258.47  1336.02  1363.45  1384.33
                             1439.44  1496.32  1508.10  1540.63  1567.47
                             1607.43  1635.02  1703.32  1733.21  1792.06
                             1827.89  1850.08  1871.45  1921.45  1939.86
                             1951.64  1976.51  2010.45  2031.27  2046.84
                             2065.66  2083.79  2108.40  2170.03  2179.52
                             2189.87  2206.06  2428.38  2436.96  3243.71
                             4295.87  4361.12  4367.68  4388.28  4398.34
                             4411.58  4428.25  4437.05  4459.30  4553.64
                             5008.50  5020.24  5140.37  5145.73  5239.57

 Zero-point correction=                           0.235250 (Hartree/Particle)
 Thermal correction to Energy=                    0.248768
 Thermal correction to Enthalpy=                  0.249712
 Thermal correction to Gibbs Free Energy=         0.193966
 Sum of electronic and zero-point Energies=           -586.366274
 Sum of electronic and thermal Energies=              -586.352756
 Sum of electronic and thermal Enthalpies=            -586.351812
 Sum of electronic and thermal Free Energies=         -586.407557

                     E (Thermal)             CV                S
                      KCal/Mol        Cal/Mol-Kelvin    Cal/Mol-Kelvin
 Total                  156.104             49.386            117.327
 Electronic               0.000              0.000              0.000
 Translational            0.889              2.981             41.354
 Rotational               0.889              2.981             31.487
 Vibrational            154.327             43.424             44.486
 Vibration     1          0.594              1.984              5.774
 Vibration     2          0.594              1.982              5.363
 Vibration     3          0.596              1.975              4.570
 Vibration     4          0.603              1.952              3.545
 Vibration     5          0.613              1.921              2.908
 Vibration     6          0.614              1.916              2.838
 Vibration     7          0.629              1.867              2.328
 Vibration     8          0.647              1.812              1.969
 Vibration     9          0.670              1.740              1.640
 Vibration    10          0.674              1.727              1.593
 Vibration    11          0.682              1.705              1.516
 Vibration    12          0.699              1.654              1.361
 Vibration    13          0.712              1.617              1.264
 Vibration    14          0.748              1.519              1.051
 Vibration    15          0.773              1.451              0.930
 Vibration    16          0.802              1.377              0.819
 Vibration    17          0.846              1.273              0.684
 Vibration    18          0.919              1.111              0.518
 Vibration    19          0.935              1.078              0.488

 Optimization completed.
    -- Stationary point found.
 Normal termination of Gaussian 16 at Wed Dec  9 17:33:18 2020.

 ----------------------------------------------------------------------
 # B3LYP/6-311++G(d,p) empiricaldispersion=gd3bj scf=xqc pop=npa geom=c
 heck
 ----------------------------------------------------------------------

 ---------------------------------------
 CID_152246934_JID_2466_Energie_neutraal
 ---------------------------------------
 Structure from the checkpoint file:  "JID_2466.chk"
 Charge =  0 Multiplicity = 1

 SCF Done:  E(RB3LYP) =  -586.794675455     A.U. after   15 cycles
 Normal termination of Gaussian 16 at Wed Dec  9 17:35:51 2020.

 ----------------------------------------------------------------------
 # B3LYP/6-311++G(d,p) empiricaldispersion=gd3bj scf=xqc pop=npa geom=c
 heck
 ----------------------------------------------------------------------

 -------------------------------------
 CID_152246934_JID_2466_Energie_kation
 -------------------------------------
 Structure from the checkpoint file:  "JID_2466.chk"
 Charge =  1 Multiplicity = 2

 SCF Done:  E(UB3LYP) =  -586.472812538     A.U. after   29 cycles
 Normal termination of Gaussian 16 at Wed Dec  9 17:43:49 2020.
 Gaussian 16:  ES64L-G16RevA.03 25-Dec-2016

 ----------------------------------------------------------------------
 # B3LYP/6-311++G(d,p) empiricaldispersion=gd3bj scf=xqc pop=npa geom=c
 heck
 ----------------------------------------------------------------------

 ------------------------------------
 CID_152246934_JID_2466_Energie_anion
 ------------------------------------
 Structure from the checkpoint file:  "JID_2466.chk"
 Charge = -1 Multiplicity = 2

                         Standard orientation:
 ---------------------------------------------------------------------
 Center     Atomic      Atomic             Coordinates (Angstroms)
 Number     Number       Type             X           Y           Z
 ---------------------------------------------------------------------
      1          6           0       -0.936707   -0.197504    0.715779
      2          6           0       -2.238115   -0.999244    0.782933
      3          7           0       -3.216592   -0.594059   -0.258808
      4          7           0       -3.687035    0.539336   -0.126150
      5          7           0       -4.193397    1.564606   -0.109249
      6          6           0       -0.155178   -0.441572   -0.584237
      7          6           0        0.956887    0.605785   -0.815464
      8          6           0        1.920957    0.939153    0.339952
      9          6           0        2.738015   -0.243155    0.879031
     10          7           0        3.602291   -0.752712   -0.193707
     11          8           0        2.828415    1.947341   -0.087977
     12          7           0        0.253465   -1.855732   -0.630937
     13          1           0       -0.320510   -0.476108    1.581713
     14          1           0       -1.153685    0.873716    0.821392
     15          1           0       -2.030438   -2.050048    0.581023
     16          1           0       -2.697722   -0.911879    1.776060
     17          1           0       -0.867656   -0.324096   -1.409813
     18          1           0        1.552593    0.297857   -1.686279
     19          1           0        0.489172    1.556816   -1.098950
     20          1           0        1.352843    1.372187    1.171297
     21          1           0        3.386909    0.144961    1.670611
     22          1           0        2.085188   -1.000789    1.343085
     23          1           0        4.358809   -1.315790    0.185852
     24          1           0        3.070797   -1.351856   -0.821805
     25          1           0        3.512566    1.453639   -0.579566
     26          1           0        0.618919   -2.088562   -1.551855
     27          1           0        0.988612   -2.049627    0.045043
 ---------------------------------------------------------------------

 SCF Done:  E(UB3LYP) =  -586.790711412     A.U. after   31 cycles

 The electronic state is 2-A.
 Alpha  occ. eigenvalues --  -19.01119 -14.35938 -14.26007 -14.24491 -14.19600
 Alpha  occ. eigenvalues --  -14.18829 -10.11763 -10.10717 -10.09970 -10.09344
 Alpha  occ. eigenvalues --  -10.07454 -10.06245  -1.02430  -0.91923  -0.86637
 Alpha  occ. eigenvalues --   -0.79063  -0.77977  -0.68486  -0.65661  -0.60017
 Alpha  occ. eigenvalues --   -0.56457  -0.51126  -0.47191  -0.42254  -0.41671
 Alpha  occ. eigenvalues --   -0.40708  -0.40496  -0.38699  -0.37739  -0.36614
 Alpha  occ. eigenvalues --   -0.34715  -0.34501  -0.33256  -0.32703  -0.31769
 Alpha  occ. eigenvalues --   -0.29826  -0.29041  -0.27156  -0.26133  -0.24256
 Alpha  occ. eigenvalues --   -0.23779  -0.22102  -0.19131  -0.17563  -0.15310
 Alpha  occ. eigenvalues --   -0.14553  -0.14022   0.04152
 Alpha virt. eigenvalues --    0.05946   0.07426   0.08129   0.08984   0.09666
 Alpha virt. eigenvalues --    0.10558   0.10935   0.11184   0.11334   0.11725
 Alpha virt. eigenvalues --    0.13120   0.13678   0.14266   0.14601   0.15033

  Beta  occ. eigenvalues --  -19.01111 -14.35767 -14.25764 -14.24525 -14.19525
  Beta  occ. eigenvalues --  -14.18777 -10.11763 -10.10659 -10.09961 -10.09316
  Beta  occ. eigenvalues --  -10.07444 -10.06233  -1.02090  -0.91904  -0.86466
  Beta  occ. eigenvalues --   -0.78982  -0.77869  -0.68403  -0.65600  -0.59915
  Beta  occ. eigenvalues --   -0.56343  -0.51052  -0.47139  -0.42075  -0.41575
  Beta  occ. eigenvalues --   -0.40548  -0.40101  -0.38485  -0.37625  -0.36563
  Beta  occ. eigenvalues --   -0.34436  -0.34358  -0.33031  -0.32631  -0.31574
  Beta  occ. eigenvalues --   -0.29745  -0.28992  -0.27104  -0.26070  -0.24217
  Beta  occ. eigenvalues --   -0.23733  -0.22058  -0.18741  -0.17514  -0.15245
  Beta  occ. eigenvalues --   -0.14484  -0.13978
  Beta virt. eigenvalues --    0.06971   0.07758   0.07943   0.08885   0.09283
  Beta virt. eigenvalues --    0.10071   0.10908   0.11274   0.11385   0.11567
  Beta virt. eigenvalues --    0.11926   0.13473   0.13741   0.14523   0.14760

 Mulliken charges and spin densities:
               1          2
     1  C   -0.093274   0.015859
     2  C   -0.291557  -0.441239
     3  N   -0.671014   0.348889
     4  N    0.523709  -0.068387
     5  N    0.009708  -0.058312
     6  C   -0.001014  -0.216771
     7  C    0.196700  -0.773994
     8  C   -0.442045   0.438996
     9  C    1.196799  -1.729442
    10  N   -0.530725   0.131466
    11  O   -0.236715   0.023288
    12  N   -0.412983   0.092352
    13  H    0.153444  -0.024476
    14  H    0.112531   0.025407
    15  H    0.102934   0.118145
    16  H   -0.156075   0.337675
    17  H    0.023416   0.180174
    18  H    0.001561   0.191134
    19  H    0.144634   0.004962
    20  H    0.177696   0.022458
    21  H   -0.071219   0.270292
    22  H   -0.438639   0.552564
    23  H   -0.445775   0.712402
    24  H    0.006620   0.239928
    25  H    0.233754   0.034353
    26  H   -0.102445   0.351092
    27  H    0.009971   0.221186
 Sum of Mulliken charges =  -1.00000   1.00000

 Dipole moment (field-independent basis, Debye):
    X=             -3.3454    Y=              2.9493    Z=              1.0206  Tot=              4.5751
 Quadrupole moment (field-independent basis, Debye-Ang):
   XX=           -157.3568   YY=           -117.6179   ZZ=            -95.1037
   XY=             12.9878   XZ=             -2.9282   YZ=             -0.8252

 Summary of Natural Population Analysis:

                                       Natural Population
                Natural  -----------------------------------------------
    Atom  No    Charge         Core      Valence    Rydberg      Total
 -----------------------------------------------------------------------
      C    1   -0.20216      0.99960     2.19243    0.01013     3.20216
      C    2   -0.08874      0.99958     2.07917    0.00999     3.08874
      N    3   -0.19573      0.99971     2.68174    0.01428     3.69573
      N    4    0.12586      0.99970     2.35873    0.01570     3.37414
      N    5   -0.03767      0.99982     2.52367    0.01418     3.53767
      C    6   -0.01920      0.99959     2.00647    0.01314     3.01920
      C    7   -0.20851      0.99959     2.19824    0.01068     3.20851
      C    8    0.05956      0.99956     1.92706    0.01382     2.94044
      C    9   -0.10351      0.99961     2.09122    0.01267     3.10351
      N   10   -0.43936      0.99977     2.92721    0.01239     3.93936
      O   11   -0.37973      0.99990     3.37313    0.00670     4.37973
      N   12   -0.42666      0.99977     2.91586    0.01103     3.92666
      H   13    0.10049      0.00000     0.39817    0.00134     0.39951
      H   14    0.09877      0.00000     0.40016    0.00107     0.40123
      H   15    0.11026      0.00000     0.38793    0.00181     0.38974
      H   16    0.08773      0.00000     0.41089    0.00138     0.41227
      H   17    0.09649      0.00000     0.40142    0.00209     0.40351
      H   18    0.09980      0.00000     0.39889    0.00131     0.40020
      H   19    0.10311      0.00000     0.39583    0.00106     0.39689
      H   20    0.08512      0.00000     0.41347    0.00140     0.41488
      H   21    0.09617      0.00000     0.40268    0.00115     0.40383
      H   22    0.08134      0.00000     0.41633    0.00232     0.41866
      H   23    0.18656      0.00000     0.30688    0.00656     0.31344
      H   24    0.18103      0.00000     0.31388    0.00509     0.31897
      H   25    0.23626      0.00000     0.26053    0.00321     0.26374
      H   26    0.17819      0.00000     0.31929    0.00252     0.32181
      H   27    0.17452      0.00000     0.32224    0.00323     0.32548
 =======================================================================
   * Total *    0.00000     11.99620    34.82352    0.18028    47.00000

 Normal termination of Gaussian 16 at Wed Dec  9 17:50:53 2020.
