 Gaussian 16, Revision A.03,

 -----------------------------------------------------------
 # opt freq B3LYP/6-31G(d) empiricaldispersion=gd3bj scf=xqc
 -----------------------------------------------------------

 ------------------------------
 CID_57469817_JID_2515_neutraal
 ------------------------------
 Symbolic Z-matrix:
 Charge =  0 Multiplicity = 1

 SCF Done:  E(RB3LYP) =  -543.635399642     A.U. after   14 cycles
 SCF Done:  E(RB3LYP) =  -543.636661503     A.U. after   12 cycles
 SCF Done:  E(RB3LYP) =  -543.636279567     A.U. after   12 cycles
 SCF Done:  E(RB3LYP) =  -543.636973300     A.U. after   12 cycles
 SCF Done:  E(RB3LYP) =  -543.637006040     A.U. after   11 cycles
 SCF Done:  E(RB3LYP) =  -543.637044795     A.U. after    9 cycles
 SCF Done:  E(RB3LYP) =  -543.637051304     A.U. after    9 cycles
 SCF Done:  E(RB3LYP) =  -543.637055998     A.U. after    8 cycles
 SCF Done:  E(RB3LYP) =  -543.637057170     A.U. after    8 cycles
 SCF Done:  E(RB3LYP) =  -543.637057735     A.U. after    8 cycles
 SCF Done:  E(RB3LYP) =  -543.637057945     A.U. after    7 cycles
 SCF Done:  E(RB3LYP) =  -543.637058036     A.U. after    7 cycles
 Optimization completed.
    -- Stationary point found.
 Normal termination of Gaussian 16 at Wed Dec  9 17:32:32 2020.

 --------------------------------------------------------------------
 #N Geom=AllCheck Guess=TCheck SCRF=Check GenChk RB3LYP/6-31G(d) Freq
 --------------------------------------------------------------------

 Structure from the checkpoint file:  "JID_2515.chk"
 ------------------------------
 CID_57469817_JID_2515_neutraal
 ------------------------------
 Charge =  0 Multiplicity = 1

 SCF Done:  E(RB3LYP) =  -543.637058036     A.U. after    1 cycles

  Exact polarizability: 124.387  -1.704 104.614  -0.520   0.302 100.215
 Approx polarizability: 160.450  -5.529 141.298  -3.772   1.431 152.162

                      1                      2                      3
                      A                      A                      A
 Frequencies --     39.3598                45.0518                71.1905
 Red. masses --      4.1502                 6.0595                 3.4809
 Frc consts  --      0.0038                 0.0072                 0.0104
 IR Inten    --      0.3894                 0.8898                 0.0726

                      4                      5                      6
                      A                      A                      A
 Frequencies --     89.8329               110.2994               134.6365
 Red. masses --      2.5902                 2.4306                 2.1844
 Frc consts  --      0.0123                 0.0174                 0.0233
 IR Inten    --      0.0333                 0.0264                 0.0185

                      7                      8                      9
                      A                      A                      A
 Frequencies --    168.7255               201.7770               205.0770
 Red. masses --      2.1141                 1.5946                 1.3586
 Frc consts  --      0.0355                 0.0383                 0.0337
 IR Inten    --      0.0065                 0.0589                 0.1026

                     10                     11                     12
                      A                      A                      A
 Frequencies --    217.7043               254.5874               274.1536
 Red. masses --      2.1270                 1.4437                 2.0906
 Frc consts  --      0.0594                 0.0551                 0.0926
 IR Inten    --      0.1995                 0.0103                 0.3577

                     13                     14                     15
                      A                      A                      A
 Frequencies --    282.3047               319.2889               334.8615
 Red. masses --      1.9263                 2.7098                 2.9460
 Frc consts  --      0.0905                 0.1628                 0.1946
 IR Inten    --      0.0764                 1.2015                 1.5806

                     16                     17                     18
                      A                      A                      A
 Frequencies --    386.1153               421.5187               448.5889
 Red. masses --      2.0299                 1.9982                 3.0589
 Frc consts  --      0.1783                 0.2092                 0.3627
 IR Inten    --      0.4088                 0.3694                 1.4734

                     19                     20                     21
                      A                      A                      A
 Frequencies --    491.7652               590.8596               607.9686
 Red. masses --      2.5507                 2.9586                 2.0356
 Frc consts  --      0.3634                 0.6086                 0.4433
 IR Inten    --      0.9943                13.2757                51.3040

                     22                     23                     24
                      A                      A                      A
 Frequencies --    651.6971               743.2655               767.4246
 Red. masses --      1.6545                 1.2754                 3.4753
 Frc consts  --      0.4140                 0.4151                 1.2059
 IR Inten    --     50.3947                 9.3695                37.0823

                     25                     26                     27
                      A                      A                      A
 Frequencies --    785.8571               807.0216               839.5841
 Red. masses --      1.3813                 1.8709                 2.2286
 Frc consts  --      0.5026                 0.7179                 0.9256
 IR Inten    --     16.1744                 0.8969                 1.4742

                     28                     29                     30
                      A                      A                      A
 Frequencies --    858.0860               902.3258               918.1623
 Red. masses --      2.2161                 1.9159                 1.8576
 Frc consts  --      0.9614                 0.9191                 0.9227
 IR Inten    --      4.2801                 3.5094                 2.1738

                     31                     32                     33
                      A                      A                      A
 Frequencies --    930.0809               959.6936               996.4012
 Red. masses --      1.6009                 1.7110                 1.7820
 Frc consts  --      0.8159                 0.9284                 1.0424
 IR Inten    --      0.9033                 2.1802                 0.4679

                     34                     35                     36
                      A                      A                      A
 Frequencies --   1040.4651              1047.5322              1067.6708
 Red. masses --      1.3681                 1.9486                 1.4186
 Frc consts  --      0.8726                 1.2598                 0.9528
 IR Inten    --      1.1820                 0.8317                 8.2006

                     37                     38                     39
                      A                      A                      A
 Frequencies --   1089.8142              1100.0500              1113.4685
 Red. masses --      2.0921                 1.9893                 2.0866
 Frc consts  --      1.4640                 1.4183                 1.5242
 IR Inten    --     21.6290                 9.4404                26.8365

                     40                     41                     42
                      A                      A                      A
 Frequencies --   1159.5156              1176.9703              1192.8392
 Red. masses --      2.1163                 2.1557                 2.2093
 Frc consts  --      1.6764                 1.7594                 1.8521
 IR Inten    --     29.9312                 4.2886                17.1256

                     43                     44                     45
                      A                      A                      A
 Frequencies --   1209.9955              1249.8529              1274.1090
 Red. masses --      1.8843                 1.3611                 1.3267
 Frc consts  --      1.6254                 1.2527                 1.2689
 IR Inten    --    101.8539                10.7819                 3.1240

                     46                     47                     48
                      A                      A                      A
 Frequencies --   1305.5132              1309.2205              1328.1585
 Red. masses --      1.2413                 1.3441                 1.2225
 Frc consts  --      1.2465                 1.3574                 1.2706
 IR Inten    --      2.4503                 3.3407                 0.4108

                     49                     50                     51
                      A                      A                      A
 Frequencies --   1345.1521              1367.9659              1380.4680
 Red. masses --      1.2299                 1.5365                 1.4828
 Frc consts  --      1.3112                 1.6941                 1.6648
 IR Inten    --      6.4358                12.8872                 7.7763

                     52                     53                     54
                      A                      A                      A
 Frequencies --   1388.2080              1398.6486              1404.8541
 Red. masses --      1.4848                 1.5307                 1.3183
 Frc consts  --      1.6859                 1.7642                 1.5330
 IR Inten    --      0.5346                11.8996                 3.0321

                     55                     56                     57
                      A                      A                      A
 Frequencies --   1414.0754              1421.8542              1441.6703
 Red. masses --      1.4089                 1.4305                 1.2721
 Frc consts  --      1.6599                 1.7039                 1.5578
 IR Inten    --      4.6836                 0.7140                 0.9347

                     58                     59                     60
                      A                      A                      A
 Frequencies --   1445.1810              1450.5926              1510.7605
 Red. masses --      1.2447                 1.2522                 1.0702
 Frc consts  --      1.5316                 1.5525                 1.4391
 IR Inten    --      3.3011                16.0922                 1.0139

                     61                     62                     63
                      A                      A                      A
 Frequencies --   1521.4304              1522.2445              1527.1804
 Red. masses --      1.0698                 1.0551                 1.0579
 Frc consts  --      1.4589                 1.4405                 1.4537
 IR Inten    --      4.0147                 0.2774                 6.9366

                     64                     65                     66
                      A                      A                      A
 Frequencies --   1528.4172              1530.0641              1534.0006
 Red. masses --      1.0554                 1.0552                 1.0487
 Frc consts  --      1.4527                 1.4555                 1.4540
 IR Inten    --      4.3160                 5.4312                 1.6928

                     67                     68                     69
                      A                      A                      A
 Frequencies --   1537.4517              1544.7142              1548.9052
 Red. masses --      1.0791                 1.0704                 1.0507
 Frc consts  --      1.5029                 1.5049                 1.4851
 IR Inten    --      1.4536                 5.4147                 3.0532

                     70                     71                     72
                      A                      A                      A
 Frequencies --   1841.8595              3021.9393              3035.7213
 Red. masses --      9.3748                 1.0679                 1.0637
 Frc consts  --     18.7381                 5.7458                 5.7756
 IR Inten    --    284.8457                15.8986                41.6446

                     73                     74                     75
                      A                      A                      A
 Frequencies --   3039.0462              3046.6498              3048.7291
 Red. masses --      1.0643                 1.0386                 1.0439
 Frc consts  --      5.7913                 5.6801                 5.7167
 IR Inten    --     15.1653                21.3326                16.2887

                     76                     77                     78
                      A                      A                      A
 Frequencies --   3052.2853              3059.8722              3062.6634
 Red. masses --      1.0720                 1.0561                 1.0551
 Frc consts  --      5.8845                 5.8257                 5.8310
 IR Inten    --      9.4579                18.6239                 9.8880

                     79                     80                     81
                      A                      A                      A
 Frequencies --   3067.8697              3069.7382              3076.9732
 Red. masses --      1.0940                 1.0912                 1.0888
 Frc consts  --      6.0666                 6.0582                 6.0736
 IR Inten    --     23.0781                28.5059                22.5329

                     82                     83                     84
                      A                      A                      A
 Frequencies --   3088.4521              3096.0101              3110.8466
 Red. masses --      1.0989                 1.0962                 1.1012
 Frc consts  --      6.1757                 6.1907                 6.2789
 IR Inten    --     51.1501                49.3121                42.7185

                     85                     86                     87
                      A                      A                      A
 Frequencies --   3118.2154              3119.0942              3124.3967
 Red. masses --      1.0968                 1.1015                 1.1007
 Frc consts  --      6.2834                 6.3138                 6.3307
 IR Inten    --     31.9998                90.4534                17.5695

                     88                     89                     90
                      A                      A                      A
 Frequencies --   3132.9066              3139.0534              3678.3168
 Red. masses --      1.1012                 1.1017                 1.0640
 Frc consts  --      6.3684                 6.3960                 8.4815
 IR Inten    --     31.9693                30.7542                47.7935

 - Thermochemistry -
 -------------------
 Temperature   298.150 Kelvin.  Pressure   1.00000 Atm.
 Atom     1 has atomic number  6 and mass  12.00000

 Molecular mass:   172.14633 amu.
 Principal axes and moments of inertia in atomic units:
                           1         2         3
     Eigenvalues --  1330.025143432.276343871.94223
           X            0.99995   0.00820  -0.00651
           Y           -0.00816   0.99995   0.00528
           Z            0.00656  -0.00523   0.99996
 This molecule is an asymmetric top.
 Rotational symmetry number  1.
 Warning -- assumption of classical behavior for rotation
           may cause significant error
 Rotational temperatures (Kelvin)      0.06512     0.02524     0.02237
 Rotational constants (GHZ):           1.35692     0.52581     0.46611
 Zero-point vibrational energy     767493.7 (Joules/Mol)
                                  183.43539 (Kcal/Mol)
 Warning -- explicit consideration of  21 degrees of freedom as
           vibrations may cause significant error
 Vibrational temperatures:     56.63    64.82   102.43   129.25   158.70
          (Kelvin)            193.71   242.76   290.31   295.06   313.23
                              366.29   394.45   406.17   459.39   481.79
                              555.53   606.47   645.42   707.54   850.12
                              874.73   937.65  1069.39  1104.15  1130.67
                             1161.12  1207.97  1234.59  1298.25  1321.03
                             1338.18  1380.79  1433.60  1497.00  1507.17
                             1536.14  1568.00  1582.73  1602.03  1668.28
                             1693.40  1716.23  1740.91  1798.26  1833.16
                             1878.34  1883.68  1910.92  1935.37  1968.20
                             1986.19  1997.32  2012.34  2021.27  2034.54
                             2045.73  2074.24  2079.29  2087.08  2173.65
                             2189.00  2190.17  2197.27  2199.05  2201.42
                             2207.08  2212.05  2222.50  2228.53  2650.03
                             4347.90  4367.73  4372.51  4383.45  4386.44
                             4391.56  4402.47  4406.49  4413.98  4416.67
                             4427.08  4443.59  4454.47  4475.81  4486.42
                             4487.68  4495.31  4507.55  4516.40  5292.28

 Zero-point correction=                           0.292323 (Hartree/Particle)
 Thermal correction to Energy=                    0.306884
 Thermal correction to Enthalpy=                  0.307829
 Thermal correction to Gibbs Free Energy=         0.250654
 Sum of electronic and zero-point Energies=           -543.344735
 Sum of electronic and thermal Energies=              -543.330174
 Sum of electronic and thermal Enthalpies=            -543.329229
 Sum of electronic and thermal Free Energies=         -543.386404

                     E (Thermal)             CV                S
                      KCal/Mol        Cal/Mol-Kelvin    Cal/Mol-Kelvin
 Total                  192.573             53.473            120.335
 Electronic               0.000              0.000              0.000
 Translational            0.889              2.981             41.337
 Rotational               0.889              2.981             31.247
 Vibrational            190.795             47.511             47.750
 Vibration     1          0.594              1.981              5.291
 Vibration     2          0.595              1.979              5.024
 Vibration     3          0.598              1.968              4.120
 Vibration     4          0.602              1.956              3.664
 Vibration     5          0.606              1.941              3.264
 Vibration     6          0.613              1.919              2.879
 Vibration     7          0.625              1.881              2.450
 Vibration     8          0.639              1.837              2.117
 Vibration     9          0.640              1.833              2.087
 Vibration    10          0.646              1.814              1.978
 Vibration    11          0.665              1.755              1.699
 Vibration    12          0.676              1.721              1.570
 Vibration    13          0.681              1.706              1.520
 Vibration    14          0.705              1.637              1.314
 Vibration    15          0.716              1.606              1.237
 Vibration    16          0.755              1.500              1.015
 Vibration    17          0.784              1.423              0.887
 Vibration    18          0.808              1.364              0.800
 Vibration    19          0.848              1.268              0.679
 Vibration    20          0.948              1.051              0.466
 Vibration    21          0.967              1.015              0.436

 Optimization completed.
    -- Stationary point found.
 Normal termination of Gaussian 16 at Wed Dec  9 17:42:01 2020.

 ----------------------------------------------------------------------
 # B3LYP/6-311++G(d,p) empiricaldispersion=gd3bj scf=xqc pop=npa geom=c
 heck
 ----------------------------------------------------------------------

 --------------------------------------
 CID_57469817_JID_2515_Energie_neutraal
 --------------------------------------
 Structure from the checkpoint file:  "JID_2515.chk"
 Charge =  0 Multiplicity = 1

 SCF Done:  E(RB3LYP) =  -543.803129636     A.U. after   13 cycles
 Normal termination of Gaussian 16 at Wed Dec  9 17:46:19 2020.

 ----------------------------------------------------------------------
 # B3LYP/6-311++G(d,p) empiricaldispersion=gd3bj scf=xqc pop=npa geom=c
 heck
 ----------------------------------------------------------------------

 ------------------------------------
 CID_57469817_JID_2515_Energie_kation
 ------------------------------------
 Structure from the checkpoint file:  "JID_2515.chk"
 Charge =  1 Multiplicity = 2

 SCF Done:  E(UB3LYP) =  -543.448535076     A.U. after   28 cycles
 Normal termination of Gaussian 16 at Wed Dec  9 17:58:32 2020.
 Gaussian 16:  ES64L-G16RevA.03 25-Dec-2016

 ----------------------------------------------------------------------
 # B3LYP/6-311++G(d,p) empiricaldispersion=gd3bj scf=xqc pop=npa geom=c
 heck
 ----------------------------------------------------------------------

 -----------------------------------
 CID_57469817_JID_2515_Energie_anion
 -----------------------------------
 Structure from the checkpoint file:  "JID_2515.chk"
 Charge = -1 Multiplicity = 2

                         Standard orientation:
 ---------------------------------------------------------------------
 Center     Atomic      Atomic             Coordinates (Angstroms)
 Number     Number       Type             X           Y           Z
 ---------------------------------------------------------------------
      1          6           0       -3.306543    1.167417    0.829110
      2          6           0       -3.157507   -0.348631    0.671611
      3          6           0       -2.659031   -0.786264   -0.714021
      4          6           0       -1.274760   -0.247598   -1.111470
      5          6           0       -0.127594   -0.593298   -0.143043
      6          6           0       -0.034373   -2.106946    0.100692
      7          6           0        1.222767   -0.063043   -0.681904
      8          6           0        1.254517    1.448064   -1.038315
      9          6           0        0.871120    2.402254    0.095710
     10          6           0        2.390560   -0.356504    0.242886
     11          8           0        3.501343   -0.678622   -0.118004
     12          8           0        2.095812   -0.168810    1.558957
     13          1           0       -2.342444    1.681433    0.749325
     14          1           0       -3.734277    1.423420    1.804670
     15          1           0       -3.965731    1.580626    0.055549
     16          1           0       -2.482600   -0.730942    1.448631
     17          1           0       -4.129061   -0.825423    0.855923
     18          1           0       -2.657346   -1.881923   -0.763285
     19          1           0       -3.383209   -0.452733   -1.470285
     20          1           0       -1.022506   -0.637161   -2.108676
     21          1           0       -1.341859    0.840314   -1.220891
     22          1           0       -0.320826   -0.106736    0.819753
     23          1           0        0.119090   -2.644769   -0.843629
     24          1           0        0.796980   -2.353113    0.768446
     25          1           0       -0.946416   -2.496169    0.562275
     26          1           0        1.462775   -0.608410   -1.602748
     27          1           0        2.266220    1.682780   -1.390890
     28          1           0        0.591499    1.608262   -1.895255
     29          1           0        1.521938    2.276877    0.965971
     30          1           0        0.948882    3.441790   -0.240538
     31          1           0       -0.158626    2.239176    0.430427
     32          1           0        2.925334   -0.350553    2.040074
 ---------------------------------------------------------------------

 SCF Done:  E(UB3LYP) =  -543.789006420     A.U. after   32 cycles

 The electronic state is 2-A.
 Alpha  occ. eigenvalues --  -19.06911 -19.01670 -10.20547 -10.09029 -10.07898
 Alpha  occ. eigenvalues --  -10.07849 -10.06552 -10.06527 -10.06461 -10.06057
 Alpha  occ. eigenvalues --  -10.06045 -10.05787  -1.01018  -0.92063  -0.73832
 Alpha  occ. eigenvalues --   -0.69728  -0.66317  -0.62127  -0.60009  -0.55905
 Alpha  occ. eigenvalues --   -0.53286  -0.50635  -0.47639  -0.44669  -0.39985
 Alpha  occ. eigenvalues --   -0.39139  -0.37767  -0.37051  -0.35863  -0.34513
 Alpha  occ. eigenvalues --   -0.33212  -0.31898  -0.31657  -0.30468  -0.29670
 Alpha  occ. eigenvalues --   -0.28828  -0.28117  -0.27841  -0.26343  -0.25355
 Alpha  occ. eigenvalues --   -0.24776  -0.23902  -0.23174  -0.22527  -0.22484
 Alpha  occ. eigenvalues --   -0.21593  -0.21211  -0.17900   0.04392
 Alpha virt. eigenvalues --    0.06342   0.07007   0.07353   0.08602   0.08803
 Alpha virt. eigenvalues --    0.09427   0.09587   0.10372   0.10628   0.11646
 Alpha virt. eigenvalues --    0.11754   0.12230   0.13062   0.13353   0.13608

  Beta  occ. eigenvalues --  -19.06864 -19.01653 -10.20542 -10.09020 -10.07885
  Beta  occ. eigenvalues --  -10.07842 -10.06537 -10.06511 -10.06444 -10.06030
  Beta  occ. eigenvalues --  -10.06025 -10.05756  -1.00956  -0.92008  -0.73806
  Beta  occ. eigenvalues --   -0.69695  -0.66286  -0.62082  -0.59963  -0.55848
  Beta  occ. eigenvalues --   -0.53209  -0.50574  -0.47565  -0.44610  -0.39954
  Beta  occ. eigenvalues --   -0.39103  -0.37734  -0.37010  -0.35833  -0.34473
  Beta  occ. eigenvalues --   -0.33181  -0.31866  -0.31620  -0.30429  -0.29634
  Beta  occ. eigenvalues --   -0.28796  -0.28087  -0.27805  -0.26312  -0.25322
  Beta  occ. eigenvalues --   -0.24738  -0.23867  -0.23145  -0.22497  -0.22446
  Beta  occ. eigenvalues --   -0.21557  -0.21180  -0.17840
  Beta virt. eigenvalues --    0.06567   0.07488   0.07757   0.07835   0.09013
  Beta virt. eigenvalues --    0.09254   0.09703   0.09903   0.10709   0.10907
  Beta virt. eigenvalues --    0.11999   0.12159   0.12656   0.13300   0.13574

 Mulliken charges and spin densities:
               1          2
     1  C    0.993149  -1.610364
     2  C   -1.093932   0.928867
     3  C    1.463669  -1.819714
     4  C   -1.480922   1.185696
     5  C   -0.590258   0.324512
     6  C    0.618336  -1.368646
     7  C    1.713242  -0.864847
     8  C   -0.450447   0.038582
     9  C    0.114476  -0.718927
    10  C   -0.077633  -0.283229
    11  O   -0.307662   0.059023
    12  O   -0.216424   0.070403
    13  H   -0.114847   0.249564
    14  H   -0.233439   0.365695
    15  H   -0.180916   0.314641
    16  H   -0.050976   0.192239
    17  H   -0.375794   0.542642
    18  H    0.106166   0.032055
    19  H   -0.442998   0.612903
    20  H   -0.169303   0.335235
    21  H    0.263604  -0.123767
    22  H    0.506982  -0.275178
    23  H    0.038032   0.113918
    24  H   -0.118824   0.287603
    25  H   -0.093216   0.227335
    26  H    0.101613   0.152796
    27  H    0.107111   0.076328
    28  H   -0.255920   0.418513
    29  H    0.020635   0.136445
    30  H   -0.425307   0.562075
    31  H    0.008126   0.164468
    32  H   -0.376322   0.673133
 Sum of Mulliken charges =  -1.00000   1.00000

 Dipole moment (field-independent basis, Debye):
    X=              0.9546    Y=             -1.0480    Z=             -1.5654  Tot=              2.1119
 Quadrupole moment (field-independent basis, Debye-Ang):
   XX=           -154.9580   YY=           -118.4310   ZZ=           -115.8545
   XY=              4.9771   XZ=             -4.9438   YZ=              0.8457

 Summary of Natural Population Analysis:

                                       Natural Population
                Natural  -----------------------------------------------
    Atom  No    Charge         Core      Valence    Rydberg      Total
 -----------------------------------------------------------------------
      C    1   -0.28635      0.99966     2.28132    0.00537     3.28635
      C    2   -0.19206      0.99964     2.18462    0.00781     3.19206
      C    3   -0.18716      0.99963     2.17882    0.00871     3.18716
      C    4   -0.19080      0.99961     2.18176    0.00944     3.19080
      C    5   -0.11718      0.99959     2.10656    0.01103     3.11718
      C    6   -0.28515      0.99965     2.28025    0.00525     3.28515
      C    7   -0.14830      0.99952     2.13664    0.01214     3.14830
      C    8   -0.18542      0.99962     2.17771    0.00809     3.18542
      C    9   -0.28999      0.99966     2.28488    0.00545     3.28999
      C   10    0.41544      0.99967     1.55784    0.02706     2.58456
      O   11   -0.30908      0.99987     3.30298    0.00623     4.30908
      O   12   -0.34805      0.99988     3.34061    0.00756     4.34805
      H   13    0.09541      0.00000     0.40316    0.00143     0.40459
      H   14    0.09888      0.00000     0.40018    0.00094     0.40112
      H   15    0.09613      0.00000     0.40266    0.00121     0.40387
      H   16    0.09337      0.00000     0.40534    0.00129     0.40663
      H   17    0.09581      0.00000     0.40301    0.00119     0.40419
      H   18    0.09555      0.00000     0.40322    0.00123     0.40445
      H   19    0.09674      0.00000     0.40207    0.00119     0.40326
      H   20    0.09644      0.00000     0.40245    0.00111     0.40356
      H   21    0.09943      0.00000     0.39894    0.00163     0.40057
      H   22    0.10379      0.00000     0.39320    0.00301     0.39621
      H   23    0.09564      0.00000     0.40332    0.00103     0.40436
      H   24    0.10292      0.00000     0.39588    0.00120     0.39708
      H   25    0.10120      0.00000     0.39790    0.00090     0.39880
      H   26    0.10961      0.00000     0.38884    0.00155     0.39039
      H   27    0.10006      0.00000     0.39893    0.00102     0.39994
      H   28    0.10069      0.00000     0.39819    0.00112     0.39931
      H   29    0.10271      0.00000     0.39595    0.00134     0.39729
      H   30    0.09966      0.00000     0.39938    0.00096     0.40034
      H   31    0.09729      0.00000     0.40129    0.00143     0.40271
      H   32    0.24278      0.00000     0.24567    0.01155     0.25722
 =======================================================================
   * Total *   -0.00000     11.99598    35.85355    0.15047    48.00000

 Normal termination of Gaussian 16 at Wed Dec  9 18:12:44 2020.
