 Gaussian 16, Revision A.03,

 -----------------------------------------------------------
 # opt freq B3LYP/6-31G(d) empiricaldispersion=gd3bj scf=xqc
 -----------------------------------------------------------

 ------------------------------
 CID_61934046_JID_5449_neutraal
 ------------------------------
 Symbolic Z-matrix:
 Charge =  0 Multiplicity = 1

 SCF Done:  E(RB3LYP) =  -1071.11842063     A.U. after   14 cycles
 SCF Done:  E(RB3LYP) =  -1071.12390296     A.U. after   12 cycles
 SCF Done:  E(RB3LYP) =  -1071.12415275     A.U. after   13 cycles
 SCF Done:  E(RB3LYP) =  -1071.12479497     A.U. after   12 cycles
 SCF Done:  E(RB3LYP) =  -1071.12441719     A.U. after   13 cycles
 SCF Done:  E(RB3LYP) =  -1071.12513763     A.U. after   12 cycles
 SCF Done:  E(RB3LYP) =  -1071.12540518     A.U. after   12 cycles
 SCF Done:  E(RB3LYP) =  -1071.12534923     A.U. after   12 cycles
 SCF Done:  E(RB3LYP) =  -1071.12566646     A.U. after   11 cycles
 SCF Done:  E(RB3LYP) =  -1071.12567982     A.U. after   11 cycles
 SCF Done:  E(RB3LYP) =  -1071.12569113     A.U. after    9 cycles
 SCF Done:  E(RB3LYP) =  -1071.12569141     A.U. after    8 cycles
 SCF Done:  E(RB3LYP) =  -1071.12569158     A.U. after    7 cycles
 SCF Done:  E(RB3LYP) =  -1071.12569167     A.U. after    6 cycles
 SCF Done:  E(RB3LYP) =  -1071.12569179     A.U. after    7 cycles
 Optimization completed.
    -- Stationary point found.
 Normal termination of Gaussian 16 at Thu Dec 10 16:18:05 2020.

 --------------------------------------------------------------------
 #N Geom=AllCheck Guess=TCheck SCRF=Check GenChk RB3LYP/6-31G(d) Freq
 --------------------------------------------------------------------

 Structure from the checkpoint file:  "JID_5449.chk"
 ------------------------------
 CID_61934046_JID_5449_neutraal
 ------------------------------
 Charge =  0 Multiplicity = 1

 SCF Done:  E(RB3LYP) =  -1071.12569179     A.U. after    1 cycles

  Exact polarizability: 145.378  -3.418 148.200   6.584  -1.203 115.153
 Approx polarizability: 191.527  -4.237 192.917  15.410   0.794 186.783

                      1                      2                      3
                      A                      A                      A
 Frequencies --     22.1247                27.4191                37.1080
 Red. masses --      4.7623                 4.0157                 4.9825
 Frc consts  --      0.0014                 0.0018                 0.0040
 IR Inten    --      0.4648                 2.2885                 0.7401

                      4                      5                      6
                      A                      A                      A
 Frequencies --     60.2369                86.8125                96.5338
 Red. masses --      2.8171                 3.2365                 3.8385
 Frc consts  --      0.0060                 0.0144                 0.0211
 IR Inten    --      1.1737                 3.2345                 0.8951

                      7                      8                      9
                      A                      A                      A
 Frequencies --    106.2507               136.5653               141.0317
 Red. masses --      3.9238                 4.2745                 1.1757
 Frc consts  --      0.0261                 0.0470                 0.0138
 IR Inten    --      1.1210                 0.2277                 0.1557

                     10                     11                     12
                      A                      A                      A
 Frequencies --    184.7066               188.1554               219.3968
 Red. masses --      4.2201                 3.1674                 3.7874
 Frc consts  --      0.0848                 0.0661                 0.1074
 IR Inten    --      1.0741                 3.5587                 1.7043

                     13                     14                     15
                      A                      A                      A
 Frequencies --    230.5400               260.8292               262.4274
 Red. masses --      2.9429                 1.2548                 3.8400
 Frc consts  --      0.0922                 0.0503                 0.1558
 IR Inten    --      3.1685                93.2615                10.3366

                     16                     17                     18
                      A                      A                      A
 Frequencies --    308.0352               316.3000               325.8211
 Red. masses --      2.8653                 3.0373                 1.4275
 Frc consts  --      0.1602                 0.1790                 0.0893
 IR Inten    --      8.4586                 6.5288                 4.0788

                     19                     20                     21
                      A                      A                      A
 Frequencies --    339.9950               359.2051               361.5359
 Red. masses --      2.1395                 2.3288                 2.7305
 Frc consts  --      0.1457                 0.1770                 0.2103
 IR Inten    --      2.3154                12.0317                12.2776

                     22                     23                     24
                      A                      A                      A
 Frequencies --    444.0161               457.9076               494.8910
 Red. masses --      3.4979                 2.1949                 2.5370
 Frc consts  --      0.4063                 0.2712                 0.3661
 IR Inten    --      3.6440                 9.3605                 2.4744

                     25                     26                     27
                      A                      A                      A
 Frequencies --    516.7736               631.2158               658.4611
 Red. masses --      4.0228                 3.2564                 4.2623
 Frc consts  --      0.6330                 0.7645                 1.0888
 IR Inten    --      3.0871                13.4118                 2.7482

                     28                     29                     30
                      A                      A                      A
 Frequencies --    739.0886               758.5150               785.9876
 Red. masses --      2.9815                 3.5468                 1.8814
 Frc consts  --      0.9596                 1.2023                 0.6848
 IR Inten    --     27.9694                28.9704                 3.4239

                     31                     32                     33
                      A                      A                      A
 Frequencies --    797.1790               823.1530               835.9000
 Red. masses --      1.5169                 1.9231                 2.3981
 Frc consts  --      0.5680                 0.7677                 0.9872
 IR Inten    --     41.4331                24.7074                14.2204

                     34                     35                     36
                      A                      A                      A
 Frequencies --    850.5552               856.5375               896.3168
 Red. masses --      1.3661                 2.4940                 2.3723
 Frc consts  --      0.5823                 1.0780                 1.1229
 IR Inten    --      8.8367                 8.4077                10.0537

                     37                     38                     39
                      A                      A                      A
 Frequencies --    937.5836               951.7581               968.3742
 Red. masses --      2.7240                 2.2074                 2.0377
 Frc consts  --      1.4108                 1.1781                 1.1259
 IR Inten    --      5.8662                 0.6443                 1.0759

                     40                     41                     42
                      A                      A                      A
 Frequencies --   1005.3502              1021.1208              1037.6349
 Red. masses --      2.3359                 3.4625                 2.0317
 Frc consts  --      1.3911                 2.1271                 1.2888
 IR Inten    --     14.3581                10.8910                 7.8011

                     43                     44                     45
                      A                      A                      A
 Frequencies --   1046.5810              1066.0115              1081.4760
 Red. masses --      1.6721                 1.4623                 1.3723
 Frc consts  --      1.0791                 0.9790                 0.9456
 IR Inten    --     11.7457                11.2076                 1.0871

                     46                     47                     48
                      A                      A                      A
 Frequencies --   1093.7733              1136.1415              1157.5031
 Red. masses --      3.4521                 1.2366                 1.5675
 Frc consts  --      2.4333                 0.9405                 1.2374
 IR Inten    --     60.2115                 8.9742                56.3496

                     49                     50                     51
                      A                      A                      A
 Frequencies --   1170.5985              1185.9204              1191.8639
 Red. masses --      1.9161                 1.2867                 1.7290
 Frc consts  --      1.5470                 1.0662                 1.4471
 IR Inten    --     27.7558                 4.1449                44.9518

                     52                     53                     54
                      A                      A                      A
 Frequencies --   1203.9941              1209.8615              1214.1725
 Red. masses --      1.3747                 1.4429                 1.9882
 Frc consts  --      1.1741                 1.2444                 1.7269
 IR Inten    --     17.9871                 4.1368                40.3771

                     55                     56                     57
                      A                      A                      A
 Frequencies --   1222.1924              1260.8158              1261.3723
 Red. masses --      1.7106                 1.7401                 1.1755
 Frc consts  --      1.5055                 1.6298                 1.1019
 IR Inten    --     30.7118                23.5477                20.3504

                     58                     59                     60
                      A                      A                      A
 Frequencies --   1275.8505              1312.2445              1324.4509
 Red. masses --      2.1037                 1.3536                 1.2666
 Frc consts  --      2.0176                 1.3733                 1.3091
 IR Inten    --    112.8299                25.9943                15.8591

                     61                     62                     63
                      A                      A                      A
 Frequencies --   1346.6286              1351.9874              1427.8749
 Red. masses --      1.6692                 1.6108                 1.4847
 Frc consts  --      1.7835                 1.7347                 1.7835
 IR Inten    --     83.8393                71.3602                37.8897

                     64                     65                     66
                      A                      A                      A
 Frequencies --   1434.8954              1466.0491              1479.5129
 Red. masses --      1.2375                 1.3282                 1.1211
 Frc consts  --      1.5012                 1.6820                 1.4459
 IR Inten    --      7.8667                 4.6043                 6.8438

                     67                     68                     69
                      A                      A                      A
 Frequencies --   1481.0278              1485.8103              1492.1953
 Red. masses --      1.1040                 1.1415                 1.2175
 Frc consts  --      1.4268                 1.4847                 1.5973
 IR Inten    --      5.9503                 7.2124                 3.4156

                     70                     71                     72
                      A                      A                      A
 Frequencies --   1503.6913              1512.4789              1522.7062
 Red. masses --      1.2739                 1.0479                 1.0462
 Frc consts  --      1.6970                 1.4124                 1.4292
 IR Inten    --     25.4627                 5.7150                 9.1675

                     73                     74                     75
                      A                      A                      A
 Frequencies --   1524.9580              1535.8320              1536.5035
 Red. masses --      1.1749                 1.2426                 1.0776
 Frc consts  --      1.6097                 1.7269                 1.4989
 IR Inten    --      1.6689                 8.8571                23.1247

                     76                     77                     78
                      A                      A                      A
 Frequencies --   1543.2566              1807.3692              2984.2705
 Red. masses --      1.0861                11.1344                 1.0654
 Frc consts  --      1.5240                21.4294                 5.5901
 IR Inten    --      0.9676               161.5747                92.6369

                     79                     80                     81
                      A                      A                      A
 Frequencies --   3043.7018              3078.7645              3081.6846
 Red. masses --      1.0970                 1.0292                 1.0417
 Frc consts  --      5.9875                 5.7476                 5.8285
 IR Inten    --     34.8763                34.5661                 4.2885

                     82                     83                     84
                      A                      A                      A
 Frequencies --   3082.6910              3083.9393              3097.3774
 Red. masses --      1.0850                 1.0563                 1.0646
 Frc consts  --      6.0748                 5.9192                 6.0174
 IR Inten    --     35.9346                26.1556                10.7423

                     85                     86                     87
                      A                      A                      A
 Frequencies --   3140.0121              3152.1653              3155.1571
 Red. masses --      1.1023                 1.0517                 1.0996
 Frc consts  --      6.4037                 6.1571                 6.4494
 IR Inten    --     10.9953                21.0945                13.9906

                     88                     89                     90
                      A                      A                      A
 Frequencies --   3155.6778              3157.9741              3169.0941
 Red. masses --      1.1070                 1.0633                 1.1013
 Frc consts  --      6.4950                 6.2476                 6.5166
 IR Inten    --     21.2792                 8.3908                19.5381

                     91                     92                     93
                      A                      A                      A
 Frequencies --   3182.2291              3185.3551              3233.1091
 Red. masses --      1.1010                 1.1075                 1.1192
 Frc consts  --      6.5688                 6.6209                 6.8931
 IR Inten    --      3.2720                16.5793                 1.6001

                     94                     95                     96
                      A                      A                      A
 Frequencies --   3247.3604              3497.5582              3757.5499
 Red. masses --      1.1161                 1.0737                 1.0664
 Frc consts  --      6.9348                 7.7387                 8.8712
 IR Inten    --     18.5409                 2.7163                19.2461

 - Thermochemistry -
 -------------------
 Temperature   298.150 Kelvin.  Pressure   1.00000 Atm.
 Atom     1 has atomic number  6 and mass  12.00000

 Molecular mass:   233.10857 amu.
 Principal axes and moments of inertia in atomic units:
                           1         2         3
     Eigenvalues --  3522.692853994.724516476.94588
           X            0.99999   0.00410   0.00169
           Y           -0.00408   0.99993  -0.01129
           Z           -0.00173   0.01128   0.99993
 This molecule is an asymmetric top.
 Rotational symmetry number  1.
 Warning -- assumption of classical behavior for rotation
           may cause significant error
 Rotational temperatures (Kelvin)      0.02459     0.02168     0.01337
 Rotational constants (GHZ):           0.51232     0.45178     0.27864
 Zero-point vibrational energy     764967.8 (Joules/Mol)
                                  182.83168 (Kcal/Mol)
 Warning -- explicit consideration of  25 degrees of freedom as
           vibrations may cause significant error
 Vibrational temperatures:     31.83    39.45    53.39    86.67   124.90
          (Kelvin)            138.89   152.87   196.49   202.91   265.75
                              270.71   315.66   331.70   375.28   377.57
                              443.19   455.09   468.78   489.18   516.82
                              520.17   638.84   658.83   712.04   743.52
                              908.18   947.38  1063.38  1091.33  1130.86
                             1146.96  1184.33  1202.67  1223.76  1232.37
                             1289.60  1348.97  1369.37  1393.27  1446.47
                             1469.17  1492.93  1505.80  1533.75  1556.00
                             1573.70  1634.65  1665.39  1684.23  1706.27
                             1714.83  1732.28  1740.72  1746.92  1758.46
                             1814.03  1814.83  1835.66  1888.03  1905.59
                             1937.50  1945.21  2054.39  2064.49  2109.32
                             2128.69  2130.87  2137.75  2146.94  2163.48
                             2176.12  2190.83  2194.07  2209.72  2210.69
                             2220.40  2600.40  4293.70  4379.21  4429.66
                             4433.86  4435.30  4437.10  4456.44  4517.78
                             4535.26  4539.57  4540.32  4543.62  4559.62
                             4578.52  4583.02  4651.72  4672.23  5032.21
                             5406.28

 Zero-point correction=                           0.291361 (Hartree/Particle)
 Thermal correction to Energy=                    0.309190
 Thermal correction to Enthalpy=                  0.310134
 Thermal correction to Gibbs Free Energy=         0.243710
 Sum of electronic and zero-point Energies=          -1070.834331
 Sum of electronic and thermal Energies=             -1070.816502
 Sum of electronic and thermal Enthalpies=           -1070.815558
 Sum of electronic and thermal Free Energies=        -1070.881981

                     E (Thermal)             CV                S
                      KCal/Mol        Cal/Mol-Kelvin    Cal/Mol-Kelvin
 Total                  194.019             64.355            139.800
 Electronic               0.000              0.000              0.000
 Translational            0.889              2.981             42.241
 Rotational               0.889              2.981             32.877
 Vibrational            192.242             58.393             64.682
 Vibration     1          0.593              1.985              6.434
 Vibration     2          0.593              1.984              6.008
 Vibration     3          0.594              1.982              5.408
 Vibration     4          0.597              1.973              4.449
 Vibration     5          0.601              1.958              3.731
 Vibration     6          0.603              1.952              3.523
 Vibration     7          0.605              1.944              3.336
 Vibration     8          0.614              1.917              2.851
 Vibration     9          0.615              1.912              2.790
 Vibration    10          0.631              1.861              2.280
 Vibration    11          0.633              1.856              2.246
 Vibration    12          0.647              1.812              1.964
 Vibration    13          0.652              1.794              1.875
 Vibration    14          0.669              1.744              1.656
 Vibration    15          0.670              1.742              1.646
 Vibration    16          0.698              1.658              1.373
 Vibration    17          0.703              1.642              1.329
 Vibration    18          0.710              1.624              1.281
 Vibration    19          0.720              1.596              1.212
 Vibration    20          0.734              1.556              1.126
 Vibration    21          0.736              1.551              1.115
 Vibration    22          0.804              1.374              0.814
 Vibration    23          0.816              1.343              0.772
 Vibration    24          0.850              1.261              0.671
 Vibration    25          0.872              1.213              0.617

                           ! Non-Optimized Parameters !
 Normal termination of Gaussian 16 at Thu Dec 10 16:30:21 2020.

 ----------------------------------------------------------------------
 # B3LYP/6-311++G(d,p) empiricaldispersion=gd3bj scf=xqc pop=npa geom=c
 heck
 ----------------------------------------------------------------------

 --------------------------------------
 CID_61934046_JID_5449_Energie_neutraal
 --------------------------------------
 Structure from the checkpoint file:  "JID_5449.chk"
 Charge =  0 Multiplicity = 1

 SCF Done:  E(RB3LYP) =  -1071.36281801     A.U. after   14 cycles
 Normal termination of Gaussian 16 at Thu Dec 10 16:37:05 2020.

 ----------------------------------------------------------------------
 # B3LYP/6-311++G(d,p) empiricaldispersion=gd3bj scf=xqc pop=npa geom=c
 heck
 ----------------------------------------------------------------------

 ------------------------------------
 CID_61934046_JID_5449_Energie_kation
 ------------------------------------
 Structure from the checkpoint file:  "JID_5449.chk"
 Charge =  1 Multiplicity = 2

 SCF Done:  E(UB3LYP) =  -1071.08083024     A.U. after   22 cycles
 Normal termination of Gaussian 16 at Thu Dec 10 16:52:16 2020.
 Gaussian 16:  ES64L-G16RevA.03 25-Dec-2016

 ----------------------------------------------------------------------
 # B3LYP/6-311++G(d,p) empiricaldispersion=gd3bj scf=xqc pop=npa geom=c
 heck
 ----------------------------------------------------------------------

 -----------------------------------
 CID_61934046_JID_5449_Energie_anion
 -----------------------------------
 Structure from the checkpoint file:  "JID_5449.chk"
 Charge = -1 Multiplicity = 2

                         Standard orientation:
 ---------------------------------------------------------------------
 Center     Atomic      Atomic             Coordinates (Angstroms)
 Number     Number       Type             X           Y           Z
 ---------------------------------------------------------------------
      1          6           0       -0.306907    0.165533    1.473097
      2          6           0       -0.677720   -0.076618    0.010781
      3          6           0        0.556080    0.008395   -0.925296
      4         16           0        1.858946   -1.268903   -0.683261
      5          6           0        2.980641   -0.532327    0.569217
      6          6           0        3.753052    0.702087    0.129733
      7          8           0        2.867643    1.821950    0.138347
      8          6           0       -1.321574   -1.449700   -0.229191
      9          8           0       -1.752866   -1.783059   -1.315183
     10          8           0       -1.361893   -2.234248    0.857638
     11          6           0       -1.925695   -3.539190    0.646535
     12          7           0       -1.723843    0.874999   -0.417441
     13          6           0       -1.404582    2.276850   -0.360469
     14          6           0       -2.573346    3.225512   -0.415193
     15          6           0       -1.808755    3.047451    0.872043
     16          1           0        0.331470   -0.638831    1.841134
     17          1           0       -1.208238    0.195900    2.089477
     18          1           0        0.224741    1.115426    1.572221
     19          1           0        0.215401   -0.141865   -1.953576
     20          1           0        1.029032    0.986015   -0.843789
     21          1           0        2.440021   -0.312096    1.492974
     22          1           0        3.691660   -1.336956    0.785211
     23          1           0        4.583488    0.866181    0.836765
     24          1           0        4.181463    0.537532   -0.869026
     25          1           0        3.349908    2.587514   -0.208002
     26          1           0       -2.960272   -3.456779    0.304338
     27          1           0       -1.344099   -4.084715   -0.100583
     28          1           0       -1.876554   -4.037745    1.614578
     29          1           0       -2.024008    0.612755   -1.354649
     30          1           0       -0.491360    2.619137   -0.854156
     31          1           0       -2.457347    4.151450   -0.970911
     32          1           0       -3.560068    2.776303   -0.474260
     33          1           0       -2.291553    2.482543    1.662087
     34          1           0       -1.160160    3.850580    1.210463
 ---------------------------------------------------------------------

 SCF Done:  E(UB3LYP) =  -1071.35193472     A.U. after   33 cycles
 SCF Done:  E(UB3LYP) =  -1071.35193472     a.u. after    1 cycles

 The electronic state is 2-A.
 Alpha  occ. eigenvalues --  -88.73979 -19.08670 -19.02618 -19.01804 -14.21724
 Alpha  occ. eigenvalues --  -10.21282 -10.13914 -10.13333 -10.11608 -10.11496
 Alpha  occ. eigenvalues --  -10.09964 -10.09582 -10.08731 -10.08331 -10.06491
 Alpha  occ. eigenvalues --   -7.82580  -5.78983  -5.78598  -5.77952  -1.02682
 Alpha  occ. eigenvalues --   -0.93722  -0.91886  -0.83975  -0.75962  -0.70797
 Alpha  occ. eigenvalues --   -0.67663  -0.64419  -0.61999  -0.56814  -0.53818
 Alpha  occ. eigenvalues --   -0.51880  -0.49392  -0.48817  -0.46119  -0.43106
 Alpha  occ. eigenvalues --   -0.42284  -0.42197  -0.40440  -0.39462  -0.38103
 Alpha  occ. eigenvalues --   -0.37284  -0.36708  -0.34684  -0.32940  -0.32480
 Alpha  occ. eigenvalues --   -0.31663  -0.31098  -0.29619  -0.29348  -0.28978
 Alpha  occ. eigenvalues --   -0.28302  -0.27436  -0.26848  -0.25782  -0.24314
 Alpha  occ. eigenvalues --   -0.22702  -0.22409  -0.21067  -0.20594  -0.19262
 Alpha  occ. eigenvalues --   -0.17425  -0.15271  -0.12382   0.04219
 Alpha virt. eigenvalues --    0.05538   0.06841   0.07676   0.08193   0.08517
 Alpha virt. eigenvalues --    0.08584   0.09151   0.09584   0.09721   0.10426
 Alpha virt. eigenvalues --    0.10766   0.11303   0.11549   0.12077   0.12881

  Beta  occ. eigenvalues --  -88.73977 -19.08666 -19.02613 -19.01744 -14.21720
  Beta  occ. eigenvalues --  -10.21280 -10.13884 -10.13333 -10.11565 -10.11490
  Beta  occ. eigenvalues --  -10.09955 -10.09574 -10.08726 -10.08324 -10.06487
  Beta  occ. eigenvalues --   -7.82578  -5.78982  -5.78595  -5.77950  -1.02673
  Beta  occ. eigenvalues --   -0.93714  -0.91758  -0.83967  -0.75953  -0.70771
  Beta  occ. eigenvalues --   -0.67633  -0.64374  -0.61969  -0.56770  -0.53771
  Beta  occ. eigenvalues --   -0.51862  -0.49368  -0.48761  -0.46100  -0.43093
  Beta  occ. eigenvalues --   -0.42226  -0.42073  -0.40421  -0.39442  -0.38085
  Beta  occ. eigenvalues --   -0.37266  -0.36677  -0.34654  -0.32912  -0.32459
  Beta  occ. eigenvalues --   -0.31627  -0.31062  -0.29601  -0.29325  -0.28963
  Beta  occ. eigenvalues --   -0.28292  -0.27417  -0.26827  -0.25758  -0.24250
  Beta  occ. eigenvalues --   -0.22687  -0.22394  -0.21046  -0.20582  -0.19254
  Beta  occ. eigenvalues --   -0.17364  -0.15255  -0.12367
  Beta virt. eigenvalues --    0.06182   0.06873   0.07430   0.08030   0.08397
  Beta virt. eigenvalues --    0.08601   0.09000   0.09279   0.09833   0.10067
  Beta virt. eigenvalues --    0.10759   0.11402   0.11451   0.11651   0.12176

 Mulliken charges and spin densities:
               1          2
     1  C   -0.373674  -0.356801
     2  C   -0.010868   0.009229
     3  C    0.348755  -0.523820
     4  S    0.415990  -0.347776
     5  C   -1.429395   1.044436
     6  C    1.984827  -2.430755
     7  O   -0.354687   0.057584
     8  C   -1.175642   0.662874
     9  O   -0.185710  -0.005751
    10  O    0.027993   0.018247
    11  C    0.426540  -0.663779
    12  N    0.097192   0.005951
    13  C   -0.312414   0.246022
    14  C   -0.190022  -0.196702
    15  C   -0.058996  -0.313603
    16  H    0.070603   0.110289
    17  H    0.157366   0.021041
    18  H    0.175990   0.007110
    19  H    0.169951   0.109150
    20  H    0.764045  -0.559273
    21  H    0.218251  -0.015495
    22  H   -0.297652   0.524529
    23  H   -0.691595   0.840907
    24  H   -0.283726   0.434846
    25  H   -0.452730   0.745925
    26  H   -0.050503   0.217672
    27  H   -0.001800   0.175138
    28  H   -0.385965   0.538869
    29  H    0.260637   0.000614
    30  H   -0.132413   0.358047
    31  H    0.033232   0.107104
    32  H    0.106800   0.018919
    33  H    0.126330   0.003009
    34  H    0.003293   0.156243
 Sum of Mulliken charges =  -1.00000   1.00000

 Dipole moment (field-independent basis, Debye):
    X=             -7.6045    Y=             -1.9533    Z=             -0.2260  Tot=              7.8546
 Quadrupole moment (field-independent basis, Debye-Ang):
   XX=           -177.5775   YY=           -163.5245   ZZ=           -128.0079
   XY=            -24.3551   XZ=             -0.0905   YZ=              1.7064

 Summary of Natural Population Analysis:

                                       Natural Population
                Natural  -----------------------------------------------
    Atom  No    Charge         Core      Valence    Rydberg      Total
 -----------------------------------------------------------------------
      C    1   -0.29406      0.99962     2.28819    0.00625     3.29406
      C    2    0.02210      0.99951     1.96490    0.01349     2.97790
      C    3   -0.26384      0.99953     2.25263    0.01168     3.26384
      S    4    0.08235      4.99963     2.90129    0.01673     7.91765
      C    5   -0.26020      0.99958     2.24917    0.01146     3.26020
      C    6   -0.01395      0.99958     2.00011    0.01425     3.01395
      O    7   -0.37842      0.99989     3.37027    0.00825     4.37842
      C    8    0.42194      0.99961     1.55013    0.02833     2.57806
      O    9   -0.31615      0.99987     3.31112    0.00516     4.31615
      O   10   -0.27097      0.99985     3.26217    0.00895     4.27097
      C   11   -0.10630      0.99959     2.09734    0.00936     3.10630
      N   12   -0.34231      0.99970     2.83094    0.01167     3.84231
      C   13   -0.02629      0.99957     2.01318    0.01353     3.02629
      C   14   -0.19969      0.99962     2.19332    0.00675     3.19969
      C   15   -0.20066      0.99962     2.19286    0.00818     3.20066
      H   16    0.10862      0.00000     0.39006    0.00132     0.39138
      H   17    0.10425      0.00000     0.39467    0.00108     0.39575
      H   18    0.10951      0.00000     0.38924    0.00125     0.39049
      H   19    0.10969      0.00000     0.38925    0.00107     0.39031
      H   20    0.12608      0.00000     0.37178    0.00215     0.37392
      H   21    0.10410      0.00000     0.39409    0.00180     0.39590
      H   22    0.10891      0.00000     0.38983    0.00126     0.39109
      H   23    0.08159      0.00000     0.41497    0.00343     0.41841
      H   24    0.08055      0.00000     0.41693    0.00252     0.41945
      H   25    0.24185      0.00000     0.23352    0.02463     0.25815
      H   26    0.09118      0.00000     0.40765    0.00117     0.40882
      H   27    0.09375      0.00000     0.40501    0.00124     0.40625
      H   28    0.09350      0.00000     0.40516    0.00134     0.40650
      H   29    0.18349      0.00000     0.31419    0.00232     0.31651
      H   30    0.09614      0.00000     0.40215    0.00171     0.40386
      H   31    0.10154      0.00000     0.39755    0.00091     0.39846
      H   32    0.10309      0.00000     0.39587    0.00103     0.39691
      H   33    0.10444      0.00000     0.39447    0.00109     0.39556
      H   34    0.10416      0.00000     0.39489    0.00095     0.39584
 =======================================================================
   * Total *    0.00000     18.99478    43.77890    0.22632    63.00000

 Normal termination of Gaussian 16 at Thu Dec 10 17:19:13 2020.
