 Gaussian 16, Revision A.03,

 -----------------------------------------------------------
 # opt freq B3LYP/6-31G(d) empiricaldispersion=gd3bj scf=xqc
 -----------------------------------------------------------

 -------------------------------
 CID_131057082_JID_5866_neutraal
 -------------------------------
 Symbolic Z-matrix:
 Charge =  0 Multiplicity = 1

 SCF Done:  E(RB3LYP) =  -709.856510259     A.U. after   15 cycles
 SCF Done:  E(RB3LYP) =  -709.862754590     A.U. after   12 cycles
 SCF Done:  E(RB3LYP) =  -709.863524453     A.U. after   11 cycles
 SCF Done:  E(RB3LYP) =  -709.863521834     A.U. after   12 cycles
 SCF Done:  E(RB3LYP) =  -709.864010756     A.U. after   11 cycles
 SCF Done:  E(RB3LYP) =  -709.864351990     A.U. after   11 cycles
 SCF Done:  E(RB3LYP) =  -709.864526049     A.U. after   11 cycles
 SCF Done:  E(RB3LYP) =  -709.864691341     A.U. after   12 cycles
 SCF Done:  E(RB3LYP) =  -709.864705954     A.U. after   11 cycles
 SCF Done:  E(RB3LYP) =  -709.864717362     A.U. after    8 cycles
 SCF Done:  E(RB3LYP) =  -709.864955343     A.U. after   12 cycles
 SCF Done:  E(RB3LYP) =  -709.864983243     A.U. after   10 cycles
 SCF Done:  E(RB3LYP) =  -709.865021032     A.U. after   11 cycles
 SCF Done:  E(RB3LYP) =  -709.865023162     A.U. after    8 cycles
 SCF Done:  E(RB3LYP) =  -709.865023409     A.U. after    7 cycles
 Optimization completed.
    -- Stationary point found.
 Normal termination of Gaussian 16 at Thu Dec 10 17:25:26 2020.

 --------------------------------------------------------------------
 #N Geom=AllCheck Guess=TCheck SCRF=Check GenChk RB3LYP/6-31G(d) Freq
 --------------------------------------------------------------------

 Structure from the checkpoint file:  "JID_5866.chk"
 -------------------------------
 CID_131057082_JID_5866_neutraal
 -------------------------------
 Charge =  0 Multiplicity = 1

 SCF Done:  E(RB3LYP) =  -709.865023409     A.U. after    1 cycles

  Exact polarizability: 163.531  -5.422 124.055   3.603   0.760  98.650
 Approx polarizability: 187.551  -9.163 202.835   1.269   2.153 149.602

                      1                      2                      3
                      A                      A                      A
 Frequencies --     24.2496                50.9348                72.9247
 Red. masses --      4.1529                 3.2395                 4.2070
 Frc consts  --      0.0014                 0.0050                 0.0132
 IR Inten    --      0.0851                 4.0181                 1.3664

                      4                      5                      6
                      A                      A                      A
 Frequencies --     79.5833                95.1324               137.9876
 Red. masses --      2.7856                 3.8963                 3.3970
 Frc consts  --      0.0104                 0.0208                 0.0381
 IR Inten    --      1.2181                 1.3889                 0.5043

                      7                      8                      9
                      A                      A                      A
 Frequencies --    172.3192               200.4112               205.7345
 Red. masses --      1.3039                 1.8938                 4.2136
 Frc consts  --      0.0228                 0.0448                 0.1051
 IR Inten    --      0.6770                 0.9303                 8.1587

                     10                     11                     12
                      A                      A                      A
 Frequencies --    221.8561               232.6380               268.5784
 Red. masses --      2.4388                 1.2639                 2.5266
 Frc consts  --      0.0707                 0.0403                 0.1074
 IR Inten    --      1.5736                 1.1073                 3.3982

                     13                     14                     15
                      A                      A                      A
 Frequencies --    301.7700               320.8843               367.4548
 Red. masses --      3.3578                 3.3397                 2.6916
 Frc consts  --      0.1802                 0.2026                 0.2141
 IR Inten    --      3.0636                 3.4779                 1.5039

                     16                     17                     18
                      A                      A                      A
 Frequencies --    397.9023               445.7909               447.2079
 Red. masses --      2.2688                 3.6380                 2.9440
 Frc consts  --      0.2116                 0.4260                 0.3469
 IR Inten    --      1.6206                 3.6554                11.9597

                     19                     20                     21
                      A                      A                      A
 Frequencies --    481.7156               512.8511               588.6257
 Red. masses --      3.1174                 4.0320                 3.9770
 Frc consts  --      0.4262                 0.6248                 0.8119
 IR Inten    --      3.3139                11.2372                 5.4549

                     22                     23                     24
                      A                      A                      A
 Frequencies --    642.8914               653.7117               696.5670
 Red. masses --      3.7913                 2.2156                 2.7234
 Frc consts  --      0.9232                 0.5579                 0.7785
 IR Inten    --      5.6263                 2.6989                 0.1389

                     25                     26                     27
                      A                      A                      A
 Frequencies --    749.0192               798.1761               814.7651
 Red. masses --      4.9853                 3.6528                 3.4568
 Frc consts  --      1.6479                 1.3711                 1.3520
 IR Inten    --     22.4304                 0.6901                 6.6182

                     28                     29                     30
                      A                      A                      A
 Frequencies --    853.4009               867.1612               884.5617
 Red. masses --      3.2968                 1.7418                 2.0477
 Frc consts  --      1.4147                 0.7717                 0.9440
 IR Inten    --      6.0708                21.1364                23.9262

                     31                     32                     33
                      A                      A                      A
 Frequencies --    912.7398               922.7096               959.4842
 Red. masses --      2.3623                 1.9185                 2.3131
 Frc consts  --      1.1595                 0.9624                 1.2547
 IR Inten    --     19.9818                12.8355                13.2522

                     34                     35                     36
                      A                      A                      A
 Frequencies --    977.4142               997.4388              1004.8202
 Red. masses --      1.4150                 2.0172                 1.6984
 Frc consts  --      0.7965                 1.1824                 1.0103
 IR Inten    --      0.0373                 5.3342                 4.7192

                     37                     38                     39
                      A                      A                      A
 Frequencies --   1021.3924              1051.2651              1056.7763
 Red. masses --      1.2523                 4.2453                 2.5089
 Frc consts  --      0.7697                 2.7643                 1.6508
 IR Inten    --      7.5501                32.6138                21.4465

                     40                     41                     42
                      A                      A                      A
 Frequencies --   1083.6069              1119.0969              1120.5147
 Red. masses --      5.4899                 1.6576                 1.6714
 Frc consts  --      3.7980                 1.2231                 1.2364
 IR Inten    --     24.3426                13.7166                 0.8898

                     43                     44                     45
                      A                      A                      A
 Frequencies --   1135.2703              1156.6148              1173.0004
 Red. masses --      2.3526                 1.9245                 2.0132
 Frc consts  --      1.7865                 1.5169                 1.6320
 IR Inten    --    128.7350                23.6108                30.6741

                     46                     47                     48
                      A                      A                      A
 Frequencies --   1178.9938              1218.4299              1228.1203
 Red. masses --      2.5233                 2.0696                 1.7331
 Frc consts  --      2.0666                 1.8102                 1.5401
 IR Inten    --     91.7845                34.5221                30.7315

                     49                     50                     51
                      A                      A                      A
 Frequencies --   1231.2637              1245.6096              1255.7854
 Red. masses --      1.3121                 1.7951                 1.8304
 Frc consts  --      1.1720                 1.6410                 1.7007
 IR Inten    --      5.2845                16.0640                25.0540

                     52                     53                     54
                      A                      A                      A
 Frequencies --   1263.3073              1288.8595              1324.8482
 Red. masses --      1.2673                 1.8105                 1.4641
 Frc consts  --      1.1916                 1.7720                 1.5141
 IR Inten    --     20.9945                48.4827                 3.0324

                     55                     56                     57
                      A                      A                      A
 Frequencies --   1370.0774              1380.5689              1393.2870
 Red. masses --      1.5446                 1.4656                 1.3782
 Frc consts  --      1.7083                 1.6459                 1.5764
 IR Inten    --     19.0103                15.5176                 6.7059

                     58                     59                     60
                      A                      A                      A
 Frequencies --   1401.4023              1402.0039              1435.6923
 Red. masses --      1.7220                 1.3299                 2.4252
 Frc consts  --      1.9925                 1.5402                 2.9452
 IR Inten    --     50.0716                13.3967               199.8741

                     61                     62                     63
                      A                      A                      A
 Frequencies --   1438.9472              1451.3329              1503.7456
 Red. masses --      1.6577                 1.4621                 1.0489
 Frc consts  --      2.0223                 1.8145                 1.3974
 IR Inten    --     92.6271                81.6592                 2.5947

                     64                     65                     66
                      A                      A                      A
 Frequencies --   1505.6580              1512.2046              1520.7669
 Red. masses --      1.1047                 1.0479                 1.0836
 Frc consts  --      1.4755                 1.4119                 1.4765
 IR Inten    --      5.9024                 2.8381                14.3813

                     67                     68                     69
                      A                      A                      A
 Frequencies --   1526.3450              1530.6465              1539.3812
 Red. masses --      1.0496                 1.0783                 1.0943
 Frc consts  --      1.4407                 1.4885                 1.5279
 IR Inten    --     17.0077                 3.5148                 1.1526

                     70                     71                     72
                      A                      A                      A
 Frequencies --   1549.8941              1550.9996              1720.2473
 Red. masses --      1.0988                 1.1034                 8.2552
 Frc consts  --      1.5552                 1.5639                14.3933
 IR Inten    --      4.7978                 0.7352               153.0254

                     73                     74                     75
                      A                      A                      A
 Frequencies --   1745.8410              3018.6851              3030.2013
 Red. masses --      8.4664                 1.0721                 1.0393
 Frc consts  --     15.2040                 5.7560                 5.6226
 IR Inten    --    191.5927                44.7936                18.5493

                     76                     77                     78
                      A                      A                      A
 Frequencies --   3037.0430              3039.4732              3057.1515
 Red. masses --      1.0416                 1.0663                 1.0692
 Frc consts  --      5.6605                 5.8040                 5.8879
 IR Inten    --     38.0723                67.5193                34.1564

                     79                     80                     81
                      A                      A                      A
 Frequencies --   3076.7917              3080.2568              3081.4364
 Red. masses --      1.0994                 1.0610                 1.0969
 Frc consts  --      6.1321                 5.9309                 6.1367
 IR Inten    --      2.8062                19.4046                36.2851

                     82                     83                     84
                      A                      A                      A
 Frequencies --   3083.8106              3119.9923              3128.4191
 Red. masses --      1.0599                 1.0983                 1.1077
 Frc consts  --      5.9384                 6.2991                 6.3876
 IR Inten    --     19.4434                38.1712                 9.9861

                     85                     86                     87
                      A                      A                      A
 Frequencies --   3131.8684              3134.7069              3137.1701
 Red. masses --      1.0998                 1.1005                 1.0971
 Frc consts  --      6.3557                 6.3712                 6.3616
 IR Inten    --     19.5190                15.6632                35.2629

                     88                     89                     90
                      A                      A                      A
 Frequencies --   3142.8813              3157.9069              3177.6770
 Red. masses --      1.1018                 1.0973                 1.0885
 Frc consts  --      6.4121                 6.4470                 6.4756
 IR Inten    --     19.8060                11.3023                10.3285

 - Thermochemistry -
 -------------------
 Temperature   298.150 Kelvin.  Pressure   1.00000 Atm.
 Atom     1 has atomic number  6 and mass  12.00000

 Molecular mass:   211.12084 amu.
 Principal axes and moments of inertia in atomic units:
                           1         2         3
     Eigenvalues --  1250.274745889.901346415.89891
           X            0.99993  -0.01152   0.00321
           Y            0.01149   0.99987   0.01105
           Z           -0.00334  -0.01101   0.99993
 This molecule is an asymmetric top.
 Rotational symmetry number  1.
 Warning -- assumption of classical behavior for rotation
           may cause significant error
 Rotational temperatures (Kelvin)      0.06928     0.01471     0.01350
 Rotational constants (GHZ):           1.44348     0.30641     0.28129
 Zero-point vibrational energy     721519.8 (Joules/Mol)
                                  172.44736 (Kcal/Mol)
 Warning -- explicit consideration of  21 degrees of freedom as
           vibrations may cause significant error
 Vibrational temperatures:     34.89    73.28   104.92   114.50   136.87
          (Kelvin)            198.53   247.93   288.35   296.01   319.20
                              334.71   386.42   434.18   461.68   528.69
                              572.49   641.39   643.43   693.08   737.88
                              846.90   924.98   940.55  1002.20  1077.67
                             1148.40  1172.27  1227.85  1247.65  1272.69
                             1313.23  1327.57  1380.48  1406.28  1435.09
                             1445.71  1469.56  1512.54  1520.47  1559.07
                             1610.13  1612.17  1633.40  1664.11  1687.69
                             1696.31  1753.05  1766.99  1771.51  1792.15
                             1806.80  1817.62  1854.38  1906.16  1971.24
                             1986.33  2004.63  2016.31  2017.17  2065.64
                             2070.32  2088.14  2163.55  2166.31  2175.73
                             2188.04  2196.07  2202.26  2214.83  2229.95
                             2231.54  2475.05  2511.88  4343.21  4359.78
                             4369.63  4373.12  4398.56  4426.82  4431.80
                             4433.50  4436.92  4488.97  4501.10  4506.06
                             4510.14  4513.69  4521.91  4543.52  4571.97

 Zero-point correction=                           0.274812 (Hartree/Particle)
 Thermal correction to Energy=                    0.289700
 Thermal correction to Enthalpy=                  0.290645
 Thermal correction to Gibbs Free Energy=         0.231850
 Sum of electronic and zero-point Energies=           -709.590211
 Sum of electronic and thermal Energies=              -709.575323
 Sum of electronic and thermal Enthalpies=            -709.574379
 Sum of electronic and thermal Free Energies=         -709.633174

                     E (Thermal)             CV                S
                      KCal/Mol        Cal/Mol-Kelvin    Cal/Mol-Kelvin
 Total                  181.790             55.729            123.744
 Electronic               0.000              0.000              0.000
 Translational            0.889              2.981             41.945
 Rotational               0.889              2.981             32.224
 Vibrational            180.012             49.768             49.575
 Vibration     1          0.593              1.985              6.252
 Vibration     2          0.595              1.977              4.781
 Vibration     3          0.599              1.967              4.073
 Vibration     4          0.600              1.963              3.901
 Vibration     5          0.603              1.953              3.552
 Vibration     6          0.614              1.915              2.832
 Vibration     7          0.626              1.877              2.410
 Vibration     8          0.638              1.839              2.129
 Vibration     9          0.640              1.832              2.081
 Vibration    10          0.648              1.808              1.944
 Vibration    11          0.653              1.791              1.858
 Vibration    12          0.673              1.731              1.605
 Vibration    13          0.694              1.670              1.407
 Vibration    14          0.706              1.634              1.306
 Vibration    15          0.740              1.539              1.090
 Vibration    16          0.764              1.475              0.970
 Vibration    17          0.805              1.370              0.809
 Vibration    18          0.806              1.367              0.804
 Vibration    19          0.838              1.291              0.705
 Vibration    20          0.868              1.222              0.627
 Vibration    21          0.946              1.056              0.470

 Optimization completed.
    -- Stationary point found.
 Normal termination of Gaussian 16 at Thu Dec 10 17:35:12 2020.

 ----------------------------------------------------------------------
 # B3LYP/6-311++G(d,p) empiricaldispersion=gd3bj scf=xqc pop=npa geom=c
 heck
 ----------------------------------------------------------------------

 ---------------------------------------
 CID_131057082_JID_5866_Energie_neutraal
 ---------------------------------------
 Structure from the checkpoint file:  "JID_5866.chk"
 Charge =  0 Multiplicity = 1

 SCF Done:  E(RB3LYP) =  -710.066739313     A.U. after   15 cycles
 Normal termination of Gaussian 16 at Thu Dec 10 17:39:32 2020.

 ----------------------------------------------------------------------
 # B3LYP/6-311++G(d,p) empiricaldispersion=gd3bj scf=xqc pop=npa geom=c
 heck
 ----------------------------------------------------------------------

 -------------------------------------
 CID_131057082_JID_5866_Energie_kation
 -------------------------------------
 Structure from the checkpoint file:  "JID_5866.chk"
 Charge =  1 Multiplicity = 2

 SCF Done:  E(UB3LYP) =  -709.758517307     A.U. after   32 cycles
 Normal termination of Gaussian 16 at Thu Dec 10 17:50:47 2020.
 Gaussian 16:  ES64L-G16RevA.03 25-Dec-2016

 ----------------------------------------------------------------------
 # B3LYP/6-311++G(d,p) empiricaldispersion=gd3bj scf=xqc pop=npa geom=c
 heck
 ----------------------------------------------------------------------

 ------------------------------------
 CID_131057082_JID_5866_Energie_anion
 ------------------------------------
 Structure from the checkpoint file:  "JID_5866.chk"
 Charge = -1 Multiplicity = 2

                         Standard orientation:
 ---------------------------------------------------------------------
 Center     Atomic      Atomic             Coordinates (Angstroms)
 Number     Number       Type             X           Y           Z
 ---------------------------------------------------------------------
      1          6           0        4.798266   -0.795516    0.400340
      2          6           0        3.413554   -0.436981   -0.075024
      3          6           0        2.826364    0.702913    0.323403
      4          6           0        1.518928    1.258567   -0.136584
      5          8           0        1.452003    2.396070   -0.601704
      6          7           0        0.399338    0.478607   -0.013585
      7          6           0        0.243849   -0.706958    0.845794
      8          6           0       -1.176798   -0.554881    1.392915
      9          6           0       -1.918441    0.079426    0.208257
     10          6           0       -0.894583    1.051846   -0.389466
     11          8           0       -2.259726   -0.899757   -0.769570
     12          6           0       -3.632069   -1.213779   -0.559373
     13          6           0       -4.200924    0.137595   -0.139123
     14          8           0       -3.127906    0.708320    0.608310
     15          6           0        2.799512   -1.415420   -1.042303
     16          1           0        5.191593   -0.060409    1.108231
     17          1           0        5.495330   -0.866432   -0.445516
     18          1           0        4.799583   -1.779774    0.888467
     19          1           0        3.386442    1.397355    0.946060
     20          1           0        0.325952   -1.627208    0.255516
     21          1           0        1.015957   -0.723729    1.616532
     22          1           0       -1.631850   -1.500393    1.699477
     23          1           0       -1.200492    0.142635    2.236608
     24          1           0       -1.013485    2.049821    0.043842
     25          1           0       -1.006364    1.129199   -1.473954
     26          1           0       -3.751908   -1.963465    0.237041
     27          1           0       -4.040681   -1.607300   -1.492725
     28          1           0       -5.080056    0.069226    0.507483
     29          1           0       -4.437905    0.761033   -1.011999
     30          1           0        3.491668   -1.602315   -1.873597
     31          1           0        2.625361   -2.386586   -0.559047
     32          1           0        1.854584   -1.059849   -1.456634
 ---------------------------------------------------------------------

 SCF Done:  E(UB3LYP) =  -710.056142272     A.U. after   33 cycles
 SCF Done:  E(UB3LYP) =  -710.056142272     a.u. after    1 cycles

 The electronic state is 2-A.
 Alpha  occ. eigenvalues --  -19.04753 -19.04714 -18.98960 -14.24791 -10.19148
 Alpha  occ. eigenvalues --  -10.17506 -10.13430 -10.13280 -10.11459 -10.10942
 Alpha  occ. eigenvalues --  -10.10378 -10.08254 -10.07873 -10.07845 -10.07684
 Alpha  occ. eigenvalues --   -1.01118  -0.94151  -0.91497  -0.85118  -0.73307
 Alpha  occ. eigenvalues --   -0.71205  -0.66515  -0.63707  -0.61006  -0.60325
 Alpha  occ. eigenvalues --   -0.56123  -0.54150  -0.49736  -0.47841  -0.45526
 Alpha  occ. eigenvalues --   -0.43282  -0.41541  -0.39603  -0.39112  -0.37670
 Alpha  occ. eigenvalues --   -0.37033  -0.35776  -0.35007  -0.34482  -0.32813
 Alpha  occ. eigenvalues --   -0.32302  -0.31124  -0.30385  -0.30267  -0.29432
 Alpha  occ. eigenvalues --   -0.28900  -0.28696  -0.28250  -0.26934  -0.26054
 Alpha  occ. eigenvalues --   -0.25883  -0.25565  -0.19264  -0.17685  -0.17274
 Alpha  occ. eigenvalues --   -0.15383  -0.15025   0.03946
 Alpha virt. eigenvalues --    0.05443   0.06429   0.07385   0.07667   0.08168
 Alpha virt. eigenvalues --    0.08319   0.08985   0.09619   0.10138   0.10716
 Alpha virt. eigenvalues --    0.11379   0.11476   0.11957   0.12785   0.13238

  Beta  occ. eigenvalues --  -19.04750 -19.04713 -18.98960 -14.24790 -10.19147
  Beta  occ. eigenvalues --  -10.17506 -10.13404 -10.13240 -10.11440 -10.10939
  Beta  occ. eigenvalues --  -10.10374 -10.08234 -10.07837 -10.07835 -10.07657
  Beta  occ. eigenvalues --   -1.01111  -0.94149  -0.91489  -0.85110  -0.73285
  Beta  occ. eigenvalues --   -0.71180  -0.66482  -0.63675  -0.60957  -0.60281
  Beta  occ. eigenvalues --   -0.56071  -0.54097  -0.49707  -0.47813  -0.45493
  Beta  occ. eigenvalues --   -0.43251  -0.41489  -0.39581  -0.39077  -0.37634
  Beta  occ. eigenvalues --   -0.36999  -0.35750  -0.34971  -0.34460  -0.32785
  Beta  occ. eigenvalues --   -0.32270  -0.31099  -0.30360  -0.30231  -0.29401
  Beta  occ. eigenvalues --   -0.28873  -0.28667  -0.28223  -0.26912  -0.26025
  Beta  occ. eigenvalues --   -0.25870  -0.25540  -0.19243  -0.17669  -0.17259
  Beta  occ. eigenvalues --   -0.15367  -0.15018
  Beta virt. eigenvalues --    0.06101   0.06571   0.06708   0.08067   0.08107
  Beta virt. eigenvalues --    0.08536   0.08866   0.09555   0.09934   0.10592
  Beta virt. eigenvalues --    0.11090   0.11495   0.11778   0.12272   0.12940

 Mulliken charges and spin densities:
               1          2
     1  C    1.127357  -1.621177
     2  C   -0.699880   1.546662
     3  C    0.462580  -0.603435
     4  C   -0.611997  -0.000143
     5  O   -0.321318   0.000008
     6  N    0.068844   0.064537
     7  C   -0.522802   0.422086
     8  C    1.883226  -2.222207
     9  C   -2.286162   0.950327
    10  C    0.291644  -0.157513
    11  O   -0.029584   0.047299
    12  C    0.760794  -0.782500
    13  C    0.621649  -0.721394
    14  O   -0.029275   0.032373
    15  C   -0.112906  -0.566017
    16  H   -0.252991   0.411404
    17  H   -0.022610   0.160891
    18  H   -0.337077   0.496377
    19  H    0.061147   0.137623
    20  H    0.128908   0.048116
    21  H   -0.074723   0.276183
    22  H   -0.382960   0.565493
    23  H    0.158787   0.041032
    24  H    0.163871   0.063317
    25  H    0.161892   0.054337
    26  H   -0.134578   0.284368
    27  H   -0.537963   0.705518
    28  H   -0.512286   0.689872
    29  H    0.108330   0.015271
    30  H   -0.055993   0.218569
    31  H   -0.177289   0.350911
    32  H    0.103364   0.091813
 Sum of Mulliken charges =  -1.00000   1.00000

 Dipole moment (field-independent basis, Debye):
    X=              0.6017    Y=              2.6323    Z=             -0.7072  Tot=              2.7912
 Quadrupole moment (field-independent basis, Debye-Ang):
   XX=           -187.6226   YY=           -139.0343   ZZ=           -122.5919
   XY=             -5.2745   XZ=             -1.9159   YZ=              5.4466

 Summary of Natural Population Analysis:

                                       Natural Population
                Natural  -----------------------------------------------
    Atom  No    Charge         Core      Valence    Rydberg      Total
 -----------------------------------------------------------------------
      C    1   -0.29711      0.99962     2.29149    0.00599     3.29711
      C    2    0.01855      0.99952     1.97304    0.00889     2.98145
      C    3   -0.14991      0.99941     2.13995    0.01055     3.14991
      C    4    0.33240      0.99961     1.64622    0.02177     2.66760
      O    5   -0.32434      0.99988     3.31939    0.00507     4.32434
      N    6   -0.25258      0.99965     2.74420    0.00873     3.75258
      C    7   -0.08416      0.99962     2.07428    0.01025     3.08416
      C    8   -0.21063      0.99955     2.20129    0.00979     3.21063
      C    9    0.29334      0.99952     1.68386    0.02328     2.70666
      C   10   -0.09753      0.99954     2.08713    0.01086     3.09753
      O   11   -0.30469      0.99987     3.29590    0.00892     4.30469
      C   12   -0.02453      0.99959     2.01294    0.01200     3.02453
      C   13   -0.02138      0.99958     2.00983    0.01197     3.02138
      O   14   -0.30397      0.99987     3.29591    0.00819     4.30397
      C   15   -0.30699      0.99961     2.30097    0.00640     3.30699
      H   16    0.10252      0.00000     0.39648    0.00100     0.39748
      H   17    0.10242      0.00000     0.39652    0.00106     0.39758
      H   18    0.10739      0.00000     0.39073    0.00188     0.39261
      H   19    0.10506      0.00000     0.39396    0.00098     0.39494
      H   20    0.09749      0.00000     0.40051    0.00200     0.40251
      H   21    0.10763      0.00000     0.39089    0.00148     0.39237
      H   22    0.11078      0.00000     0.38781    0.00141     0.38922
      H   23    0.10486      0.00000     0.39381    0.00133     0.39514
      H   24    0.10936      0.00000     0.38935    0.00129     0.39064
      H   25    0.10713      0.00000     0.39162    0.00125     0.39287
      H   26    0.08459      0.00000     0.41285    0.00255     0.41541
      H   27    0.09707      0.00000     0.40108    0.00185     0.40293
      H   28    0.09462      0.00000     0.40345    0.00193     0.40538
      H   29    0.08095      0.00000     0.41775    0.00130     0.41905
      H   30    0.10425      0.00000     0.39487    0.00087     0.39575
      H   31    0.10900      0.00000     0.38959    0.00141     0.39100
      H   32    0.10839      0.00000     0.39035    0.00126     0.39161
 =======================================================================
   * Total *    0.00000     14.99445    41.81802    0.18752    57.00000

 Normal termination of Gaussian 16 at Thu Dec 10 18:02:49 2020.
