 Gaussian 16, Revision A.03,

 -----------------------------------------------------------
 # opt freq B3LYP/6-31G(d) empiricaldispersion=gd3bj scf=xqc
 -----------------------------------------------------------

 -------------------------------
 CID_144069501_JID_1183_neutraal
 -------------------------------
 Symbolic Z-matrix:
 Charge =  0 Multiplicity = 1

 SCF Done:  E(RB3LYP) =  -876.752551657     A.U. after   15 cycles
 SCF Done:  E(RB3LYP) =  -876.757820058     A.U. after   14 cycles
 SCF Done:  E(RB3LYP) =  -876.757649435     A.U. after   14 cycles
 SCF Done:  E(RB3LYP) =  -876.762262525     A.U. after   13 cycles
 SCF Done:  E(RB3LYP) =  -876.763038115     A.U. after   13 cycles
 SCF Done:  E(RB3LYP) =  -876.763088636     A.U. after   13 cycles
 SCF Done:  E(RB3LYP) =  -876.763277152     A.U. after   12 cycles
 SCF Done:  E(RB3LYP) =  -876.763343059     A.U. after   11 cycles
 SCF Done:  E(RB3LYP) =  -876.763362365     A.U. after   11 cycles
 SCF Done:  E(RB3LYP) =  -876.763364668     A.U. after   10 cycles
 SCF Done:  E(RB3LYP) =  -876.763369004     A.U. after   10 cycles
 SCF Done:  E(RB3LYP) =  -876.763369963     A.U. after   10 cycles
 SCF Done:  E(RB3LYP) =  -876.763370676     A.U. after    8 cycles
 Optimization completed.
    -- Stationary point found.
 Normal termination of Gaussian 16 at Tue Dec  8 19:16:00 2020.

 --------------------------------------------------------------------
 #N Geom=AllCheck Guess=TCheck SCRF=Check GenChk RB3LYP/6-31G(d) Freq
 --------------------------------------------------------------------

 Structure from the checkpoint file:  "JID_1183.chk"
 -------------------------------
 CID_144069501_JID_1183_neutraal
 -------------------------------
 Charge =  0 Multiplicity = 1

 SCF Done:  E(RB3LYP) =  -876.763370676     A.U. after    1 cycles

  Exact polarizability: 139.127 -14.102 135.810   1.019  -6.879  61.785
 Approx polarizability: 217.279 -45.160 206.810   0.846 -12.523  94.511

                      1                      2                      3
                      A                      A                      A
 Frequencies --     41.2429                64.5104               109.1321
 Red. masses --      4.7250                 4.3089                 3.3210
 Frc consts  --      0.0047                 0.0106                 0.0233
 IR Inten    --      0.8466                 3.2434                 3.4405

                      4                      5                      6
                      A                      A                      A
 Frequencies --    110.4499               137.5504               150.5423
 Red. masses --      2.8897                 2.7899                 1.2285
 Frc consts  --      0.0208                 0.0311                 0.0164
 IR Inten    --      1.2974                 1.5573                 0.1075

                      7                      8                      9
                      A                      A                      A
 Frequencies --    181.4234               216.2357               233.5271
 Red. masses --      3.1959                 1.1255                 3.7360
 Frc consts  --      0.0620                 0.0310                 0.1200
 IR Inten    --      0.4617                 0.1217                 1.3181

                     10                     11                     12
                      A                      A                      A
 Frequencies --    243.3418               302.5261               333.4960
 Red. masses --      4.4602                 3.9925                 4.4953
 Frc consts  --      0.1556                 0.2153                 0.2946
 IR Inten    --      1.1236                 3.5419                 7.8683

                     13                     14                     15
                      A                      A                      A
 Frequencies --    366.0347               380.3031               437.6776
 Red. masses --      3.9817                 2.8062                 4.7339
 Frc consts  --      0.3143                 0.2391                 0.5343
 IR Inten    --     17.9467                 4.0719                 2.6711

                     16                     17                     18
                      A                      A                      A
 Frequencies --    489.3558               531.5833               545.2128
 Red. masses --      1.0934                 3.7200                 5.1845
 Frc consts  --      0.1543                 0.6193                 0.9080
 IR Inten    --     27.6717                 3.1053                14.0322

                     19                     20                     21
                      A                      A                      A
 Frequencies --    641.4588               709.0523               748.4216
 Red. masses --      3.6617                 2.8152                 2.5870
 Frc consts  --      0.8877                 0.8339                 0.8538
 IR Inten    --      1.7756                17.1905                17.9969

                     22                     23                     24
                      A                      A                      A
 Frequencies --    805.9432               816.7337               845.0953
 Red. masses --      1.3552                 3.3483                 1.6755
 Frc consts  --      0.5187                 1.3159                 0.7050
 IR Inten    --      2.9566                 5.7616                24.6373

                     25                     26                     27
                      A                      A                      A
 Frequencies --    905.0548               967.3302              1000.9438
 Red. masses --      2.2801                 2.1641                 5.6820
 Frc consts  --      1.1004                 1.1931                 3.3540
 IR Inten    --     53.7846                 1.5690                13.5856

                     28                     29                     30
                      A                      A                      A
 Frequencies --   1044.5327              1079.0713              1119.0797
 Red. masses --      1.3549                 2.3789                 2.5283
 Frc consts  --      0.8710                 1.6320                 1.8655
 IR Inten    --     19.2217                 8.3721                72.0612

                     31                     32                     33
                      A                      A                      A
 Frequencies --   1128.5054              1184.4548              1188.5574
 Red. masses --      2.7249                 1.2761                 2.3721
 Frc consts  --      2.0446                 1.0548                 1.9744
 IR Inten    --     31.3972                 1.5773                32.8636

                     34                     35                     36
                      A                      A                      A
 Frequencies --   1219.9146              1247.3103              1302.4293
 Red. masses --      1.5096                 1.8665                 2.0356
 Frc consts  --      1.3237                 1.7109                 2.0344
 IR Inten    --     19.7094               173.9348               156.8350

                     37                     38                     39
                      A                      A                      A
 Frequencies --   1322.6458              1366.3583              1430.3611
 Red. masses --      1.8739                 1.4310                 1.2116
 Frc consts  --      1.9315                 1.5740                 1.4604
 IR Inten    --    134.1867                 4.5042                 2.4870

                     40                     41                     42
                      A                      A                      A
 Frequencies --   1488.9724              1511.7545              1512.3916
 Red. masses --      1.1947                 1.0489                 1.1697
 Frc consts  --      1.5605                 1.4123                 1.5763
 IR Inten    --     11.2168                 5.2271                18.5769

                     43                     44                     45
                      A                      A                      A
 Frequencies --   1522.4327              1526.1088              1526.7970
 Red. masses --      1.0587                 1.0469                 1.0620
 Frc consts  --      1.4458                 1.4366                 1.4587
 IR Inten    --     11.4510                 5.1960                 3.7104

                     46                     47                     48
                      A                      A                      A
 Frequencies --   1541.7715              1588.2861              1710.8043
 Red. masses --      1.0776                 7.4446                 6.4888
 Frc consts  --      1.5091                11.0650                11.1897
 IR Inten    --      6.6092               113.0868                 9.9045

                     49                     50                     51
                      A                      A                      A
 Frequencies --   1776.4393              2595.3558              3062.5425
 Red. masses --     10.4817                 1.0361                 1.0421
 Frc consts  --     19.4886                 4.1119                 5.7588
 IR Inten    --    260.2954                48.8335                27.8771

                     52                     53                     54
                      A                      A                      A
 Frequencies --   3064.6245              3077.3551              3110.4532
 Red. masses --      1.0639                 1.0293                 1.0521
 Frc consts  --      5.8874                 5.7432                 5.9971
 IR Inten    --     24.7498                35.0135                29.1364

                     55                     56                     57
                      A                      A                      A
 Frequencies --   3127.2811              3147.5471              3152.5309
 Red. masses --      1.1018                 1.0941                 1.1075
 Frc consts  --      6.3486                 6.3865                 6.4851
 IR Inten    --     15.6857                14.6410                18.8389

                     58                     59                     60
                      A                      A                      A
 Frequencies --   3158.8519              3183.9645              3202.9844
 Red. masses --      1.1011                 1.1073                 1.1201
 Frc consts  --      6.4733                 6.6139                 6.7705
 IR Inten    --     19.8050                14.3891                13.8158

 - Thermochemistry -
 -------------------
 Temperature   298.150 Kelvin.  Pressure   1.00000 Atm.
 Atom     1 has atomic number  6 and mass  12.00000

 Molecular mass:   173.05105 amu.
 Principal axes and moments of inertia in atomic units:
                           1         2         3
     Eigenvalues --  1555.202042217.329003581.71278
           X            0.99991   0.01352   0.00010
           Y           -0.01352   0.99991  -0.00162
           Z           -0.00012   0.00161   1.00000
 This molecule is an asymmetric top.
 Rotational symmetry number  1.
 Warning -- assumption of classical behavior for rotation
           may cause significant error
 Rotational temperatures (Kelvin)      0.05569     0.03906     0.02418
 Rotational constants (GHZ):           1.16045     0.81393     0.50388
 Zero-point vibrational energy     457790.8 (Joules/Mol)
                                  109.41463 (Kcal/Mol)
 Warning -- explicit consideration of  18 degrees of freedom as
           vibrations may cause significant error
 Vibrational temperatures:     59.34    92.82   157.02   158.91   197.90
          (Kelvin)            216.60   261.03   311.11   335.99   350.11
                              435.27   479.83   526.64   547.17   629.72
                              704.07   764.83   784.44   922.92  1020.17
                             1076.81  1159.57  1175.10  1215.90  1302.17
                             1391.77  1440.13  1502.85  1552.54  1610.11
                             1623.67  1704.17  1710.07  1755.18  1794.60
                             1873.91  1902.99  1965.88  2057.97  2142.30
                             2175.08  2175.99  2190.44  2195.73  2196.72
                             2218.27  2285.19  2461.47  2555.90  3734.14
                             4406.32  4409.31  4427.63  4475.25  4499.46
                             4528.62  4535.79  4544.88  4581.01  4608.38

 Zero-point correction=                           0.174363 (Hartree/Particle)
 Thermal correction to Energy=                    0.187031
 Thermal correction to Enthalpy=                  0.187975
 Thermal correction to Gibbs Free Energy=         0.134943
 Sum of electronic and zero-point Energies=           -876.589007
 Sum of electronic and thermal Energies=              -876.576340
 Sum of electronic and thermal Enthalpies=            -876.575396
 Sum of electronic and thermal Free Energies=         -876.628428

                     E (Thermal)             CV                S
                      KCal/Mol        Cal/Mol-Kelvin    Cal/Mol-Kelvin
 Total                  117.364             44.863            111.616
 Electronic               0.000              0.000              0.000
 Translational            0.889              2.981             41.353
 Rotational               0.889              2.981             30.891
 Vibrational            115.586             38.901             39.372
 Vibration     1          0.594              1.981              5.198
 Vibration     2          0.597              1.971              4.314
 Vibration     3          0.606              1.942              3.284
 Vibration     4          0.606              1.941              3.261
 Vibration     5          0.614              1.916              2.838
 Vibration     6          0.618              1.902              2.665
 Vibration     7          0.630              1.865              2.314
 Vibration     8          0.645              1.816              1.990
 Vibration     9          0.654              1.790              1.852
 Vibration    10          0.659              1.774              1.778
 Vibration    11          0.694              1.669              1.403
 Vibration    12          0.715              1.609              1.243
 Vibration    13          0.739              1.542              1.096
 Vibration    14          0.750              1.512              1.038
 Vibration    15          0.798              1.388              0.834
 Vibration    16          0.845              1.274              0.685
 Vibration    17          0.887              1.180              0.584
 Vibration    18          0.900              1.150              0.554

 Optimization completed.
    -- Stationary point found.
 Normal termination of Gaussian 16 at Tue Dec  8 19:20:32 2020.

 ----------------------------------------------------------------------
 # B3LYP/6-311++G(d,p) empiricaldispersion=gd3bj scf=xqc pop=npa geom=c
 heck
 ----------------------------------------------------------------------

 ---------------------------------------
 CID_144069501_JID_1183_Energie_neutraal
 ---------------------------------------
 Structure from the checkpoint file:  "JID_1183.chk"
 Charge =  0 Multiplicity = 1

 SCF Done:  E(RB3LYP) =  -876.931325842     A.U. after   16 cycles
 Normal termination of Gaussian 16 at Tue Dec  8 19:22:45 2020.

 ----------------------------------------------------------------------
 # B3LYP/6-311++G(d,p) empiricaldispersion=gd3bj scf=xqc pop=npa geom=c
 heck
 ----------------------------------------------------------------------

 -------------------------------------
 CID_144069501_JID_1183_Energie_kation
 -------------------------------------
 Structure from the checkpoint file:  "JID_1183.chk"
 Charge =  1 Multiplicity = 2

 SCF Done:  E(UB3LYP) =  -876.632505549     A.U. after   23 cycles
 Normal termination of Gaussian 16 at Tue Dec  8 19:27:15 2020.
 Gaussian 16:  ES64L-G16RevA.03 25-Dec-2016

 ----------------------------------------------------------------------
 # B3LYP/6-311++G(d,p) empiricaldispersion=gd3bj scf=xqc pop=npa geom=c
 heck
 ----------------------------------------------------------------------

 ------------------------------------
 CID_144069501_JID_1183_Energie_anion
 ------------------------------------
 Structure from the checkpoint file:  "JID_1183.chk"
 Charge = -1 Multiplicity = 2

                         Standard orientation:
 ---------------------------------------------------------------------
 Center     Atomic      Atomic             Coordinates (Angstroms)
 Number     Number       Type             X           Y           Z
 ---------------------------------------------------------------------
      1          6           0        0.948336   -2.613740   -0.631819
      2          6           0        0.887345   -1.698239    0.603423
      3          6           0        1.056396   -0.241031    0.244701
      4          6           0        0.054798    0.676631    0.045544
      5          6           0       -1.391441    0.343775    0.161290
      6          8           0       -2.254647    1.128954    0.511227
      7          8           0       -1.689056   -0.924969   -0.214552
      8          6           0       -3.075956   -1.282248   -0.105248
      9          7           0        0.449767    1.987370   -0.260753
     10          6           0       -0.326571    2.992844   -0.387702
     11         16           0        2.751295    0.217788    0.104319
     12          1           0        0.132845   -2.375782   -1.318881
     13          1           0        0.854066   -3.661772   -0.327677
     14          1           0        1.897983   -2.495333   -1.162656
     15          1           0       -0.060012   -1.847030    1.121987
     16          1           0        1.688150   -1.974500    1.299427
     17          1           0       -3.423825   -1.169734    0.924770
     18          1           0       -3.685024   -0.649325   -0.755374
     19          1           0       -3.131410   -2.324391   -0.420069
     20          1           0       -1.406684    2.963909   -0.245780
     21          1           0        0.133845    3.945851   -0.652629
     22          1           0        2.463157    1.492068   -0.261479
 ---------------------------------------------------------------------

 SCF Done:  E(UB3LYP) =  -876.939015371     A.U. after   26 cycles

 The electronic state is 2-A.
 Alpha  occ. eigenvalues --  -88.69678 -19.03017 -18.96008 -14.15591 -10.14651
 Alpha  occ. eigenvalues --  -10.10961 -10.04126 -10.03743 -10.03624 -10.03022
 Alpha  occ. eigenvalues --  -10.02986  -7.78429  -5.74730  -5.74405  -5.73955
 Alpha  occ. eigenvalues --   -0.96886  -0.87536  -0.76790  -0.67951  -0.61891
 Alpha  occ. eigenvalues --   -0.60798  -0.56113  -0.50816  -0.46356  -0.43585
 Alpha  occ. eigenvalues --   -0.40767  -0.36480  -0.35523  -0.34905  -0.33084
 Alpha  occ. eigenvalues --   -0.31044  -0.30033  -0.28513  -0.27009  -0.26213
 Alpha  occ. eigenvalues --   -0.24835  -0.23475  -0.22121  -0.21334  -0.20939
 Alpha  occ. eigenvalues --   -0.19817  -0.17344  -0.14752  -0.14400  -0.09590
 Alpha  occ. eigenvalues --   -0.07243   0.04705
 Alpha virt. eigenvalues --    0.07772   0.09177   0.10462   0.10737   0.11570
 Alpha virt. eigenvalues --    0.12143   0.12291   0.12640   0.13148   0.13782
 Alpha virt. eigenvalues --    0.14568   0.15708   0.16542   0.16794   0.17018

  Beta  occ. eigenvalues --  -88.69664 -19.02980 -18.95921 -14.15545 -10.14526
  Beta  occ. eigenvalues --  -10.10957 -10.04150 -10.03791 -10.02910 -10.02909
  Beta  occ. eigenvalues --  -10.02705  -7.78416  -5.74736  -5.74407  -5.73883
  Beta  occ. eigenvalues --   -0.96764  -0.87389  -0.76472  -0.67282  -0.61770
  Beta  occ. eigenvalues --   -0.60590  -0.55899  -0.50461  -0.46043  -0.43035
  Beta  occ. eigenvalues --   -0.40490  -0.36263  -0.35195  -0.34773  -0.32930
  Beta  occ. eigenvalues --   -0.30928  -0.29857  -0.28192  -0.26541  -0.26026
  Beta  occ. eigenvalues --   -0.24368  -0.23369  -0.21898  -0.21074  -0.20266
  Beta  occ. eigenvalues --   -0.19577  -0.16998  -0.14313  -0.13335  -0.09465
  Beta  occ. eigenvalues --   -0.05788
  Beta virt. eigenvalues --    0.07658   0.09137   0.10420   0.10732   0.11348
  Beta virt. eigenvalues --    0.11569   0.12265   0.12588   0.13082   0.13343
  Beta virt. eigenvalues --    0.13939   0.14471   0.15640   0.16576   0.16757

 Mulliken charges and spin densities:
               1          2
     1  C   -0.202842  -0.424682
     2  C   -0.535835   0.204329
     3  C    1.743504   0.371859
     4  C   -1.068677  -0.150859
     5  C   -0.280284   0.084779
     6  O   -0.339032   0.035867
     7  O   -0.090615   0.007597
     8  C   -0.127191  -0.148273
     9  N   -0.068930   0.001167
    10  C   -0.353692   0.310285
    11  S   -0.471995   0.073736
    12  H    0.108906   0.048453
    13  H   -0.149735   0.254913
    14  H    0.101180   0.008998
    15  H    0.096512   0.066935
    16  H    0.022079   0.117990
    17  H    0.118481   0.048564
    18  H    0.137926   0.025913
    19  H    0.032162   0.091223
    20  H    0.117630  -0.011433
    21  H    0.096161  -0.011972
    22  H    0.114286  -0.005389
 Sum of Mulliken charges =  -1.00000   1.00000

 Dipole moment (field-independent basis, Debye):
    X=             -2.0199    Y=             -2.1062    Z=             -0.5066  Tot=              2.9619
 Quadrupole moment (field-independent basis, Debye-Ang):
   XX=            -99.3648   YY=           -103.5802   ZZ=            -85.5785
   XY=              7.2370   XZ=              0.7581   YZ=             -1.2936

 Summary of Natural Population Analysis:

                                       Natural Population
                Natural  -----------------------------------------------
    Atom  No    Charge         Core      Valence    Rydberg      Total
 -----------------------------------------------------------------------
      C    1   -0.27511      0.99966     2.26995    0.00550     3.27511
      C    2   -0.21743      0.99960     2.20743    0.01040     3.21743
      C    3    0.09874      0.99945     1.89011    0.01170     2.90126
      C    4   -0.04436      0.99931     2.03016    0.01489     3.04436
      C    5    0.40603      0.99963     1.56999    0.02435     2.59397
      O    6   -0.32109      0.99987     3.31543    0.00579     4.32109
      O    7   -0.28280      0.99987     3.27413    0.00880     4.28280
      C    8   -0.10647      0.99960     2.09837    0.00850     3.10647
      N    9   -0.24517      0.99966     2.73168    0.01383     3.74517
      C   10    0.02490      0.99967     1.96200    0.01343     2.97510
      S   11   -0.01310      4.99952     2.99745    0.01613     8.01310
      H   12    0.10117      0.00000     0.39757    0.00126     0.39883
      H   13    0.08965      0.00000     0.40887    0.00148     0.41035
      H   14    0.09526      0.00000     0.40372    0.00102     0.40474
      H   15    0.10709      0.00000     0.39155    0.00136     0.39291
      H   16    0.09760      0.00000     0.40099    0.00141     0.40240
      H   17    0.08715      0.00000     0.41119    0.00166     0.41285
      H   18    0.08750      0.00000     0.41089    0.00162     0.41250
      H   19    0.08528      0.00000     0.41366    0.00105     0.41472
      H   20    0.07747      0.00000     0.42039    0.00214     0.42253
      H   21    0.06162      0.00000     0.43663    0.00174     0.43838
      H   22    0.08606      0.00000     0.41088    0.00307     0.41394
 =======================================================================
   * Total *   -0.00000     14.99583    30.85305    0.15112    46.00000

 Normal termination of Gaussian 16 at Tue Dec  8 19:32:18 2020.
