 Gaussian 16, Revision A.03,

 -----------------------------------------------------------
 # opt freq B3LYP/6-31G(d) empiricaldispersion=gd3bj scf=xqc
 -----------------------------------------------------------

 ------------------------------
 CID_87256706_JID_2589_neutraal
 ------------------------------
 Symbolic Z-matrix:
 Charge =  0 Multiplicity = 1

 SCF Done:  E(RB3LYP) =  -551.964458979     A.U. after   13 cycles
 SCF Done:  E(RB3LYP) =  -551.971130187     A.U. after   12 cycles
 SCF Done:  E(RB3LYP) =  -551.964704565     A.U. after   14 cycles
 SCF Done:  E(RB3LYP) =  -551.970494183     A.U. after   12 cycles
 SCF Done:  E(RB3LYP) =  -551.972405570     A.U. after   10 cycles
 SCF Done:  E(RB3LYP) =  -551.973634043     A.U. after   12 cycles
 SCF Done:  E(RB3LYP) =  -551.974125626     A.U. after   10 cycles
 SCF Done:  E(RB3LYP) =  -551.974317129     A.U. after   11 cycles
 SCF Done:  E(RB3LYP) =  -551.974390250     A.U. after   10 cycles
 SCF Done:  E(RB3LYP) =  -551.974438392     A.U. after   10 cycles
 SCF Done:  E(RB3LYP) =  -551.974494401     A.U. after    9 cycles
 SCF Done:  E(RB3LYP) =  -551.974503247     A.U. after    9 cycles
 SCF Done:  E(RB3LYP) =  -551.974506921     A.U. after    9 cycles
 SCF Done:  E(RB3LYP) =  -551.974507863     A.U. after    8 cycles
 SCF Done:  E(RB3LYP) =  -551.974508029     A.U. after    7 cycles
 SCF Done:  E(RB3LYP) =  -551.974508116     A.U. after    7 cycles
 Optimization completed.
    -- Stationary point found.

 1\1\GINC-NODE118\FOpt\RB3LYP\6-31G(d)\C7H19N5\VSC10255\09-Dec-2020\0\\
 # opt freq B3LYP/6-31G(d) empiricaldispersion=gd3bj scf=xqc\\CID_87256
 706_JID_2589_neutraal\\0,1\C,0.8180534439,0.0073788852,0.0597153743\C,
 0.0740167424,0.2406207882,1.3839265416\C,0.5869783637,1.4459956417,2.2
 00816015\C,-0.2342544419,2.7392998305,2.0347385715\N,-1.5401581349,2.5
 835237704,2.7373775843\N,0.4900453186,3.9095078273,2.487803517\C,0.657
 0200601,4.1216608396,3.7489502258\N,0.1325129091,3.3857040184,4.793287
 9623\N,1.5258023034,5.1466777594,4.139283331\C,0.7123733359,1.16034046

 Normal termination of Gaussian 16 at Wed Dec  9 17:51:07 2020.

 --------------------------------------------------------------------
 #N Geom=AllCheck Guess=TCheck SCRF=Check GenChk RB3LYP/6-31G(d) Freq
 --------------------------------------------------------------------

 Structure from the checkpoint file:  "JID_2589.chk"
 ------------------------------
 CID_87256706_JID_2589_neutraal
 ------------------------------
 Charge =  0 Multiplicity = 1

 SCF Done:  E(RB3LYP) =  -551.974508116     A.U. after    1 cycles

  Exact polarizability: 142.428   4.366 103.847  -7.207   0.800  86.175
 Approx polarizability: 170.760   3.069 149.811 -16.278   1.434 130.298

                      1                      2                      3
                      A                      A                      A
 Frequencies --     26.3948                41.2383                65.1488
 Red. masses --      4.1515                 3.6638                 2.6611
 Frc consts  --      0.0017                 0.0037                 0.0067
 IR Inten    --      1.4471                 1.0602                 3.7330

                      4                      5                      6
                      A                      A                      A
 Frequencies --     97.0332               110.3282               130.9730
 Red. masses --      4.4977                 3.5102                 3.0008
 Frc consts  --      0.0250                 0.0252                 0.0303
 IR Inten    --      3.4107                 2.0561                 8.2610

                      7                      8                      9
                      A                      A                      A
 Frequencies --    153.5971               210.5615               251.5199
 Red. masses --      2.6094                 1.7623                 1.6160
 Frc consts  --      0.0363                 0.0460                 0.0602
 IR Inten    --      1.6693                16.6113                14.9007

                     10                     11                     12
                      A                      A                      A
 Frequencies --    268.3302               279.9473               288.9015
 Red. masses --      1.4502                 2.9128                 1.2170
 Frc consts  --      0.0615                 0.1345                 0.0598
 IR Inten    --     17.3404                 4.3655                42.7982

                     13                     14                     15
                      A                      A                      A
 Frequencies --    303.7651               321.7436               369.1829
 Red. masses --      1.5963                 1.6897                 2.2758
 Frc consts  --      0.0868                 0.1031                 0.1828
 IR Inten    --     25.5771                38.0278                29.6890

                     16                     17                     18
                      A                      A                      A
 Frequencies --    408.3964               446.5021               454.8688
 Red. masses --      2.6951                 1.5638                 2.5855
 Frc consts  --      0.2648                 0.1837                 0.3152
 IR Inten    --      6.3050                97.5624                 6.4325

                     19                     20                     21
                      A                      A                      A
 Frequencies --    485.4202               501.4248               511.4734
 Red. masses --      2.3178                 2.2646                 2.2357
 Frc consts  --      0.3218                 0.3355                 0.3446
 IR Inten    --      7.6858                24.3326                 4.1050

                     22                     23                     24
                      A                      A                      A
 Frequencies --    656.4568               720.3711               737.2521
 Red. masses --      2.1912                 2.6211                 1.4715
 Frc consts  --      0.5563                 0.8014                 0.4712
 IR Inten    --    127.6589                46.5785                88.6150

                     25                     26                     27
                      A                      A                      A
 Frequencies --    763.6973               790.4980               792.8305
 Red. masses --      1.2822                 1.9436                 1.7674
 Frc consts  --      0.4406                 0.7156                 0.6546
 IR Inten    --      2.5521               194.1750                 3.4017

                     28                     29                     30
                      A                      A                      A
 Frequencies --    828.7634               867.4026               893.1144
 Red. masses --      2.4629                 1.5033                 1.9048
 Frc consts  --      0.9967                 0.6664                 0.8952
 IR Inten    --      5.2861                86.6978                44.5106

                     31                     32                     33
                      A                      A                      A
 Frequencies --    912.6138               938.3257               960.2709
 Red. masses --      2.1253                 2.2688                 1.5347
 Frc consts  --      1.0429                 1.1769                 0.8338
 IR Inten    --     33.5433                 9.2853                85.2302

                     34                     35                     36
                      A                      A                      A
 Frequencies --    972.9132              1004.8138              1031.2813
 Red. masses --      2.0700                 1.9590                 2.3471
 Frc consts  --      1.1544                 1.1653                 1.4707
 IR Inten    --      5.2642                20.5575                23.0621

                     37                     38                     39
                      A                      A                      A
 Frequencies --   1057.8210              1098.9144              1100.1781
 Red. masses --      1.9452                 1.9941                 1.9905
 Frc consts  --      1.2824                 1.4188                 1.4195
 IR Inten    --      9.4338                 7.7626                 8.4287

                     40                     41                     42
                      A                      A                      A
 Frequencies --   1118.8461              1120.8172              1152.9014
 Red. masses --      1.5981                 2.2334                 1.8136
 Frc consts  --      1.1787                 1.6530                 1.4203
 IR Inten    --     11.5239                 5.6848                 2.2792

                     43                     44                     45
                      A                      A                      A
 Frequencies --   1182.4599              1202.1466              1229.6131
 Red. masses --      1.2867                 1.2480                 1.3927
 Frc consts  --      1.0600                 1.0626                 1.2406
 IR Inten    --      3.4933                15.5106                 4.3290

                     46                     47                     48
                      A                      A                      A
 Frequencies --   1276.6178              1285.5777              1313.4494
 Red. masses --      1.5603                 1.2798                 1.5605
 Frc consts  --      1.4982                 1.2462                 1.5861
 IR Inten    --     18.3405                 0.5534                32.7635

                     49                     50                     51
                      A                      A                      A
 Frequencies --   1340.8586              1358.1685              1362.0218
 Red. masses --      1.2205                 1.3080                 1.2280
 Frc consts  --      1.2929                 1.4216                 1.3422
 IR Inten    --      0.4868                 1.5304                 5.7170

                     52                     53                     54
                      A                      A                      A
 Frequencies --   1372.6213              1396.2437              1407.6306
 Red. masses --      1.1261                 1.3235                 1.3362
 Frc consts  --      1.2501                 1.5202                 1.5599
 IR Inten    --      1.7376                 2.9622                11.6849

                     55                     56                     57
                      A                      A                      A
 Frequencies --   1429.4290              1437.2468              1445.7646
 Red. masses --      1.5123                 1.4349                 1.4222
 Frc consts  --      1.8207                 1.7464                 1.7515
 IR Inten    --      0.3618                28.8562                21.9754

                     58                     59                     60
                      A                      A                      A
 Frequencies --   1458.1614              1505.0549              1518.2467
 Red. masses --      2.6408                 1.0858                 1.0854
 Frc consts  --      3.3082                 1.4491                 1.4741
 IR Inten    --    152.2012                 2.9465                 2.8124

                     61                     62                     63
                      A                      A                      A
 Frequencies --   1520.8086              1527.2897              1536.9030
 Red. masses --      1.0846                 1.0979                 1.0877
 Frc consts  --      1.4779                 1.5088                 1.5137
 IR Inten    --      6.0683                 1.8235                 1.5347

                     64                     65                     66
                      A                      A                      A
 Frequencies --   1634.5008              1661.2892              1674.6604
 Red. masses --      1.2548                 1.2545                 1.1029
 Frc consts  --      1.9752                 2.0400                 1.8224
 IR Inten    --     82.3089                67.1568                24.2642

                     67                     68                     69
                      A                      A                      A
 Frequencies --   1700.4007              1745.1495              2942.6071
 Red. masses --      1.0878                 3.5966                 1.0739
 Frc consts  --      1.8532                 6.4537                 5.4788
 IR Inten    --     37.7484               560.5297                81.2563

                     70                     71                     72
                      A                      A                      A
 Frequencies --   3006.5905              3011.7682              3016.2224
 Red. masses --      1.0817                 1.0713                 1.0615
 Frc consts  --      5.7613                 5.7253                 5.6897
 IR Inten    --     85.2047                20.6368                35.6841

                     73                     74                     75
                      A                      A                      A
 Frequencies --   3042.6407              3056.3219              3059.3536
 Red. masses --      1.0615                 1.0978                 1.0787
 Frc consts  --      5.7900                 6.0417                 5.9488
 IR Inten    --     28.4388                17.2046                32.6258

                     76                     77                     78
                      A                      A                      A
 Frequencies --   3071.7356              3073.6135              3090.7528
 Red. masses --      1.0776                 1.0872                 1.1037
 Frc consts  --      5.9908                 6.0517                 6.2121
 IR Inten    --     37.3206                54.7830                58.0245

                     79                     80                     81
                      A                      A                      A
 Frequencies --   3109.1147              3436.1621              3458.9056
 Red. masses --      1.1023                 1.0575                 1.0495
 Frc consts  --      6.2777                 7.3565                 7.3983
 IR Inten    --     29.1513               149.0697                 4.0409

                     82                     83                     84
                      A                      A                      A
 Frequencies --   3469.4457              3527.1667              3544.6555
 Red. masses --      1.0500                 1.0493                 1.0921
 Frc consts  --      7.4465                 7.6910                 8.0846
 IR Inten    --      2.8096                 6.5659                 1.4538

                     85                     86                     87
                      A                      A                      A
 Frequencies --   3550.8286              3637.5044              3639.2021
 Red. masses --      1.0918                 1.0955                 1.0916
 Frc consts  --      8.1106                 8.5398                 8.5174
 IR Inten    --      1.2291                13.4938                29.4811

 - Thermochemistry -
 -------------------
 Temperature   298.150 Kelvin.  Pressure   1.00000 Atm.
 Atom     1 has atomic number  6 and mass  12.00000

 Molecular mass:   173.16405 amu.
 Principal axes and moments of inertia in atomic units:
                           1         2         3
     Eigenvalues --   945.603615428.836795831.07567
           X            0.99998  -0.00550   0.00342
           Y            0.00549   0.99997   0.00489
           Z           -0.00345  -0.00487   0.99998
 This molecule is an asymmetric top.
 Rotational symmetry number  1.
 Warning -- assumption of classical behavior for rotation
           may cause significant error
 Rotational temperatures (Kelvin)      0.09160     0.01595     0.01485
 Rotational constants (GHZ):           1.90856     0.33244     0.30950
 Zero-point vibrational energy     744757.6 (Joules/Mol)
                                  178.00133 (Kcal/Mol)
 Warning -- explicit consideration of  21 degrees of freedom as
           vibrations may cause significant error
 Vibrational temperatures:     37.98    59.33    93.73   139.61   158.74
          (Kelvin)            188.44   220.99   302.95   361.88   386.07
                              402.78   415.66   437.05   462.92   531.17
                              587.59   642.42   654.45   698.41   721.44
                              735.90   944.49  1036.45  1060.74  1098.79
                             1137.35  1140.71  1192.41  1248.00  1284.99
                             1313.05  1350.04  1381.62  1399.81  1445.70
                             1483.78  1521.97  1581.09  1582.91  1609.77
                             1612.61  1658.77  1701.30  1729.62  1769.14
                             1836.77  1849.66  1889.76  1929.20  1954.10
                             1959.65  1974.90  2008.88  2025.27  2056.63
                             2067.88  2080.13  2097.97  2165.44  2184.42
                             2188.10  2197.43  2211.26  2351.68  2390.22
                             2409.46  2446.50  2510.88  4233.76  4325.81
                             4333.26  4339.67  4377.68  4397.37  4401.73
                             4419.54  4422.24  4446.90  4473.32  4943.87
                             4976.59  4991.76  5074.81  5099.97  5108.85
                             5233.56  5236.00

 Zero-point correction=                           0.283663 (Hartree/Particle)
 Thermal correction to Energy=                    0.298192
 Thermal correction to Enthalpy=                  0.299136
 Thermal correction to Gibbs Free Energy=         0.241532
 Sum of electronic and zero-point Energies=           -551.690845
 Sum of electronic and thermal Energies=              -551.676317
 Sum of electronic and thermal Enthalpies=            -551.675372
 Sum of electronic and thermal Free Energies=         -551.732976

                     E (Thermal)             CV                S
                      KCal/Mol        Cal/Mol-Kelvin    Cal/Mol-Kelvin
 Total                  187.118             54.053            121.237
 Electronic               0.000              0.000              0.000
 Translational            0.889              2.981             41.355
 Rotational               0.889              2.981             31.771
 Vibrational            185.341             48.092             48.112
 Vibration     1          0.593              1.985              6.083
 Vibration     2          0.594              1.981              5.199
 Vibration     3          0.597              1.971              4.295
 Vibration     4          0.603              1.951              3.513
 Vibration     5          0.606              1.941              3.263
 Vibration     6          0.612              1.922              2.932
 Vibration     7          0.619              1.899              2.627
 Vibration     8          0.643              1.825              2.039
 Vibration     9          0.663              1.760              1.720
 Vibration    10          0.673              1.731              1.607
 Vibration    11          0.680              1.711              1.534
 Vibration    12          0.685              1.694              1.480
 Vibration    13          0.695              1.667              1.396
 Vibration    14          0.707              1.632              1.301
 Vibration    15          0.741              1.536              1.083
 Vibration    16          0.773              1.452              0.932
 Vibration    17          0.806              1.369              0.806
 Vibration    18          0.813              1.350              0.781
 Vibration    19          0.841              1.282              0.696
 Vibration    20          0.857              1.247              0.655
 Vibration    21          0.867              1.225              0.630

 Optimization completed.
    -- Stationary point found.

 1\1\GINC-NODE118\Freq\RB3LYP\6-31G(d)\C7H19N5\VSC10255\09-Dec-2020\0\\
 #N Geom=AllCheck Guess=TCheck SCRF=Check GenChk RB3LYP/6-31G(d) Freq\\
 CID_87256706_JID_2589_neutraal\\0,1\C,0.8180534439,0.0073788852,0.0597
 153743\C,0.0740167424,0.2406207882,1.3839265416\C,0.5869783637,1.44599
 56417,2.200816015\C,-0.2342544419,2.7392998305,2.0347385715\N,-1.54015
 81349,2.5835237704,2.7373775843\N,0.4900453186,3.9095078273,2.48780351
 7\C,0.6570200601,4.1216608396,3.7489502258\N,0.1325129091,3.3857040184
 ,4.7932879623\N,1.5258023034,5.1466777594,4.139283331\C,0.7123733359,1

 Normal termination of Gaussian 16 at Wed Dec  9 17:58:58 2020.

 ----------------------------------------------------------------------
 # B3LYP/6-311++G(d,p) empiricaldispersion=gd3bj scf=xqc pop=npa geom=c
 heck
 ----------------------------------------------------------------------

 --------------------------------------
 CID_87256706_JID_2589_Energie_neutraal
 --------------------------------------
 Structure from the checkpoint file:  "JID_2589.chk"
 Charge =  0 Multiplicity = 1

 SCF Done:  E(RB3LYP) =  -552.165130296     A.U. after   13 cycles
 Normal termination of Gaussian 16 at Wed Dec  9 18:02:36 2020.

 ----------------------------------------------------------------------
 # B3LYP/6-311++G(d,p) empiricaldispersion=gd3bj scf=xqc pop=npa geom=c
 heck
 ----------------------------------------------------------------------

 ------------------------------------
 CID_87256706_JID_2589_Energie_kation
 ------------------------------------
 Structure from the checkpoint file:  "JID_2589.chk"
 Charge =  1 Multiplicity = 2

 SCF Done:  E(UB3LYP) =  -551.878041599     A.U. after   26 cycles
 Normal termination of Gaussian 16 at Wed Dec  9 18:12:46 2020.
 Gaussian 16:  ES64L-G16RevA.03 25-Dec-2016

 -----------------------------------
 CID_87256706_JID_2589_Energie_anion
 -----------------------------------
 Structure from the checkpoint file:  "JID_2589.chk"
 Charge = -1 Multiplicity = 2

                         Standard orientation:
 ---------------------------------------------------------------------
 Center     Atomic      Atomic             Coordinates (Angstroms)
 Number     Number       Type             X           Y           Z
 ---------------------------------------------------------------------
      1          6           0       -2.283538   -0.667515   -0.757453
      2          6           0       -0.988289   -1.478937   -0.597918
      3          6           0        0.306076   -0.647723   -0.728573
      4          6           0        0.942351   -0.222820    0.609056
      5          7           0        1.555138   -1.415928    1.260467
      6          7           0        1.896012    0.855313    0.443449
      7          6           0        3.049351    0.626168   -0.086348
      8          7           0        3.564313   -0.599245   -0.461258
      9          7           0        3.859234    1.720323   -0.409948
     10          6           0       -2.483884    0.429638    0.293634
     11          6           0       -3.775719    1.228064    0.104424
     12          7           0       -4.961895    0.377231    0.271662
     13          1           0       -3.132608   -1.363018   -0.719432
     14          1           0       -2.293784   -0.211823   -1.759254
     15          1           0       -1.018004   -1.993125    0.374898
     16          1           0       -0.988652   -2.276201   -1.351333
     17          1           0        1.062951   -1.198181   -1.296760
     18          1           0        0.100658    0.269022   -1.292749
     19          1           0        0.144976    0.179761    1.250436
     20          1           0        1.812893   -1.160473    2.213487
     21          1           0        0.858213   -2.155702    1.340533
     22          1           0        4.548331   -0.649933   -0.685931
     23          1           0        3.159714   -1.371291    0.069793
     24          1           0        3.466564    2.570270   -0.021716
     25          1           0        4.838320    1.613286   -0.165362
     26          1           0       -2.495751   -0.021002    1.294809
     27          1           0       -1.640376    1.130273    0.261798
     28          1           0       -3.823437    2.010022    0.871601
     29          1           0       -3.734892    1.746828   -0.872043
     30          1           0       -5.799117    0.957448    0.267975
     31          1           0       -5.053703   -0.241268   -0.532287
 ---------------------------------------------------------------------

 SCF Done:  E(UB3LYP) =  -552.153641585     A.U. after   30 cycles

 The electronic state is 2-A.
 Alpha  occ. eigenvalues --  -14.20850 -14.20577 -14.20117 -14.19958 -14.15979
 Alpha  occ. eigenvalues --  -10.15868 -10.11895 -10.09815 -10.07412 -10.07228
 Alpha  occ. eigenvalues --  -10.06787 -10.06168  -0.86965  -0.80158  -0.79014
 Alpha  occ. eigenvalues --   -0.75932  -0.73247  -0.70463  -0.64658  -0.59482
 Alpha  occ. eigenvalues --   -0.54279  -0.50209  -0.47213  -0.46890  -0.42840
 Alpha  occ. eigenvalues --   -0.41731  -0.40270  -0.38966  -0.38175  -0.37106
 Alpha  occ. eigenvalues --   -0.35484  -0.34044  -0.33913  -0.32136  -0.31592
 Alpha  occ. eigenvalues --   -0.29277  -0.28263  -0.27198  -0.26780  -0.25272
 Alpha  occ. eigenvalues --   -0.23396  -0.23009  -0.22435  -0.16760  -0.16180
 Alpha  occ. eigenvalues --   -0.15268  -0.14401  -0.12013   0.04055
 Alpha virt. eigenvalues --    0.05169   0.06708   0.07496   0.08388   0.08647
 Alpha virt. eigenvalues --    0.09273   0.10162   0.10533   0.11065   0.11368
 Alpha virt. eigenvalues --    0.12521   0.12596   0.13220   0.13566   0.13685

  Beta  occ. eigenvalues --  -14.20796 -14.20534 -14.20088 -14.19918 -14.15977
  Beta  occ. eigenvalues --  -10.15858 -10.11890 -10.09801 -10.07402 -10.07216
  Beta  occ. eigenvalues --  -10.06785 -10.06165  -0.86923  -0.80115  -0.78952
  Beta  occ. eigenvalues --   -0.75850  -0.73200  -0.70439  -0.64627  -0.59442
  Beta  occ. eigenvalues --   -0.54229  -0.50162  -0.47166  -0.46846  -0.42755
  Beta  occ. eigenvalues --   -0.41680  -0.40221  -0.38913  -0.38135  -0.37067
  Beta  occ. eigenvalues --   -0.35440  -0.33998  -0.33887  -0.32097  -0.31560
  Beta  occ. eigenvalues --   -0.29249  -0.28236  -0.27168  -0.26759  -0.25249
  Beta  occ. eigenvalues --   -0.23373  -0.22990  -0.22417  -0.16708  -0.16145
  Beta  occ. eigenvalues --   -0.15229  -0.14383  -0.11990
  Beta virt. eigenvalues --    0.06129   0.06681   0.07471   0.07826   0.08646
  Beta virt. eigenvalues --    0.09311   0.09527   0.10447   0.10816   0.11249
  Beta virt. eigenvalues --    0.11674   0.12577   0.12765   0.13523   0.13782

 Mulliken charges and spin densities:
               1          2
     1  C   -0.063550  -0.338607
     2  C    0.075036  -0.106938
     3  C   -0.854486   0.955109
     4  C    1.011237  -2.112233
     5  N   -0.572174   0.226868
     6  N   -0.125013   0.061174
     7  C    0.140061  -0.142717
     8  N   -0.219975  -0.157487
     9  N   -0.340262   0.071446
    10  C   -0.690492   0.610147
    11  C    0.781804  -1.475641
    12  N   -0.374954   0.027268
    13  H    0.129927  -0.019552
    14  H    0.011964   0.126914
    15  H    0.059373   0.018509
    16  H   -0.082454   0.252087
    17  H    0.170299  -0.016564
    18  H    0.078204   0.096622
    19  H    0.346442  -0.139583
    20  H   -0.065788   0.323784
    21  H    0.067358   0.140432
    22  H   -0.310243   0.578827
    23  H    0.218799   0.096916
    24  H    0.110398   0.147092
    25  H   -0.457554   0.698004
    26  H    0.055680   0.118217
    27  H    0.284404  -0.150212
    28  H   -0.126941   0.285111
    29  H   -0.052225   0.166242
    30  H   -0.132113   0.371343
    31  H   -0.072761   0.287420
 Sum of Mulliken charges =  -1.00000   1.00000

 Dipole moment (field-independent basis, Debye):
    X=             -2.7655    Y=             -1.5713    Z=             -0.3035  Tot=              3.1952
 Quadrupole moment (field-independent basis, Debye-Ang):
   XX=           -202.8498   YY=           -105.3112   ZZ=           -102.9312
   XY=             -2.1190   XZ=              3.6333   YZ=              1.2163

 Summary of Natural Population Analysis:

                                       Natural Population
                Natural  -----------------------------------------------
    Atom  No    Charge         Core      Valence    Rydberg      Total
 -----------------------------------------------------------------------
      C    1   -0.18862      0.99962     2.18056    0.00843     3.18862
      C    2   -0.18751      0.99963     2.18049    0.00740     3.18751
      C    3   -0.20497      0.99960     2.19698    0.00839     3.20497
      C    4    0.07469      0.99960     1.91039    0.01532     2.92531
      N    5   -0.44208      0.99976     2.93154    0.01078     3.94208
      N    6   -0.32512      0.99965     2.81463    0.01084     3.82512
      C    7    0.31048      0.99963     1.67280    0.01709     2.68952
      N    8   -0.42361      0.99970     2.91379    0.01012     3.92361
      N    9   -0.40733      0.99972     2.89709    0.01053     3.90733
      C   10   -0.19729      0.99962     2.18971    0.00796     3.19729
      C   11   -0.08764      0.99964     2.07544    0.01256     3.08764
      N   12   -0.42411      0.99977     2.91324    0.01109     3.92411
      H   13    0.09504      0.00000     0.40370    0.00127     0.40496
      H   14    0.09135      0.00000     0.40748    0.00117     0.40865
      H   15    0.08928      0.00000     0.40917    0.00155     0.41072
      H   16    0.09696      0.00000     0.40208    0.00096     0.40304
      H   17    0.10482      0.00000     0.39366    0.00152     0.39518
      H   18    0.10284      0.00000     0.39600    0.00116     0.39716
      H   19    0.07905      0.00000     0.41813    0.00282     0.42095
      H   20    0.17984      0.00000     0.31854    0.00162     0.32016
      H   21    0.17734      0.00000     0.32087    0.00179     0.32266
      H   22    0.19058      0.00000     0.30526    0.00416     0.30942
      H   23    0.20994      0.00000     0.28738    0.00268     0.29006
      H   24    0.18974      0.00000     0.30800    0.00226     0.31026
      H   25    0.18639      0.00000     0.30560    0.00802     0.31361
      H   26    0.09631      0.00000     0.40221    0.00148     0.40369
      H   27    0.09982      0.00000     0.39871    0.00147     0.40018
      H   28    0.08977      0.00000     0.40923    0.00100     0.41023
      H   29    0.07583      0.00000     0.42265    0.00152     0.42417
      H   30    0.17600      0.00000     0.32132    0.00268     0.32400
      H   31    0.17222      0.00000     0.32557    0.00221     0.32778
 =======================================================================
   * Total *    0.00000     11.99594    35.83223    0.17183    48.00000

 Normal termination of Gaussian 16 at Wed Dec  9 18:24:03 2020.
