 Gaussian 16, Revision A.03,

 -----------------------------------------------------------
 # opt freq B3LYP/6-31G(d) empiricaldispersion=gd3bj scf=xqc
 -----------------------------------------------------------

 -------------------------------
 CID_119172283_JID_9549_neutraal
 -------------------------------
 Symbolic Z-matrix:
 Charge =  0 Multiplicity = 1

 SCF Done:  E(RB3LYP) =  -1274.38887647     A.U. after   15 cycles
 SCF Done:  E(RB3LYP) =  -1274.36945395     A.U. after   16 cycles
 SCF Done:  E(RB3LYP) =  -1274.39465546     A.U. after   13 cycles
 SCF Done:  E(RB3LYP) =  -1274.38445672     A.U. after   14 cycles
 SCF Done:  E(RB3LYP) =  -1274.39676394     A.U. after   13 cycles
 SCF Done:  E(RB3LYP) =  -1274.39808300     A.U. after   13 cycles
 SCF Done:  E(RB3LYP) =  -1274.40103523     A.U. after   12 cycles
 SCF Done:  E(RB3LYP) =  -1274.39800108     A.U. after   14 cycles
 SCF Done:  E(RB3LYP) =  -1274.40303533     A.U. after   13 cycles
 SCF Done:  E(RB3LYP) =  -1274.40330062     A.U. after   13 cycles
 SCF Done:  E(RB3LYP) =  -1274.40644133     A.U. after    8 cycles
 SCF Done:  E(RB3LYP) =  -1274.40644175     A.U. after    8 cycles
 SCF Done:  E(RB3LYP) =  -1274.40644203     A.U. after    7 cycles
 SCF Done:  E(RB3LYP) =  -1274.40644216     A.U. after    8 cycles
 Optimization completed.
    -- Stationary point found.
 Normal termination of Gaussian 16 at Mon Dec 14 19:20:21 2020.

 --------------------------------------------------------------------
 #N Geom=AllCheck Guess=TCheck SCRF=Check GenChk RB3LYP/6-31G(d) Freq
 --------------------------------------------------------------------

 Structure from the checkpoint file:  "JID_9549.chk"
 -------------------------------
 CID_119172283_JID_9549_neutraal
 -------------------------------
 Charge =  0 Multiplicity = 1

 SCF Done:  E(RB3LYP) =  -1274.40644216     A.U. after    1 cycles

  Exact polarizability: 163.608   4.556 180.853  23.296  10.067 131.722
 Approx polarizability: 245.025   9.464 291.108  47.149  17.096 229.142

                      1                      2                      3
                      A                      A                      A
 Frequencies --     35.3450                40.8783                52.1717
 Red. masses --      7.8160                 6.4949                 5.4983
 Frc consts  --      0.0058                 0.0064                 0.0088
 IR Inten    --      1.8507                 2.6126                 5.4167

                      4                      5                      6
                      A                      A                      A
 Frequencies --     68.5319                89.9170                93.8210
 Red. masses --      7.3312                 6.0700                 4.7779
 Frc consts  --      0.0203                 0.0289                 0.0248
 IR Inten    --      0.9572                 0.6694                 0.8920

                      7                      8                      9
                      A                      A                      A
 Frequencies --    109.9904               140.0062               154.8057
 Red. masses --      1.2621                 7.4699                 3.2566
 Frc consts  --      0.0090                 0.0863                 0.0460
 IR Inten    --      0.2813                 0.8966                 0.1784

                     10                     11                     12
                      A                      A                      A
 Frequencies --    166.0376               172.1400               207.9426
 Red. masses --      4.5555                 4.8216                 6.5656
 Frc consts  --      0.0740                 0.0842                 0.1673
 IR Inten    --      3.4500                10.1967                10.0845

                     13                     14                     15
                      A                      A                      A
 Frequencies --    229.6785               260.0690               282.7151
 Red. masses --      3.7618                 4.8285                 5.6944
 Frc consts  --      0.1169                 0.1924                 0.2682
 IR Inten    --      0.0382                 9.3436                 2.8600

                     16                     17                     18
                      A                      A                      A
 Frequencies --    313.5320               343.7020               359.8127
 Red. masses --      4.6794                 5.6170                 4.3660
 Frc consts  --      0.2710                 0.3909                 0.3330
 IR Inten    --      7.2583                15.0482                 9.3824

                     19                     20                     21
                      A                      A                      A
 Frequencies --    381.9323               409.5706               420.4321
 Red. masses --      5.2409                 4.7071                 1.4491
 Frc consts  --      0.4504                 0.4652                 0.1509
 IR Inten    --      9.0455                15.3639               202.3819

                     22                     23                     24
                      A                      A                      A
 Frequencies --    425.5639               448.5200               453.6998
 Red. masses --      3.7842                 5.5782                 2.0950
 Frc consts  --      0.4038                 0.6612                 0.2541
 IR Inten    --     21.0509                32.4922                 4.3951

                     25                     26                     27
                      A                      A                      A
 Frequencies --    502.6577               523.7028               553.4213
 Red. masses --      2.5053                 3.3137                 2.1314
 Frc consts  --      0.3730                 0.5355                 0.3846
 IR Inten    --      6.3698                 8.8680                10.1344

                     28                     29                     30
                      A                      A                      A
 Frequencies --    563.7633               595.1171               648.1291
 Red. masses --      4.0181                 5.0266                 5.6628
 Frc consts  --      0.7524                 1.0489                 1.4015
 IR Inten    --      2.7773                 9.8092                19.0055

                     31                     32                     33
                      A                      A                      A
 Frequencies --    679.1594               689.9549               722.5946
 Red. masses --      3.8626                 1.5561                 6.2270
 Frc consts  --      1.0497                 0.4364                 1.9157
 IR Inten    --      2.4041                 7.0104                 4.6937

                     34                     35                     36
                      A                      A                      A
 Frequencies --    744.5605               766.8910               769.3922
 Red. masses --      5.5288                 2.0776                 3.7399
 Frc consts  --      1.8059                 0.7199                 1.3044
 IR Inten    --     22.0945                10.7630                30.7996

                     37                     38                     39
                      A                      A                      A
 Frequencies --    784.0477               805.2010               872.1341
 Red. masses --      2.7707                 4.1881                 3.3890
 Frc consts  --      1.0035                 1.5998                 1.5188
 IR Inten    --      5.4573                 7.4268                 1.1899

                     40                     41                     42
                      A                      A                      A
 Frequencies --    888.0559               894.1256               922.0101
 Red. masses --      3.0945                 1.4194                 2.2855
 Frc consts  --      1.4379                 0.6686                 1.1447
 IR Inten    --     20.0241                 4.6650                22.3408

                     43                     44                     45
                      A                      A                      A
 Frequencies --    937.3032               938.8858               965.5981
 Red. masses --      3.6108                 1.2814                 1.3551
 Frc consts  --      1.8690                 0.6655                 0.7444
 IR Inten    --      9.9021               170.2706                 5.5125

                     46                     47                     48
                      A                      A                      A
 Frequencies --    993.2563               995.4850              1064.4844
 Red. masses --      1.7732                 1.4846                 4.6804
 Frc consts  --      1.0307                 0.8668                 3.1247
 IR Inten    --      8.7677                 3.1257                26.7575

                     49                     50                     51
                      A                      A                      A
 Frequencies --   1075.0009              1112.1896              1123.9807
 Red. masses --      2.6833                 2.0419                 1.7611
 Frc consts  --      1.8270                 1.4881                 1.3108
 IR Inten    --     23.3638                33.9417                 4.0316

                     52                     53                     54
                      A                      A                      A
 Frequencies --   1157.3782              1161.5964              1177.5068
 Red. masses --      1.6778                 1.3583                 1.7976
 Frc consts  --      1.3242                 1.0798                 1.4685
 IR Inten    --      3.3983                13.8226                55.9627

                     55                     56                     57
                      A                      A                      A
 Frequencies --   1199.9506              1214.3823              1251.1991
 Red. masses --      1.0945                 1.1330                 2.7110
 Frc consts  --      0.9285                 0.9844                 2.5005
 IR Inten    --      0.7361                 8.4462               163.1114

                     58                     59                     60
                      A                      A                      A
 Frequencies --   1278.0009              1289.6716              1303.7949
 Red. masses --      3.4290                 1.3351                 1.5080
 Frc consts  --      3.2998                 1.3084                 1.5103
 IR Inten    --     27.1582                 9.1218                 5.8845

                     61                     62                     63
                      A                      A                      A
 Frequencies --   1315.4637              1338.3788              1372.3813
 Red. masses --      2.2452                 6.3107                 1.3148
 Frc consts  --      2.2890                 6.6602                 1.4590
 IR Inten    --     65.3726                 2.0048                 5.5014

                     64                     65                     66
                      A                      A                      A
 Frequencies --   1408.0220              1420.9702              1445.3204
 Red. masses --      2.8962                 2.1827                 1.6260
 Frc consts  --      3.3830                 2.5967                 2.0013
 IR Inten    --     94.1221               154.3173                10.0692

                     67                     68                     69
                      A                      A                      A
 Frequencies --   1468.3181              1472.4781              1477.7277
 Red. masses --      1.2411                 1.1261                 2.0169
 Frc consts  --      1.5765                 1.4385                 2.5950
 IR Inten    --     24.9232                13.5859                 9.3535

                     70                     71                     72
                      A                      A                      A
 Frequencies --   1508.9211              1513.8314              1520.8525
 Red. masses --      1.2285                 1.1476                 1.8138
 Frc consts  --      1.6481                 1.5495                 2.4718
 IR Inten    --     19.7919                11.5814                18.1516

                     73                     74                     75
                      A                      A                      A
 Frequencies --   1547.4661              1623.1287              1626.4801
 Red. masses --      1.0831                 2.7714                 1.9285
 Frc consts  --      1.5282                 4.3019                 3.0059
 IR Inten    --     17.3255                58.6165                70.2252

                     76                     77                     78
                      A                      A                      A
 Frequencies --   1649.0252              1748.5538              1760.9708
 Red. masses --      5.3994                10.0640                 6.9587
 Frc consts  --      8.6507                18.1291                12.7140
 IR Inten    --      9.1161               172.3362               358.4075

                     79                     80                     81
                      A                      A                      A
 Frequencies --   1832.1511              3060.4678              3087.8250
 Red. masses --      9.0894                 1.0371                 1.0702
 Frc consts  --     17.9767                 5.7231                 6.0123
 IR Inten    --    241.5492                36.5224                 2.3076

                     82                     83                     84
                      A                      A                      A
 Frequencies --   3103.5051              3120.8309              3179.7445
 Red. masses --      1.0666                 1.1048                 1.0922
 Frc consts  --      6.0526                 6.3399                 6.5063
 IR Inten    --     13.4831                22.4010                 1.7549

                     85                     86                     87
                      A                      A                      A
 Frequencies --   3184.5285              3190.6303              3195.4963
 Red. masses --      1.0985                 1.0858                 1.0991
 Frc consts  --      6.5635                 6.5125                 6.6124
 IR Inten    --     13.5658                 0.2888                 3.4163

                     88                     89                     90
                      A                      A                      A
 Frequencies --   3197.6407              3207.6404              3214.8496
 Red. masses --      1.0889                 1.0926                 1.0689
 Frc consts  --      6.5600                 6.6234                 6.5091
 IR Inten    --      3.8431                 4.0794               687.4783

                     91                     92                     93
                      A                      A                      A
 Frequencies --   3218.1079              3569.9828              3700.5546
 Red. masses --      1.0979                 1.0461                 1.1043
 Frc consts  --      6.6991                 7.8549                 8.9095
 IR Inten    --     19.9452                36.8417                91.7548

 - Thermochemistry -
 -------------------
 Temperature   298.150 Kelvin.  Pressure   1.00000 Atm.
 Atom     1 has atomic number  6 and mass  12.00000

 Molecular mass:   282.06743 amu.
 Principal axes and moments of inertia in atomic units:
                           1         2         3
     Eigenvalues --  4483.524954745.055486412.58845
           X            0.99688  -0.07419   0.02694
           Y            0.07340   0.99688   0.02914
           Z           -0.02902  -0.02707   0.99921
 This molecule is an asymmetric top.
 Rotational symmetry number  1.
 Warning -- assumption of classical behavior for rotation
           may cause significant error
 Rotational temperatures (Kelvin)      0.01932     0.01825     0.01351
 Rotational constants (GHZ):           0.40253     0.38034     0.28144
 Zero-point vibrational energy     676533.9 (Joules/Mol)
                                  161.69549 (Kcal/Mol)
 Warning -- explicit consideration of  29 degrees of freedom as
           vibrations may cause significant error
 Vibrational temperatures:     50.85    58.81    75.06    98.60   129.37
          (Kelvin)            134.99   158.25   201.44   222.73   238.89
                              247.67   299.18   330.46   374.18   406.76
                              451.10   494.51   517.69   549.52   589.28
                              604.91   612.29   645.32   652.77   723.21
                              753.49   796.25   811.13   856.24   932.51
                              977.16   992.69  1039.65  1071.26  1103.39
                             1106.98  1128.07  1158.50  1254.81  1277.71
                             1286.45  1326.57  1348.57  1350.85  1389.28
                             1429.07  1432.28  1531.56  1546.69  1600.19
                             1617.16  1665.21  1671.28  1694.17  1726.46
                             1747.23  1800.20  1838.76  1855.55  1875.87
                             1892.66  1925.63  1974.55  2025.83  2044.46
                             2079.49  2112.58  2118.57  2126.12  2171.00
                             2178.07  2188.17  2226.46  2335.32  2340.14
                             2372.58  2515.78  2533.64  2636.06  4403.33
                             4442.69  4465.25  4490.18  4574.94  4581.83
                             4590.61  4597.61  4600.69  4615.08  4625.45
                             4630.14  5136.41  5324.27

 Zero-point correction=                           0.257678 (Hartree/Particle)
 Thermal correction to Energy=                    0.276061
 Thermal correction to Enthalpy=                  0.277005
 Thermal correction to Gibbs Free Energy=         0.210579
 Sum of electronic and zero-point Energies=          -1274.148764
 Sum of electronic and thermal Energies=             -1274.130381
 Sum of electronic and thermal Enthalpies=           -1274.129437
 Sum of electronic and thermal Free Energies=        -1274.195864

                     E (Thermal)             CV                S
                      KCal/Mol        Cal/Mol-Kelvin    Cal/Mol-Kelvin
 Total                  173.231             68.720            139.807
 Electronic               0.000              0.000              0.000
 Translational            0.889              2.981             42.809
 Rotational               0.889              2.981             33.278
 Vibrational            171.453             62.759             63.720
 Vibration     1          0.594              1.982              5.504
 Vibration     2          0.594              1.981              5.216
 Vibration     3          0.596              1.977              4.733
 Vibration     4          0.598              1.969              4.195
 Vibration     5          0.602              1.956              3.662
 Vibration     6          0.603              1.954              3.579
 Vibration     7          0.606              1.941              3.269
 Vibration     8          0.615              1.913              2.804
 Vibration     9          0.620              1.897              2.612
 Vibration    10          0.624              1.884              2.480
 Vibration    11          0.626              1.877              2.412
 Vibration    12          0.641              1.829              2.062
 Vibration    13          0.652              1.796              1.881
 Vibration    14          0.668              1.746              1.661
 Vibration    15          0.682              1.706              1.517
 Vibration    16          0.701              1.648              1.344
 Vibration    17          0.722              1.588              1.195
 Vibration    18          0.734              1.555              1.123
 Vibration    19          0.751              1.509              1.032
 Vibration    20          0.774              1.449              0.928
 Vibration    21          0.783              1.426              0.891
 Vibration    22          0.787              1.415              0.873
 Vibration    23          0.808              1.364              0.800
 Vibration    24          0.812              1.353              0.785
 Vibration    25          0.858              1.244              0.652
 Vibration    26          0.879              1.198              0.601
 Vibration    27          0.909              1.132              0.537
 Vibration    28          0.920              1.110              0.516
 Vibration    29          0.953              1.042              0.458

 Optimization completed.
    -- Stationary point found.
 Normal termination of Gaussian 16 at Mon Dec 14 19:40:09 2020.

 ----------------------------------------------------------------------
 # B3LYP/6-311++G(d,p) empiricaldispersion=gd3bj scf=xqc pop=npa geom=c
 heck
 ----------------------------------------------------------------------

 ---------------------------------------
 CID_119172283_JID_9549_Energie_neutraal
 ---------------------------------------
 Structure from the checkpoint file:  "JID_9549.chk"
 Charge =  0 Multiplicity = 1

 SCF Done:  E(RB3LYP) =  -1274.69542386     A.U. after   16 cycles
 Normal termination of Gaussian 16 at Mon Dec 14 19:48:31 2020.

 ----------------------------------------------------------------------
 # B3LYP/6-311++G(d,p) empiricaldispersion=gd3bj scf=xqc pop=npa geom=c
 heck
 ----------------------------------------------------------------------

 -------------------------------------
 CID_119172283_JID_9549_Energie_kation
 -------------------------------------
 Structure from the checkpoint file:  "JID_9549.chk"
 Charge =  1 Multiplicity = 2

 SCF Done:  E(UB3LYP) =  -1274.39157904     A.U. after   33 cycles
 SCF Done:  E(UB3LYP) =  -1274.39157905     a.u. after    2 cycles
 Normal termination of Gaussian 16 at Mon Dec 14 20:37:20 2020.
 Gaussian 16:  ES64L-G16RevA.03 25-Dec-2016

 ----------------------------------------------------------------------
 # B3LYP/6-311++G(d,p) empiricaldispersion=gd3bj scf=xqc pop=npa geom=c
 heck
 ----------------------------------------------------------------------

 ------------------------------------
 CID_119172283_JID_9549_Energie_anion
 ------------------------------------
 Structure from the checkpoint file:  "JID_9549.chk"
 Charge = -1 Multiplicity = 2

                         Standard orientation:
 ---------------------------------------------------------------------
 Center     Atomic      Atomic             Coordinates (Angstroms)
 Number     Number       Type             X           Y           Z
 ---------------------------------------------------------------------
      1          6           0       -0.484514    3.431440    1.028650
      2          7           0       -0.910136    2.236994    0.300428
      3          6           0       -0.631728    2.216756   -1.139945
      4          6           0        0.668925    1.481890   -1.448756
      5          8           0        0.723572    0.473490   -2.120753
      6          8           0        1.712436    2.046275   -0.822669
      7          6           0       -1.073367    1.079970    1.038468
      8          8           0       -0.922066    1.057517    2.254721
      9          6           0       -1.519380   -0.150424    0.290383
     10          6           0       -2.674833   -0.065331   -0.495798
     11          6           0       -3.199457   -1.179898   -1.144637
     12          6           0       -2.552721   -2.407477   -1.025304
     13          6           0       -1.402632   -2.510282   -0.245518
     14          6           0       -0.884430   -1.400578    0.433797
     15         16           0        0.461153   -1.755169    1.567597
     16          6           0        1.796112   -0.587945    1.122995
     17          6           0        2.651287   -0.905111   -0.104659
     18          8           0        3.367418   -0.028849   -0.603031
     19          7           0        2.650518   -2.176323   -0.540740
     20          1           0        0.608156    3.512508    1.048474
     21          1           0       -0.856605    3.366018    2.049488
     22          1           0       -0.900628    4.315258    0.535506
     23          1           0       -1.426890    1.728731   -1.699315
     24          1           0       -0.557338    3.255557   -1.472393
     25          1           0        2.478584    1.402418   -0.852559
     26          1           0       -3.180936    0.892496   -0.573153
     27          1           0       -4.103643   -1.087128   -1.738436
     28          1           0       -2.937561   -3.285000   -1.536330
     29          1           0       -0.899254   -3.466964   -0.147781
     30          1           0        1.419705    0.430922    1.042772
     31          1           0        2.465344   -0.593533    1.990982
     32          1           0        1.973636   -2.832931   -0.174983
     33          1           0        3.145843   -2.385858   -1.395850
 ---------------------------------------------------------------------

 SCF Done:  E(UB3LYP) =  -1274.69712660     A.U. after   33 cycles
 SCF Done:  E(UB3LYP) =  -1274.69712660     a.u. after    1 cycles

 The electronic state is 2-A.
 Alpha  occ. eigenvalues --  -88.72214 -19.04451 -19.00160 -18.99628 -18.94722
 Alpha  occ. eigenvalues --  -14.24024 -14.21770 -10.18714 -10.18557 -10.12495
 Alpha  occ. eigenvalues --  -10.10490 -10.09021 -10.08364 -10.06109 -10.04201
 Alpha  occ. eigenvalues --  -10.03804 -10.03395 -10.02950 -10.02415  -7.80751
 Alpha  occ. eigenvalues --   -5.77161  -5.76764  -5.76143  -0.98967  -0.94865
 Alpha  occ. eigenvalues --   -0.90336  -0.90153  -0.81804  -0.81184  -0.72624
 Alpha  occ. eigenvalues --   -0.67789  -0.63641  -0.62575  -0.62047  -0.57861
 Alpha  occ. eigenvalues --   -0.54772  -0.50820  -0.49596  -0.47949  -0.45993
 Alpha  occ. eigenvalues --   -0.44962  -0.43144  -0.40169  -0.38459  -0.37594
 Alpha  occ. eigenvalues --   -0.37390  -0.35934  -0.35570  -0.34390  -0.32766
 Alpha  occ. eigenvalues --   -0.32413  -0.31653  -0.31402  -0.31243  -0.29623
 Alpha  occ. eigenvalues --   -0.29101  -0.28418  -0.28020  -0.26921  -0.26570
 Alpha  occ. eigenvalues --   -0.25537  -0.24001  -0.22427  -0.22118  -0.21040
 Alpha  occ. eigenvalues --   -0.19762  -0.18689  -0.17583  -0.16984  -0.14803
 Alpha  occ. eigenvalues --   -0.13110  -0.12169  -0.11316  -0.09624   0.05049
 Alpha virt. eigenvalues --    0.07335   0.07894   0.08703   0.09154   0.10045
 Alpha virt. eigenvalues --    0.10348   0.10569   0.10740   0.11289   0.11439
 Alpha virt. eigenvalues --    0.12371   0.12677   0.13266   0.13904   0.14261

  Beta  occ. eigenvalues --  -88.72208 -19.04451 -19.00153 -18.99603 -18.94539
  Beta  occ. eigenvalues --  -14.24009 -14.21701 -10.18699 -10.18550 -10.12349
  Beta  occ. eigenvalues --  -10.10493 -10.08931 -10.08364 -10.05910 -10.04293
  Beta  occ. eigenvalues --  -10.03786 -10.03336 -10.02617 -10.02085  -7.80744
  Beta  occ. eigenvalues --   -5.77140  -5.76770  -5.76130  -0.98946  -0.94845
  Beta  occ. eigenvalues --   -0.90129  -0.89987  -0.81777  -0.80984  -0.72228
  Beta  occ. eigenvalues --   -0.67576  -0.63567  -0.62077  -0.61736  -0.57681
  Beta  occ. eigenvalues --   -0.54607  -0.50772  -0.49397  -0.47598  -0.45787
  Beta  occ. eigenvalues --   -0.44932  -0.42964  -0.40003  -0.38305  -0.37529
  Beta  occ. eigenvalues --   -0.37281  -0.35852  -0.35495  -0.34193  -0.32613
  Beta  occ. eigenvalues --   -0.32269  -0.31534  -0.31301  -0.31050  -0.29513
  Beta  occ. eigenvalues --   -0.28998  -0.28249  -0.27911  -0.26761  -0.26389
  Beta  occ. eigenvalues --   -0.24969  -0.23434  -0.21954  -0.21776  -0.20921
  Beta  occ. eigenvalues --   -0.19583  -0.18657  -0.17481  -0.16893  -0.14178
  Beta  occ. eigenvalues --   -0.12554  -0.11465  -0.10376  -0.08893
  Beta virt. eigenvalues --    0.07411   0.07860   0.08678   0.09172   0.09956
  Beta virt. eigenvalues --    0.10145   0.10504   0.10667   0.10970   0.11367
  Beta virt. eigenvalues --    0.11646   0.12357   0.12612   0.13221   0.13904

 Mulliken charges and spin densities:
               1          2
     1  C   -0.282700  -0.007057
     2  N    0.190384   0.008967
     3  C   -0.312464  -0.010311
     4  C   -0.144866   0.005966
     5  O   -0.135908   0.006559
     6  O   -0.177627   0.000097
     7  C   -1.659167   0.175336
     8  O   -0.212885   0.050049
     9  C    1.376788   0.156480
    10  C   -0.405774   0.051545
    11  C   -0.454224   0.050445
    12  C   -0.347344   0.248229
    13  C   -0.306999  -0.124930
    14  C    0.517679   0.410492
    15  S   -0.145456  -0.181656
    16  C    0.065868  -0.268724
    17  C   -0.081831  -0.015320
    18  O   -0.364118   0.016118
    19  N   -0.280113  -0.003327
    20  H    0.159598   0.003315
    21  H    0.152897   0.008326
    22  H    0.107354   0.009044
    23  H    0.155275   0.026969
    24  H    0.140334   0.001586
    25  H    0.360071   0.000860
    26  H    0.148576   0.000153
    27  H    0.120447  -0.005288
    28  H    0.100080  -0.014521
    29  H    0.107453   0.020375
    30  H    0.202185  -0.002787
    31  H    0.031073   0.201314
    32  H    0.220912   0.059785
    33  H    0.154504   0.121910
 Sum of Mulliken charges =  -1.00000   1.00000

 Dipole moment (field-independent basis, Debye):
    X=              1.3550    Y=              1.6510    Z=             -2.4790  Tot=              3.2722
 Quadrupole moment (field-independent basis, Debye-Ang):
   XX=           -151.8963   YY=           -130.3751   ZZ=           -148.0302
   XY=             -9.3824   XZ=              5.4931   YZ=             -0.8758

 Summary of Natural Population Analysis:

                                       Natural Population
                Natural  -----------------------------------------------
    Atom  No    Charge         Core      Valence    Rydberg      Total
 -----------------------------------------------------------------------
      C    1   -0.17901      0.99965     2.17247    0.00689     3.17901
      N    2   -0.25394      0.99965     2.74463    0.00966     3.75394
      C    3   -0.12799      0.99957     2.11892    0.00950     3.12799
      C    4    0.39433      0.99974     1.58133    0.02461     2.60567
      O    5   -0.29763      0.99987     3.29167    0.00610     4.29763
      O    6   -0.36523      0.99987     3.35884    0.00651     4.36523
      C    7    0.35971      0.99959     1.61505    0.02565     2.64029
      O    8   -0.30302      0.99988     3.29791    0.00523     4.30302
      C    9   -0.01675      0.99939     2.00395    0.01341     3.01675
      C   10   -0.08993      0.99953     2.08238    0.00801     3.08993
      C   11   -0.09775      0.99957     2.08911    0.00907     3.09775
      C   12   -0.04667      0.99957     2.03810    0.00901     3.04667
      C   13   -0.12252      0.99951     2.11373    0.00928     3.12252
      C   14   -0.04393      0.99935     2.03108    0.01351     3.04393
      S   15    0.11238      4.99955     2.86603    0.02203     7.88762
      C   16   -0.29295      0.99951     2.28242    0.01102     3.29295
      C   17    0.34481      0.99967     1.63023    0.02528     2.65519
      O   18   -0.34897      0.99985     3.34254    0.00658     4.34897
      N   19   -0.39163      0.99968     2.88446    0.00749     3.89163
      H   20    0.09490      0.00000     0.40388    0.00122     0.40510
      H   21    0.11112      0.00000     0.38780    0.00108     0.38888
      H   22    0.08481      0.00000     0.41427    0.00092     0.41519
      H   23    0.11531      0.00000     0.38365    0.00104     0.38469
      H   24    0.10082      0.00000     0.39816    0.00102     0.39918
      H   25    0.25617      0.00000     0.24028    0.00355     0.24383
      H   26    0.09368      0.00000     0.40483    0.00149     0.40632
      H   27    0.09021      0.00000     0.40877    0.00102     0.40979
      H   28    0.08657      0.00000     0.41199    0.00144     0.41343
      H   29    0.09470      0.00000     0.40401    0.00129     0.40530
      H   30    0.12197      0.00000     0.37602    0.00200     0.37803
      H   31    0.11754      0.00000     0.38129    0.00118     0.38246
      H   32    0.20470      0.00000     0.29259    0.00270     0.29530
      H   33    0.19416      0.00000     0.30374    0.00210     0.30584
 =======================================================================
   * Total *    0.00000     22.99300    50.75613    0.25087    74.00000

 Normal termination of Gaussian 16 at Mon Dec 14 21:01:53 2020.
