 Gaussian 16, Revision A.03,

 -----------------------------------------------------------
 # opt freq B3LYP/6-31G(d) empiricaldispersion=gd3bj scf=xqc
 -----------------------------------------------------------

 ------------------------------
 CID_72884446_JID_8689_neutraal
 ------------------------------
 Symbolic Z-matrix:
 Charge =  0 Multiplicity = 1

 SCF Done:  E(RB3LYP) =  -780.644327133     A.U. after   14 cycles
 SCF Done:  E(RB3LYP) =  -780.650631477     A.U. after   13 cycles
 SCF Done:  E(RB3LYP) =  -780.652227853     A.U. after   12 cycles
 SCF Done:  E(RB3LYP) =  -780.653198446     A.U. after   12 cycles
 SCF Done:  E(RB3LYP) =  -780.653560255     A.U. after   12 cycles
 SCF Done:  E(RB3LYP) =  -780.653770057     A.U. after   11 cycles
 SCF Done:  E(RB3LYP) =  -780.653867407     A.U. after   11 cycles
 SCF Done:  E(RB3LYP) =  -780.653963693     A.U. after   12 cycles
 SCF Done:  E(RB3LYP) =  -780.654039589     A.U. after   12 cycles
 SCF Done:  E(RB3LYP) =  -780.654097079     A.U. after   12 cycles
 SCF Done:  E(RB3LYP) =  -780.654492481     A.U. after    9 cycles
 SCF Done:  E(RB3LYP) =  -780.654493803     A.U. after    8 cycles
 SCF Done:  E(RB3LYP) =  -780.654494167     A.U. after    9 cycles
 SCF Done:  E(RB3LYP) =  -780.654494177     A.U. after    8 cycles
 SCF Done:  E(RB3LYP) =  -780.654494158     A.U. after    6 cycles
 Optimization completed.
    -- Stationary point found.
 Normal termination of Gaussian 16 at Fri Dec 11 22:02:11 2020.

 --------------------------------------------------------------------
 #N Geom=AllCheck Guess=TCheck SCRF=Check GenChk RB3LYP/6-31G(d) Freq
 --------------------------------------------------------------------

 Structure from the checkpoint file:  "JID_8689.chk"
 ------------------------------
 CID_72884446_JID_8689_neutraal
 ------------------------------
 Charge =  0 Multiplicity = 1

 SCF Done:  E(RB3LYP) =  -780.654494158     A.U. after    1 cycles

  Exact polarizability: 229.985  -0.462 162.550  28.950  -2.101 107.575
 Approx polarizability: 298.111   0.175 272.166  54.987  -7.165 166.662

                      1                      2                      3
                      A                      A                      A
 Frequencies --     13.6727                27.0437                31.7447
 Red. masses --      5.0403                 2.8880                 3.4590
 Frc consts  --      0.0006                 0.0012                 0.0021
 IR Inten    --      0.1037                 0.0518                 0.0838

                      4                      5                      6
                      A                      A                      A
 Frequencies --     45.2265                54.9420                58.6957
 Red. masses --      4.4131                 2.1852                 1.3665
 Frc consts  --      0.0053                 0.0039                 0.0028
 IR Inten    --      0.2465                 2.7783                 1.1790

                      7                      8                      9
                      A                      A                      A
 Frequencies --     73.3781                86.0948               166.8846
 Red. masses --      4.2067                 4.3598                 2.9795
 Frc consts  --      0.0133                 0.0190                 0.0489
 IR Inten    --      2.1882                 0.2713                 1.1155

                     10                     11                     12
                      A                      A                      A
 Frequencies --    174.2720               214.5934               215.4224
 Red. masses --      4.0718                 1.9062                 2.5554
 Frc consts  --      0.0729                 0.0517                 0.0699
 IR Inten    --      2.5648                 1.1298                 1.7745

                     13                     14                     15
                      A                      A                      A
 Frequencies --    243.8676               276.5415               283.6993
 Red. masses --      1.9550                 2.3049                 2.9803
 Frc consts  --      0.0685                 0.1039                 0.1413
 IR Inten    --      2.3022                 1.0783                 1.0796

                     16                     17                     18
                      A                      A                      A
 Frequencies --    333.4236               367.6960               400.8667
 Red. masses --      2.2219                 2.9992                 2.9670
 Frc consts  --      0.1455                 0.2389                 0.2809
 IR Inten    --      1.2033                 7.0227                 1.3313

                     19                     20                     21
                      A                      A                      A
 Frequencies --    420.0923               420.4545               467.4344
 Red. masses --      4.0453                 3.3647                 3.4356
 Frc consts  --      0.4206                 0.3505                 0.4423
 IR Inten    --      1.0633                 1.4268                 4.9230

                     22                     23                     24
                      A                      A                      A
 Frequencies --    506.3247               519.6255               575.7690
 Red. masses --      1.4676                 2.2515                 2.8170
 Frc consts  --      0.2217                 0.3582                 0.5502
 IR Inten    --     72.0743                25.5914                 0.7562

                     25                     26                     27
                      A                      A                      A
 Frequencies --    608.0984               633.6455               655.5519
 Red. masses --      3.0658                 3.6096                 3.7340
 Frc consts  --      0.6680                 0.8539                 0.9454
 IR Inten    --     18.7250                 2.7932                 9.4595

                     28                     29                     30
                      A                      A                      A
 Frequencies --    673.1600               686.8721               729.1362
 Red. masses --      6.7738                 4.8295                 2.0752
 Frc consts  --      1.8085                 1.3425                 0.6500
 IR Inten    --      5.2570                 0.4889                11.5276

                     31                     32                     33
                      A                      A                      A
 Frequencies --    749.5711               793.8146               794.8247
 Red. masses --      3.5898                 1.3245                 1.1932
 Frc consts  --      1.1884                 0.4917                 0.4441
 IR Inten    --      9.6724                 9.0122                 5.2602

                     34                     35                     36
                      A                      A                      A
 Frequencies --    800.9770               817.4791               861.0548
 Red. masses --      2.2194                 8.7670                 1.2935
 Frc consts  --      0.8389                 3.4519                 0.5651
 IR Inten    --     17.5388                17.6646                 9.8265

                     37                     38                     39
                      A                      A                      A
 Frequencies --    876.3053               880.8779               958.2199
 Red. masses --      3.0232                 3.5496                 1.5146
 Frc consts  --      1.3678                 1.6228                 0.8194
 IR Inten    --      7.5266                 0.2522                 5.5043

                     40                     41                     42
                      A                      A                      A
 Frequencies --    978.5600               998.1722               999.2478
 Red. masses --      2.5025                 1.4483                 2.0573
 Frc consts  --      1.4119                 0.8502                 1.2103
 IR Inten    --      0.9434                 0.2293                 2.4400

                     43                     44                     45
                      A                      A                      A
 Frequencies --   1009.7115              1014.1524              1047.1776
 Red. masses --      2.2771                 1.6136                 2.2515
 Frc consts  --      1.3678                 0.9778                 1.4547
 IR Inten    --     23.1810                 6.7312                15.7294

                     46                     47                     48
                      A                      A                      A
 Frequencies --   1053.1367              1059.9693              1078.6568
 Red. masses --      3.0687                 3.7334                 1.4443
 Frc consts  --      2.0053                 2.4714                 0.9901
 IR Inten    --      0.3609                 4.1396                 3.0296

                     49                     50                     51
                      A                      A                      A
 Frequencies --   1081.8474              1096.4625              1102.0509
 Red. masses --      1.5412                 1.9169                 2.0562
 Frc consts  --      1.0628                 1.3578                 1.4714
 IR Inten    --      3.2523                23.9804                 6.0282

                     52                     53                     54
                      A                      A                      A
 Frequencies --   1153.2401              1189.9472              1198.8983
 Red. masses --      3.6128                 1.8481                 1.4418
 Frc consts  --      2.8309                 1.5418                 1.2210
 IR Inten    --     14.7990                 3.6965                10.7117

                     55                     56                     57
                      A                      A                      A
 Frequencies --   1234.2479              1250.8256              1266.9033
 Red. masses --      1.8364                 1.7435                 2.0113
 Frc consts  --      1.6483                 1.6072                 1.9020
 IR Inten    --      0.7835                 0.7751                 1.0689

                     58                     59                     60
                      A                      A                      A
 Frequencies --   1279.3543              1305.2355              1316.2666
 Red. masses --      1.7065                 1.3195                 1.7062
 Frc consts  --      1.6456                 1.3245                 1.7417
 IR Inten    --     10.9988                 0.4830                 5.0322

                     61                     62                     63
                      A                      A                      A
 Frequencies --   1332.7252              1359.6232              1376.5245
 Red. masses --      1.5549                 1.6812                 1.5131
 Frc consts  --      1.6271                 1.8311                 1.6892
 IR Inten    --     19.1622                33.0072                41.0292

                     64                     65                     66
                      A                      A                      A
 Frequencies --   1385.3946              1397.8336              1406.2803
 Red. masses --      1.5753                 3.1149                 1.5470
 Frc consts  --      1.7814                 3.5860                 1.8026
 IR Inten    --     26.2815                 9.4425                17.0512

                     67                     68                     69
                      A                      A                      A
 Frequencies --   1410.0151              1424.9946              1432.1883
 Red. masses --      1.6194                 3.5376                 1.4616
 Frc consts  --      1.8970                 4.2324                 1.7663
 IR Inten    --     39.8825                 1.0424                41.7110

                     70                     71                     72
                      A                      A                      A
 Frequencies --   1437.3972              1443.3999              1452.3031
 Red. masses --      1.2295                 2.1798                 1.4052
 Frc consts  --      1.4967                 2.6757                 1.7463
 IR Inten    --      1.7800                11.1901                 1.9190

                     73                     74                     75
                      A                      A                      A
 Frequencies --   1480.1568              1484.4847              1505.6873
 Red. masses --      2.3297                 3.0941                 1.0954
 Frc consts  --      3.0072                 4.0173                 1.4632
 IR Inten    --     47.9206                68.2111                21.5836

                     76                     77                     78
                      A                      A                      A
 Frequencies --   1512.0319              1515.3905              1516.3898
 Red. masses --      1.1806                 1.0689                 1.0440
 Frc consts  --      1.5903                 1.4463                 1.4144
 IR Inten    --     47.3207                 1.7250                 4.5106

                     79                     80                     81
                      A                      A                      A
 Frequencies --   1521.8875              1526.3370              1534.3567
 Red. masses --      1.1067                 1.0419                 1.1230
 Frc consts  --      1.5103                 1.4301                 1.5577
 IR Inten    --      8.5524                 7.5672                 5.1120

                     82                     83                     84
                      A                      A                      A
 Frequencies --   1536.6532              1589.7901              1612.8790
 Red. masses --      1.0793                 4.3331                 3.5778
 Frc consts  --      1.5015                 6.4525                 5.4836
 IR Inten    --      1.8141               394.1150               239.4300

                     85                     86                     87
                      A                      A                      A
 Frequencies --   1626.2105              1669.4120              3040.7356
 Red. masses --      4.8923                 5.7807                 1.0601
 Frc consts  --      7.6229                 9.4921                 5.7748
 IR Inten    --      5.9397               380.1794                35.9528

                     88                     89                     90
                      A                      A                      A
 Frequencies --   3043.4475              3048.3730              3074.4132
 Red. masses --      1.0372                 1.0347                 1.1035
 Frc consts  --      5.6604                 5.6649                 6.1456
 IR Inten    --     45.5069                35.6970                 9.2948

                     91                     92                     93
                      A                      A                      A
 Frequencies --   3075.1733              3080.7102              3086.0527
 Red. masses --      1.0612                 1.0613                 1.0610
 Frc consts  --      5.9129                 5.9345                 5.9534
 IR Inten    --      4.2534                41.4646                26.5018

                     94                     95                     96
                      A                      A                      A
 Frequencies --   3093.6327              3119.0196              3119.3152
 Red. masses --      1.1013                 1.1045                 1.1029
 Frc consts  --      6.2097                 6.3309                 6.3229
 IR Inten    --     23.0142                 5.7503                50.6371

                     97                     98                     99
                      A                      A                      A
 Frequencies --   3120.3173              3121.8643              3133.1858
 Red. masses --      1.1009                 1.1034                 1.1044
 Frc consts  --      6.3150                 6.3357                 6.3878
 IR Inten    --     18.2684                28.8131                16.2014

                    100                    101                    102
                      A                      A                      A
 Frequencies --   3140.5782              3145.3602              3148.9271
 Red. masses --      1.1047                 1.0903                 1.0910
 Frc consts  --      6.4196                 6.3554                 6.3736
 IR Inten    --     35.6639                41.5003                31.1606

                    103                    104                    105
                      A                      A                      A
 Frequencies --   3246.5960              3261.0001              3638.9403
 Red. masses --      1.0957                 1.0977                 1.0768
 Frc consts  --      6.8044                 6.8773                 8.4007
 IR Inten    --     11.3005                 0.5388                71.6924

 - Thermochemistry -
 -------------------
 Temperature   298.150 Kelvin.  Pressure   1.00000 Atm.
 Atom     1 has atomic number  6 and mass  12.00000

 Molecular mass:   245.16405 amu.
 Principal axes and moments of inertia in atomic units:
                           1         2         3
     Eigenvalues --  1731.62277********************
           X            0.99998   0.00432   0.00418
           Y           -0.00433   0.99999   0.00291
           Z           -0.00417  -0.00292   0.99999
 This molecule is an asymmetric top.
 Rotational symmetry number  1.
 Warning -- assumption of classical behavior for rotation
           may cause significant error
 Rotational temperatures (Kelvin)      0.05002     0.00859     0.00783
 Rotational constants (GHZ):           1.04223     0.17894     0.16322
 Zero-point vibrational energy     834032.9 (Joules/Mol)
                                  199.33864 (Kcal/Mol)
 Warning -- explicit consideration of  25 degrees of freedom as
           vibrations may cause significant error
 Vibrational temperatures:     19.67    38.91    45.67    65.07    79.05
          (Kelvin)             84.45   105.57   123.87   240.11   250.74
                              308.75   309.94   350.87   397.88   408.18
                              479.72   529.03   576.76   604.42   604.94
                              672.53   728.49   747.63   828.40   874.92
                              911.67   943.19   968.53   988.26  1049.06
                             1078.47  1142.12  1143.58  1152.43  1176.17
                             1238.87  1260.81  1267.39  1378.66  1407.93
                             1436.15  1437.69  1452.75  1459.14  1506.66
                             1515.23  1525.06  1551.95  1556.54  1577.57
                             1585.61  1659.26  1712.07  1724.95  1775.81
                             1799.66  1822.79  1840.71  1877.94  1893.81
                             1917.49  1956.19  1980.51  1993.27  2011.17
                             2023.32  2028.70  2050.25  2060.60  2068.09
                             2076.73  2089.54  2129.62  2135.84  2166.35
                             2175.48  2180.31  2181.75  2189.66  2196.06
                             2207.60  2210.90  2287.35  2320.57  2339.75
                             2401.91  4374.94  4378.84  4385.93  4423.39
                             4424.49  4432.45  4440.14  4451.05  4487.57
                             4488.00  4489.44  4491.67  4507.96  4518.59
                             4525.47  4530.60  4671.13  4691.85  5235.62

 Zero-point correction=                           0.317666 (Hartree/Particle)
 Thermal correction to Energy=                    0.335402
 Thermal correction to Enthalpy=                  0.336347
 Thermal correction to Gibbs Free Energy=         0.268029
 Sum of electronic and zero-point Energies=           -780.336828
 Sum of electronic and thermal Energies=              -780.319092
 Sum of electronic and thermal Enthalpies=            -780.318148
 Sum of electronic and thermal Free Energies=         -780.386466

                     E (Thermal)             CV                S
                      KCal/Mol        Cal/Mol-Kelvin    Cal/Mol-Kelvin
 Total                  210.468             65.247            143.787
 Electronic               0.000              0.000              0.000
 Translational            0.889              2.981             42.391
 Rotational               0.889              2.981             33.623
 Vibrational            208.691             59.286             67.773
 Vibration     1          0.593              1.986              7.390
 Vibration     2          0.593              1.984              6.035
 Vibration     3          0.594              1.983              5.717
 Vibration     4          0.595              1.979              5.016
 Vibration     5          0.596              1.976              4.631
 Vibration     6          0.596              1.974              4.501
 Vibration     7          0.599              1.967              4.061
 Vibration     8          0.601              1.959              3.747
 Vibration     9          0.624              1.883              2.470
 Vibration    10          0.627              1.874              2.389
 Vibration    11          0.645              1.819              2.004
 Vibration    12          0.645              1.818              1.997
 Vibration    13          0.659              1.773              1.774
 Vibration    14          0.678              1.717              1.555
 Vibration    15          0.682              1.704              1.511
 Vibration    16          0.715              1.609              1.243
 Vibration    17          0.740              1.539              1.089
 Vibration    18          0.767              1.468              0.959
 Vibration    19          0.783              1.427              0.892
 Vibration    20          0.783              1.426              0.890
 Vibration    21          0.825              1.322              0.745
 Vibration    22          0.862              1.236              0.642
 Vibration    23          0.875              1.207              0.611
 Vibration    24          0.932              1.084              0.493
 Vibration    25          0.967              1.015              0.436

 Optimization completed.
    -- Stationary point found.
 Normal termination of Gaussian 16 at Fri Dec 11 22:19:23 2020.

 ----------------------------------------------------------------------
 # B3LYP/6-311++G(d,p) empiricaldispersion=gd3bj scf=xqc pop=npa geom=c
 heck
 ----------------------------------------------------------------------

 --------------------------------------
 CID_72884446_JID_8689_Energie_neutraal
 --------------------------------------
 Structure from the checkpoint file:  "JID_8689.chk"
 Charge =  0 Multiplicity = 1

 SCF Done:  E(RB3LYP) =  -780.862161972     A.U. after   15 cycles
 Normal termination of Gaussian 16 at Fri Dec 11 22:26:58 2020.

 ----------------------------------------------------------------------
 # B3LYP/6-311++G(d,p) empiricaldispersion=gd3bj scf=xqc pop=npa geom=c
 heck
 ----------------------------------------------------------------------

 ------------------------------------
 CID_72884446_JID_8689_Energie_kation
 ------------------------------------
 Structure from the checkpoint file:  "JID_8689.chk"
 Charge =  1 Multiplicity = 2

 SCF Done:  E(UB3LYP) =  -780.580721833     A.U. after   25 cycles
 Normal termination of Gaussian 16 at Fri Dec 11 22:44:46 2020.
 Gaussian 16:  ES64L-G16RevA.03 25-Dec-2016

 ----------------------------------------------------------------------
 # B3LYP/6-311++G(d,p) empiricaldispersion=gd3bj scf=xqc pop=npa geom=c
 heck
 ----------------------------------------------------------------------

 -----------------------------------
 CID_72884446_JID_8689_Energie_anion
 -----------------------------------
 Structure from the checkpoint file:  "JID_8689.chk"
 Charge = -1 Multiplicity = 2

                         Standard orientation:
 ---------------------------------------------------------------------
 Center     Atomic      Atomic             Coordinates (Angstroms)
 Number     Number       Type             X           Y           Z
 ---------------------------------------------------------------------
      1          6           0       -6.080427    0.751738    0.352690
      2          6           0       -5.125253    0.446014   -0.812823
      3          6           0       -3.697869    0.269457   -0.363119
      4          6           0       -3.160551   -0.970704   -0.013106
      5          7           0       -1.914419   -1.147663    0.429328
      6          6           0       -1.166137   -0.030786    0.534936
      7          7           0       -1.556172    1.222207    0.203005
      8          6           0       -2.807483    1.342457   -0.230849
      9          7           0        0.099314   -0.153694    1.018579
     10          6           0        0.785046   -1.422883    1.203234
     11          6           0        1.063552   -2.190125   -0.099429
     12          6           0        1.650537   -1.307483   -1.203927
     13          7           0        2.761253   -0.493476   -0.731229
     14          6           0        2.817241    0.864990   -0.644014
     15          6           0        4.016001    1.190644   -0.030378
     16          6           0        4.612460   -0.069334    0.221263
     17          7           0        3.851910   -1.083193   -0.197675
     18          6           0        4.552994    2.556337    0.277193
     19          1           0       -6.067757   -0.059742    1.088754
     20          1           0       -7.109671    0.876567   -0.002231
     21          1           0       -5.782862    1.671246    0.869051
     22          1           0       -5.461244   -0.462241   -1.328996
     23          1           0       -5.180681    1.257795   -1.549478
     24          1           0       -3.765461   -1.874116   -0.102059
     25          1           0       -3.123312    2.351034   -0.501871
     26          1           0        0.652530    0.689858    0.979968
     27          1           0        1.730393   -1.194748    1.701532
     28          1           0        0.193652   -2.054711    1.872638
     29          1           0        1.760105   -3.004447    0.125600
     30          1           0        0.134076   -2.631628   -0.472258
     31          1           0        1.992799   -1.922421   -2.042476
     32          1           0        0.896363   -0.612139   -1.581234
     33          1           0        2.020519    1.486974   -1.029181
     34          1           0        5.567030   -0.274963    0.689566
     35          1           0        4.814142    2.658238    1.337315
     36          1           0        5.458773    2.776457   -0.301267
     37          1           0        3.816748    3.331797    0.042561
 ---------------------------------------------------------------------

 SCF Done:  E(UB3LYP) =  -780.852830140     A.U. after   33 cycles
 SCF Done:  E(UB3LYP) =  -780.852830141     a.u. after    1 cycles

 The electronic state is 2-A.
 Alpha  occ. eigenvalues --  -14.29778 -14.23889 -14.21988 -14.17989 -14.17958
 Alpha  occ. eigenvalues --  -10.14944 -10.12593 -10.11263 -10.10730 -10.09769
 Alpha  occ. eigenvalues --  -10.08763 -10.08496 -10.08078 -10.08077 -10.07844
 Alpha  occ. eigenvalues --  -10.07478 -10.06606 -10.05938  -0.96130  -0.88285
 Alpha  occ. eigenvalues --   -0.80828  -0.76311  -0.75852  -0.71052  -0.70030
 Alpha  occ. eigenvalues --   -0.67661  -0.63487  -0.61591  -0.58982  -0.54726
 Alpha  occ. eigenvalues --   -0.54146  -0.51648  -0.49431  -0.48841  -0.46915
 Alpha  occ. eigenvalues --   -0.44222  -0.43178  -0.40773  -0.39364  -0.37389
 Alpha  occ. eigenvalues --   -0.35684  -0.35332  -0.34723  -0.33994  -0.33204
 Alpha  occ. eigenvalues --   -0.32877  -0.32360  -0.31735  -0.31111  -0.30724
 Alpha  occ. eigenvalues --   -0.28691  -0.28559  -0.28414  -0.27338  -0.27066
 Alpha  occ. eigenvalues --   -0.26603  -0.25819  -0.24999  -0.20557  -0.19830
 Alpha  occ. eigenvalues --   -0.19591  -0.19027  -0.16684  -0.15041  -0.12961
 Alpha  occ. eigenvalues --   -0.10739   0.04347
 Alpha virt. eigenvalues --    0.05513   0.06280   0.07179   0.07784   0.08346
 Alpha virt. eigenvalues --    0.08475   0.08755   0.08987   0.09488   0.09709
 Alpha virt. eigenvalues --    0.09942   0.10370   0.10975   0.11520   0.12006

  Beta  occ. eigenvalues --  -14.29778 -14.23888 -14.21992 -14.17816 -14.17792
  Beta  occ. eigenvalues --  -10.14961 -10.12589 -10.11252 -10.10728 -10.09761
  Beta  occ. eigenvalues --  -10.08600 -10.08496 -10.08038 -10.07844 -10.07802
  Beta  occ. eigenvalues --  -10.07462 -10.06589 -10.06013  -0.96127  -0.88102
  Beta  occ. eigenvalues --   -0.80705  -0.75939  -0.75805  -0.71039  -0.69960
  Beta  occ. eigenvalues --   -0.67647  -0.63390  -0.61503  -0.58943  -0.54678
  Beta  occ. eigenvalues --   -0.53722  -0.51550  -0.49404  -0.48787  -0.46884
  Beta  occ. eigenvalues --   -0.44109  -0.43121  -0.40686  -0.39330  -0.37340
  Beta  occ. eigenvalues --   -0.35636  -0.35299  -0.34689  -0.33915  -0.33142
  Beta  occ. eigenvalues --   -0.32761  -0.32247  -0.31682  -0.31049  -0.30439
  Beta  occ. eigenvalues --   -0.28644  -0.28502  -0.28286  -0.27214  -0.27014
  Beta  occ. eigenvalues --   -0.26546  -0.25803  -0.24945  -0.20540  -0.19400
  Beta  occ. eigenvalues --   -0.18772  -0.18364  -0.16662  -0.15028  -0.12762
  Beta  occ. eigenvalues --   -0.10328
  Beta virt. eigenvalues --    0.06284   0.06515   0.07206   0.08003   0.08534
  Beta virt. eigenvalues --    0.08605   0.08710   0.08785   0.09206   0.09572
  Beta virt. eigenvalues --    0.09747   0.10060   0.10493   0.11095   0.11700

 Mulliken charges and spin densities:
               1          2
     1  C    0.209955  -0.775935
     2  C   -0.749691   0.315161
     3  C    1.073835  -0.534643
     4  C   -0.338157   0.301663
     5  N   -0.156249   0.080536
     6  C   -0.253789  -0.425385
     7  N   -0.124868   0.120342
     8  C   -0.444637   0.361080
     9  N   -0.131929  -0.003624
    10  C   -0.192850  -0.117892
    11  C   -0.143666  -0.051095
    12  C   -0.266927  -0.000870
    13  N    0.297382   0.003354
    14  C   -0.519881   0.014797
    15  C   -0.655003   1.238417
    16  C   -0.721588   0.421870
    17  N   -0.232867   0.013521
    18  C    2.170070  -2.954590
    19  H    0.119266   0.016495
    20  H   -0.291216   0.408446
    21  H    0.008153   0.133839
    22  H   -0.218853   0.362899
    23  H    0.112238   0.018431
    24  H   -0.013454   0.161058
    25  H    0.006653   0.154462
    26  H    0.427585  -0.077608
    27  H    0.137069   0.033914
    28  H    0.189976   0.015723
    29  H    0.147991  -0.000163
    30  H    0.162221   0.010161
    31  H    0.102230   0.108553
    32  H    0.110180   0.053766
    33  H    0.007554   0.177966
    34  H   -0.126518   0.264724
    35  H   -0.184129   0.332483
    36  H   -0.266957   0.419390
    37  H   -0.249126   0.398756
 Sum of Mulliken charges =  -1.00000   1.00000

 Dipole moment (field-independent basis, Debye):
    X=              1.1727    Y=             -3.2737    Z=             -0.3736  Tot=              3.4974
 Quadrupole moment (field-independent basis, Debye-Ang):
   XX=           -234.5081   YY=           -147.8496   ZZ=           -128.7149
   XY=            -13.4955   XZ=             -2.8355   YZ=             -2.7130

 Summary of Natural Population Analysis:

                                       Natural Population
                Natural  -----------------------------------------------
    Atom  No    Charge         Core      Valence    Rydberg      Total
 -----------------------------------------------------------------------
      C    1   -0.28198      0.99966     2.27682    0.00550     3.28198
      C    2   -0.19627      0.99962     2.18594    0.01071     3.19627
      C    3   -0.09531      0.99949     2.08699    0.00882     3.09531
      C    4    0.09851      0.99954     1.88845    0.01350     2.90149
      N    5   -0.26742      0.99968     2.75702    0.01072     3.76742
      C    6    0.29114      0.99960     1.69103    0.01823     2.70886
      N    7   -0.25163      0.99968     2.74131    0.01064     3.75163
      C    8    0.07673      0.99954     1.91009    0.01365     2.92327
      N    9   -0.31762      0.99966     2.80746    0.01050     3.81762
      C   10   -0.08992      0.99963     2.07977    0.01052     3.08992
      C   11   -0.20359      0.99962     2.19666    0.00730     3.20359
      C   12   -0.08176      0.99961     2.07231    0.00984     3.08176
      N   13   -0.10940      0.99966     2.59668    0.01307     3.60940
      C   14   -0.01409      0.99950     2.00291    0.01168     3.01409
      C   15   -0.07313      0.99953     2.06433    0.00927     3.07313
      C   16   -0.01513      0.99958     2.00055    0.01500     3.01513
      N   17   -0.15701      0.99973     2.64552    0.01175     3.65701
      C   18   -0.29321      0.99964     2.28793    0.00564     3.29321
      H   19    0.09617      0.00000     0.40287    0.00096     0.40383
      H   20    0.09446      0.00000     0.40412    0.00142     0.40554
      H   21    0.09728      0.00000     0.40171    0.00100     0.40272
      H   22    0.09863      0.00000     0.39989    0.00148     0.40137
      H   23    0.09578      0.00000     0.40305    0.00117     0.40422
      H   24    0.08077      0.00000     0.41787    0.00136     0.41923
      H   25    0.08225      0.00000     0.41638    0.00137     0.41775
      H   26    0.19575      0.00000     0.30108    0.00317     0.30425
      H   27    0.09919      0.00000     0.39965    0.00116     0.40081
      H   28    0.10279      0.00000     0.39606    0.00116     0.39721
      H   29    0.10151      0.00000     0.39732    0.00117     0.39849
      H   30    0.11120      0.00000     0.38731    0.00149     0.38880
      H   31    0.10028      0.00000     0.39870    0.00102     0.39972
      H   32    0.10524      0.00000     0.39361    0.00115     0.39476
      H   33    0.10901      0.00000     0.38962    0.00137     0.39099
      H   34    0.09653      0.00000     0.40252    0.00095     0.40347
      H   35    0.10447      0.00000     0.39436    0.00116     0.39553
      H   36    0.10476      0.00000     0.39385    0.00139     0.39524
      H   37    0.10500      0.00000     0.39391    0.00109     0.39500
 =======================================================================
   * Total *   -0.00000     17.99297    47.78563    0.22139    66.00000

 Normal termination of Gaussian 16 at Fri Dec 11 23:09:49 2020.
