 Gaussian 16, Revision A.03,

 -----------------------------------------------------------
 # opt freq B3LYP/6-31G(d) empiricaldispersion=gd3bj scf=xqc
 -----------------------------------------------------------

 ------------------------------
 CID_54203687_JID_2553_neutraal
 ------------------------------
 Symbolic Z-matrix:
 Charge =  0 Multiplicity = 1

 SCF Done:  E(RB3LYP) =  -616.568625398     A.U. after   13 cycles
 SCF Done:  E(RB3LYP) =  -616.573252051     A.U. after   11 cycles
 SCF Done:  E(RB3LYP) =  -616.573651093     A.U. after   11 cycles
 SCF Done:  E(RB3LYP) =  -616.574165580     A.U. after   11 cycles
 SCF Done:  E(RB3LYP) =  -616.574460956     A.U. after   10 cycles
 SCF Done:  E(RB3LYP) =  -616.574660570     A.U. after   11 cycles
 SCF Done:  E(RB3LYP) =  -616.574847609     A.U. after   11 cycles
 SCF Done:  E(RB3LYP) =  -616.574982646     A.U. after   11 cycles
 SCF Done:  E(RB3LYP) =  -616.575206581     A.U. after   11 cycles
 SCF Done:  E(RB3LYP) =  -616.575297754     A.U. after   10 cycles
 SCF Done:  E(RB3LYP) =  -616.587673432     A.U. after    9 cycles
 SCF Done:  E(RB3LYP) =  -616.587692883     A.U. after   10 cycles
 SCF Done:  E(RB3LYP) =  -616.587694375     A.U. after    7 cycles
 SCF Done:  E(RB3LYP) =  -616.587693570     A.U. after    8 cycles
 SCF Done:  E(RB3LYP) =  -616.587694531     A.U. after    8 cycles
 Optimization completed.
    -- Stationary point found.

 1\1\GINC-NODE355\FOpt\RB3LYP\6-31G(d)\C8H18O4\VSC10255\09-Dec-2020\0\\
 # opt freq B3LYP/6-31G(d) empiricaldispersion=gd3bj scf=xqc\\CID_54203
 687_JID_2553_neutraal\\0,1\C,2.4314172822,0.7829429853,0.1188616933\C,
 1.8610421785,1.1453759359,1.4940366613\C,0.864451419,2.3127679094,1.47
 17481844\C,-0.386091109,2.110756946,0.6027244701\C,-1.1571350903,0.826
 5732393,0.9333474348\O,-1.4478620688,0.6870394188,2.3313449596\C,-2.82
 00688339,0.7874559509,2.6941444233\C,-3.275271479,2.2509141584,2.71095
 65302\C,-4.5543148232,2.4459542482,3.5116389144\O,-5.563218983,1.66278

 Normal termination of Gaussian 16 at Wed Dec  9 18:28:03 2020.

 --------------------------------------------------------------------
 #N Geom=AllCheck Guess=TCheck SCRF=Check GenChk RB3LYP/6-31G(d) Freq
 --------------------------------------------------------------------

 Structure from the checkpoint file:  "JID_2553.chk"
 ------------------------------
 CID_54203687_JID_2553_neutraal
 ------------------------------
 Charge =  0 Multiplicity = 1

 SCF Done:  E(RB3LYP) =  -616.587694531     A.U. after    1 cycles

  Exact polarizability: 124.289   0.582  87.722   1.234   1.764  86.736
 Approx polarizability: 140.933   0.830 127.317   1.188   1.948 131.601

                      1                      2                      3
                      A                      A                      A
 Frequencies --     43.4076                52.4661                69.0207
 Red. masses --      3.9020                 4.1239                 4.6202
 Frc consts  --      0.0043                 0.0067                 0.0130
 IR Inten    --      0.0988                 0.8907                 1.2544

                      4                      5                      6
                      A                      A                      A
 Frequencies --    103.7987               119.3952               140.7563
 Red. masses --      2.3675                 3.4630                 4.3808
 Frc consts  --      0.0150                 0.0291                 0.0511
 IR Inten    --      2.0705                 3.8698                 5.2351

                      7                      8                      9
                      A                      A                      A
 Frequencies --    172.2348               201.4834               221.2012
 Red. masses --      2.5728                 2.3832                 2.2370
 Frc consts  --      0.0450                 0.0570                 0.0645
 IR Inten    --      6.3962                13.0344                 9.9162

                     10                     11                     12
                      A                      A                      A
 Frequencies --    235.2881               261.0482               269.8988
 Red. masses --      2.2464                 1.4483                 1.7510
 Frc consts  --      0.0733                 0.0581                 0.0752
 IR Inten    --     44.5930                69.4545                10.7818

                     13                     14                     15
                      A                      A                      A
 Frequencies --    317.5922               350.9711               385.4820
 Red. masses --      3.1107                 2.6248                 3.0785
 Frc consts  --      0.1849                 0.1905                 0.2695
 IR Inten    --      9.8571                 6.4216                 0.9989

                     16                     17                     18
                      A                      A                      A
 Frequencies --    420.7485               440.7492               457.0946
 Red. masses --      2.3376                 2.1719                 2.4973
 Frc consts  --      0.2438                 0.2486                 0.3074
 IR Inten    --     23.2435                28.5266                53.4154

                     19                     20                     21
                      A                      A                      A
 Frequencies --    494.8824               521.9382               580.7376
 Red. masses --      2.5003                 1.6049                 3.5818
 Frc consts  --      0.3608                 0.2576                 0.7117
 IR Inten    --      4.4853                46.1042                16.3620

                     22                     23                     24
                      A                      A                      A
 Frequencies --    648.1170               705.9597               749.3440
 Red. masses --      2.5169                 1.0633                 1.6506
 Frc consts  --      0.6229                 0.3122                 0.5461
 IR Inten    --     22.7641               140.7136                 7.7773

                     25                     26                     27
                      A                      A                      A
 Frequencies --    820.6453               856.3243               888.0272
 Red. masses --      1.9248                 2.6167                 2.1506
 Frc consts  --      0.7638                 1.1305                 0.9992
 IR Inten    --      6.9946                28.0570                10.1935

                     28                     29                     30
                      A                      A                      A
 Frequencies --    897.6426               941.7226               951.6401
 Red. masses --      1.8774                 1.7790                 1.6607
 Frc consts  --      0.8913                 0.9296                 0.8861
 IR Inten    --      2.7179                 6.2615                 6.0797

                     31                     32                     33
                      A                      A                      A
 Frequencies --    990.9882              1038.8413              1066.3422
 Red. masses --      2.0203                 1.7867                 2.2364
 Frc consts  --      1.1689                 1.1361                 1.4983
 IR Inten    --     13.0586                14.1872                 4.6923

                     34                     35                     36
                      A                      A                      A
 Frequencies --   1082.1157              1086.2623              1095.7497
 Red. masses --      3.0064                 4.3448                 2.4786
 Frc consts  --      2.0741                 3.0206                 1.7534
 IR Inten    --     27.6578                95.1015               102.3354

                     37                     38                     39
                      A                      A                      A
 Frequencies --   1113.1688              1125.4883              1155.9456
 Red. masses --      2.4622                 2.5974                 2.1318
 Frc consts  --      1.7976                 1.9386                 1.6783
 IR Inten    --     22.4381               107.6499                21.8059

                     40                     41                     42
                      A                      A                      A
 Frequencies --   1172.4307              1176.3086              1247.1257
 Red. masses --      2.1860                 2.5813                 1.2178
 Frc consts  --      1.7704                 2.1044                 1.1159
 IR Inten    --     55.4747                18.9645                 6.6154

                     43                     44                     45
                      A                      A                      A
 Frequencies --   1252.0924              1259.8808              1286.3441
 Red. masses --      1.2889                 1.2411                 1.1888
 Frc consts  --      1.1905                 1.1607                 1.1590
 IR Inten    --     23.2530                63.3021                15.4184

                     46                     47                     48
                      A                      A                      A
 Frequencies --   1296.8377              1324.8083              1348.3682
 Red. masses --      1.2400                 1.1379                 1.1963
 Frc consts  --      1.2287                 1.1767                 1.2815
 IR Inten    --     14.1873                19.1782                 3.6653

                     49                     50                     51
                      A                      A                      A
 Frequencies --   1349.0577              1373.3204              1386.2913
 Red. masses --      1.1403                 1.4079                 1.2064
 Frc consts  --      1.2227                 1.5644                 1.3660
 IR Inten    --      8.5879                12.9801                 4.1077

                     52                     53                     54
                      A                      A                      A
 Frequencies --   1398.0056              1401.4447              1414.6293
 Red. masses --      1.3243                 1.3378                 1.4078
 Frc consts  --      1.5249                 1.5480                 1.6598
 IR Inten    --      2.1268                 9.9167                 0.3102

                     55                     56                     57
                      A                      A                      A
 Frequencies --   1430.6400              1445.0077              1463.3204
 Red. masses --      1.2596                 1.2756                 1.3707
 Frc consts  --      1.5189                 1.5693                 1.7294
 IR Inten    --     10.6141                 3.1975                30.0029

                     58                     59                     60
                      A                      A                      A
 Frequencies --   1482.2588              1486.0820              1511.6872
 Red. masses --      1.3966                 1.3705                 1.0860
 Frc consts  --      1.8079                 1.7833                 1.4622
 IR Inten    --     17.7959                30.0972                 1.7400

                     61                     62                     63
                      A                      A                      A
 Frequencies --   1513.6567              1522.6912              1530.5772
 Red. masses --      1.0811                 1.0828                 1.0623
 Frc consts  --      1.4594                 1.4792                 1.4663
 IR Inten    --      3.0533                 4.6773                 8.7238

                     64                     65                     66
                      A                      A                      A
 Frequencies --   1533.8838              1541.2607              1555.1728
 Red. masses --      1.0494                 1.0799                 1.0853
 Frc consts  --      1.4547                 1.5115                 1.5466
 IR Inten    --      6.2876                 8.2126                 4.7993

                     67                     68                     69
                      A                      A                      A
 Frequencies --   2998.1346              3036.6719              3040.3375
 Red. masses --      1.0602                 1.0630                 1.0607
 Frc consts  --      5.6151                 5.7752                 5.7767
 IR Inten    --     51.6872                23.2898                16.6563

                     70                     71                     72
                      A                      A                      A
 Frequencies --   3040.9808              3045.6478              3047.4193
 Red. masses --      1.0997                 1.0385                 1.0608
 Frc consts  --      5.9918                 5.6755                 5.8044
 IR Inten    --     46.9198                 6.7510                23.2858

                     73                     74                     75
                      A                      A                      A
 Frequencies --   3055.6980              3059.0705              3070.1837
 Red. masses --      1.0661                 1.0731                 1.1000
 Frc consts  --      5.8650                 5.9166                 6.1092
 IR Inten    --     58.4966                34.2518                22.9535

                     76                     77                     78
                      A                      A                      A
 Frequencies --   3072.2214              3087.5204              3092.7818
 Red. masses --      1.0879                 1.1008                 1.1083
 Frc consts  --      6.0498                 6.1827                 6.2463
 IR Inten    --     28.0058                68.6930                35.4552

                     79                     80                     81
                      A                      A                      A
 Frequencies --   3110.7068              3111.7264              3115.0572
 Red. masses --      1.1079                 1.1024                 1.1017
 Frc consts  --      6.3161                 6.2893                 6.2987
 IR Inten    --     42.3186                53.5046                44.6596

                     82                     83                     84
                      A                      A                      A
 Frequencies --   3597.8981              3671.0080              3767.3653
 Red. masses --      1.0672                 1.0654                 1.0667
 Frc consts  --      8.1391                 8.4589                 8.9197
 IR Inten    --    175.6181                96.9464                22.2677

 - Thermochemistry -
 -------------------
 Temperature   298.150 Kelvin.  Pressure   1.00000 Atm.
 Atom     1 has atomic number  6 and mass  12.00000

 Molecular mass:   178.12051 amu.
 Principal axes and moments of inertia in atomic units:
                           1         2         3
     Eigenvalues --   867.708144444.138284641.75468
           X            0.99999   0.00471   0.00202
           Y           -0.00481   0.99860   0.05259
           Z           -0.00177  -0.05260   0.99861
 This molecule is an asymmetric top.
 Rotational symmetry number  1.
 Warning -- assumption of classical behavior for rotation
           may cause significant error
 Rotational temperatures (Kelvin)      0.09982     0.01949     0.01866
 Rotational constants (GHZ):           2.07989     0.40609     0.38881
 Zero-point vibrational energy     704589.3 (Joules/Mol)
                                  168.40089 (Kcal/Mol)
 Warning -- explicit consideration of  21 degrees of freedom as
           vibrations may cause significant error
 Vibrational temperatures:     62.45    75.49    99.31   149.34   171.78
          (Kelvin)            202.52   247.81   289.89   318.26   338.53
                              375.59   388.32   456.94   504.97   554.62
                              605.36   634.14   657.66   712.03   750.95
                              835.55   932.50  1015.72  1078.14  1180.73
                             1232.06  1277.67  1291.51  1354.93  1369.20
                             1425.81  1494.66  1534.23  1556.92  1562.89
                             1576.54  1601.60  1619.33  1663.15  1686.87
                             1692.45  1794.34  1801.48  1812.69  1850.76
                             1865.86  1906.10  1940.00  1940.99  1975.90
                             1994.56  2011.42  2016.37  2035.34  2058.37
                             2079.04  2105.39  2132.64  2138.14  2174.98
                             2177.81  2190.81  2202.16  2206.92  2217.53
                             2237.55  4313.65  4369.09  4374.37  4375.29
                             4382.01  4384.56  4396.47  4401.32  4417.31
                             4420.24  4442.25  4449.82  4475.61  4477.08
                             4481.87  5176.57  5281.76  5420.40

 Zero-point correction=                           0.268364 (Hartree/Particle)
 Thermal correction to Energy=                    0.282542
 Thermal correction to Enthalpy=                  0.283486
 Thermal correction to Gibbs Free Energy=         0.227293
 Sum of electronic and zero-point Energies=           -616.319331
 Sum of electronic and thermal Energies=              -616.305152
 Sum of electronic and thermal Enthalpies=            -616.304208
 Sum of electronic and thermal Free Energies=         -616.360401

                     E (Thermal)             CV                S
                      KCal/Mol        Cal/Mol-Kelvin    Cal/Mol-Kelvin
 Total                  177.298             52.196            118.268
 Electronic               0.000              0.000              0.000
 Translational            0.889              2.981             41.439
 Rotational               0.889              2.981             31.260
 Vibrational            175.520             46.235             45.570
 Vibration     1          0.595              1.980              5.097
 Vibration     2          0.596              1.977              4.722
 Vibration     3          0.598              1.969              4.181
 Vibration     4          0.605              1.946              3.382
 Vibration     5          0.609              1.933              3.110
 Vibration     6          0.615              1.913              2.794
 Vibration     7          0.626              1.877              2.411
 Vibration     8          0.638              1.838              2.120
 Vibration     9          0.648              1.809              1.949
 Vibration    10          0.655              1.787              1.838
 Vibration    11          0.669              1.744              1.655
 Vibration    12          0.674              1.729              1.597
 Vibration    13          0.704              1.640              1.322
 Vibration    14          0.728              1.573              1.162
 Vibration    15          0.754              1.501              1.018
 Vibration    16          0.783              1.425              0.889
 Vibration    17          0.801              1.381              0.824
 Vibration    18          0.815              1.345              0.775
 Vibration    19          0.850              1.261              0.671
 Vibration    20          0.877              1.201              0.605
 Vibration    21          0.937              1.073              0.484

 Optimization completed.
    -- Stationary point found.

 1\1\GINC-NODE355\Freq\RB3LYP\6-31G(d)\C8H18O4\VSC10255\09-Dec-2020\0\\
 #N Geom=AllCheck Guess=TCheck SCRF=Check GenChk RB3LYP/6-31G(d) Freq\\
 CID_54203687_JID_2553_neutraal\\0,1\C,2.4314172822,0.7829429853,0.1188
 616933\C,1.8610421785,1.1453759359,1.4940366613\C,0.864451419,2.312767
 9094,1.4717481844\C,-0.386091109,2.110756946,0.6027244701\C,-1.1571350
 903,0.8265732393,0.9333474348\O,-1.4478620688,0.6870394188,2.331344959
 6\C,-2.8200688339,0.7874559509,2.6941444233\C,-3.275271479,2.250914158
 4,2.7109565302\C,-4.5543148232,2.4459542482,3.5116389144\O,-5.56321898

 Normal termination of Gaussian 16 at Wed Dec  9 18:35:04 2020.

 ----------------------------------------------------------------------
 # B3LYP/6-311++G(d,p) empiricaldispersion=gd3bj scf=xqc pop=npa geom=c
 heck
 ----------------------------------------------------------------------

 --------------------------------------
 CID_54203687_JID_2553_Energie_neutraal
 --------------------------------------
 Structure from the checkpoint file:  "JID_2553.chk"
 Charge =  0 Multiplicity = 1

 SCF Done:  E(RB3LYP) =  -616.797644582     A.U. after   13 cycles
 Normal termination of Gaussian 16 at Wed Dec  9 18:37:27 2020.

 ----------------------------------------------------------------------
 # B3LYP/6-311++G(d,p) empiricaldispersion=gd3bj scf=xqc pop=npa geom=c
 heck
 ----------------------------------------------------------------------

 ------------------------------------
 CID_54203687_JID_2553_Energie_kation
 ------------------------------------
 Structure from the checkpoint file:  "JID_2553.chk"
 Charge =  1 Multiplicity = 2

 SCF Done:  E(UB3LYP) =  -616.464961944     A.U. after   25 cycles
 Normal termination of Gaussian 16 at Wed Dec  9 18:43:22 2020.
 Gaussian 16:  ES64L-G16RevA.03 25-Dec-2016

 -----------------------------------
 CID_54203687_JID_2553_Energie_anion
 -----------------------------------
 Structure from the checkpoint file:  "JID_2553.chk"
 Charge = -1 Multiplicity = 2

                         Standard orientation:
 ---------------------------------------------------------------------
 Center     Atomic      Atomic             Coordinates (Angstroms)
 Number     Number       Type             X           Y           Z
 ---------------------------------------------------------------------
      1          6           0        4.356720    0.533671    0.196457
      2          6           0        3.282188    0.282805   -0.866670
      3          6           0        2.246522   -0.779699   -0.472999
      4          6           0        1.436295   -0.487851    0.799095
      5          6           0        0.739219    0.878376    0.777715
      6          8           0       -0.032254    1.099686   -0.411503
      7          6           0       -1.443486    1.150211   -0.236773
      8          6           0       -2.025682   -0.259003   -0.080676
      9          6           0       -3.523321   -0.295017   -0.346877
     10          8           0       -4.138049    0.559909    0.610529
     11          8           0       -1.378719   -1.146980   -1.004372
     12          8           0        0.539867   -1.553563    1.086293
     13          1           0        3.934938    0.962132    1.112840
     14          1           0        5.118130    1.230887   -0.170067
     15          1           0        4.862170   -0.399902    0.472289
     16          1           0        2.769667    1.222555   -1.108431
     17          1           0        3.768305   -0.042099   -1.795488
     18          1           0        1.544277   -0.912443   -1.306644
     19          1           0        2.738933   -1.749033   -0.326843
     20          1           0        2.117651   -0.458090    1.658790
     21          1           0        0.102701    0.963219    1.666461
     22          1           0        1.491608    1.675595    0.818868
     23          1           0       -1.726416    1.779544    0.614304
     24          1           0       -1.831125    1.611741   -1.152777
     25          1           0       -1.833708   -0.621923    0.935791
     26          1           0       -3.711473    0.040832   -1.379334
     27          1           0       -3.876598   -1.332858   -0.261123
     28          1           0       -5.096342    0.520028    0.478580
     29          1           0       -0.676951   -0.617614   -1.425426
     30          1           0       -0.033257   -1.685952    0.305004
 ---------------------------------------------------------------------

 SCF Done:  E(UB3LYP) =  -616.784048341     A.U. after   33 cycles
 SCF Done:  E(UB3LYP) =  -616.784048341     a.u. after    1 cycles

 The electronic state is 2-A.
 Alpha  occ. eigenvalues --  -19.05024 -19.04651 -19.02188 -19.02146 -10.13516
 Alpha  occ. eigenvalues --  -10.13259 -10.13196 -10.13179 -10.11894 -10.07704
 Alpha  occ. eigenvalues --  -10.07603 -10.06580  -0.97061  -0.93907  -0.92566
 Alpha  occ. eigenvalues --   -0.92156  -0.71201  -0.68084  -0.64999  -0.60743
 Alpha  occ. eigenvalues --   -0.57661  -0.53260  -0.50477  -0.48204  -0.44270
 Alpha  occ. eigenvalues --   -0.42604  -0.41226  -0.41028  -0.39296  -0.37944
 Alpha  occ. eigenvalues --   -0.36250  -0.35369  -0.33708  -0.32844  -0.32468
 Alpha  occ. eigenvalues --   -0.30985  -0.30216  -0.27774  -0.27488  -0.27264
 Alpha  occ. eigenvalues --   -0.25496  -0.25066  -0.24446  -0.23652  -0.23227
 Alpha  occ. eigenvalues --   -0.20679  -0.19207  -0.17964  -0.17044   0.04402
 Alpha virt. eigenvalues --    0.05302   0.07300   0.08115   0.08278   0.09191
 Alpha virt. eigenvalues --    0.09626   0.10603   0.10909   0.10949   0.11444
 Alpha virt. eigenvalues --    0.11924   0.12796   0.13335   0.14132   0.14773

  Beta  occ. eigenvalues --  -19.05015 -19.04640 -19.02186 -19.02070 -10.13512
  Beta  occ. eigenvalues --  -10.13251 -10.13195 -10.13175 -10.11867 -10.07696
  Beta  occ. eigenvalues --  -10.07586 -10.06537  -0.97041  -0.93878  -0.92554
  Beta  occ. eigenvalues --   -0.92004  -0.71176  -0.68042  -0.64952  -0.60695
  Beta  occ. eigenvalues --   -0.57609  -0.53208  -0.50430  -0.48159  -0.44198
  Beta  occ. eigenvalues --   -0.42572  -0.41195  -0.40984  -0.39264  -0.37900
  Beta  occ. eigenvalues --   -0.36214  -0.35344  -0.33676  -0.32803  -0.32432
  Beta  occ. eigenvalues --   -0.30955  -0.30192  -0.27747  -0.27457  -0.27232
  Beta  occ. eigenvalues --   -0.25428  -0.25031  -0.24422  -0.23629  -0.23208
  Beta  occ. eigenvalues --   -0.20655  -0.19188  -0.17903  -0.17027
  Beta virt. eigenvalues --    0.06435   0.07445   0.07566   0.08428   0.08751
  Beta virt. eigenvalues --    0.09485   0.09821   0.10821   0.11216   0.11373
  Beta virt. eigenvalues --    0.11681   0.12246   0.12888   0.13316   0.14389

 Mulliken charges and spin densities:
               1          2
     1  C    1.432599  -2.040207
     2  C   -1.037745   0.829621
     3  C    0.370526  -0.370123
     4  C   -0.289976  -0.168972
     5  C   -0.032908  -0.278363
     6  O   -0.136616   0.017800
     7  C   -0.381992   0.082059
     8  C   -1.242528   0.763385
     9  C    1.570233  -1.765591
    10  O   -0.330794   0.075096
    11  O   -0.199842   0.003281
    12  O   -0.173969   0.011938
    13  H   -0.223891   0.344316
    14  H   -0.672176   0.821270
    15  H   -0.103221   0.246198
    16  H    0.128574   0.033329
    17  H   -0.433816   0.592815
    18  H    0.125124  -0.014678
    19  H   -0.012454   0.185799
    20  H    0.186803   0.017607
    21  H    0.175481  -0.044152
    22  H   -0.003821   0.204155
    23  H    0.180836   0.010423
    24  H    0.189456  -0.010648
    25  H    0.256089  -0.028680
    26  H   -0.295372   0.451562
    27  H   -0.142697   0.303382
    28  H   -0.443176   0.732265
    29  H    0.259486   0.007040
    30  H    0.281789  -0.011926
 Sum of Mulliken charges =  -1.00000   1.00000

 Dipole moment (field-independent basis, Debye):
    X=              2.4745    Y=             -0.3896    Z=             -0.0606  Tot=              2.5057
 Quadrupole moment (field-independent basis, Debye-Ang):
   XX=           -219.6296   YY=           -104.7335   ZZ=           -100.1442
   XY=             -3.8115   XZ=              7.4414   YZ=              1.3700

 Summary of Natural Population Analysis:

                                       Natural Population
                Natural  -----------------------------------------------
    Atom  No    Charge         Core      Valence    Rydberg      Total
 -----------------------------------------------------------------------
      C    1   -0.28736      0.99967     2.28201    0.00568     3.28736
      C    2   -0.19520      0.99964     2.18635    0.00922     3.19520
      C    3   -0.19979      0.99961     2.18999    0.01019     3.19979
      C    4    0.04761      0.99955     1.93770    0.01513     2.95239
      C    5   -0.02353      0.99955     2.01104    0.01294     3.02353
      O    6   -0.31305      0.99989     3.30422    0.00895     4.31305
      C    7   -0.02083      0.99956     2.00938    0.01189     3.02083
      C    8    0.03296      0.99957     1.95358    0.01388     2.96704
      C    9   -0.01175      0.99958     1.99842    0.01375     3.01175
      O   10   -0.37513      0.99989     3.36782    0.00741     4.37513
      O   11   -0.37951      0.99990     3.37348    0.00614     4.37951
      O   12   -0.38123      0.99990     3.37501    0.00632     4.38123
      H   13    0.09282      0.00000     0.40590    0.00128     0.40718
      H   14    0.10350      0.00000     0.39437    0.00213     0.39650
      H   15    0.09676      0.00000     0.40201    0.00123     0.40324
      H   16    0.09647      0.00000     0.40213    0.00140     0.40353
      H   17    0.09841      0.00000     0.40042    0.00118     0.40159
      H   18    0.09413      0.00000     0.40449    0.00138     0.40587
      H   19    0.10130      0.00000     0.39762    0.00108     0.39870
      H   20    0.08936      0.00000     0.40934    0.00130     0.41064
      H   21    0.08881      0.00000     0.41004    0.00115     0.41119
      H   22    0.09159      0.00000     0.40731    0.00109     0.40841
      H   23    0.09543      0.00000     0.40368    0.00089     0.40457
      H   24    0.09148      0.00000     0.40761    0.00091     0.40852
      H   25    0.08829      0.00000     0.40982    0.00189     0.41171
      H   26    0.07722      0.00000     0.42114    0.00165     0.42278
      H   27    0.08353      0.00000     0.41510    0.00136     0.41647
      H   28    0.24206      0.00000     0.21544    0.04251     0.25794
      H   29    0.23725      0.00000     0.26006    0.00268     0.26275
      H   30    0.23840      0.00000     0.25885    0.00275     0.26160
 =======================================================================
   * Total *    0.00000     11.99630    36.81435    0.18936    49.00000

 Normal termination of Gaussian 16 at Wed Dec  9 18:51:06 2020.
