 Gaussian 16, Revision A.03,

 -----------------------------------------------------------
 # opt freq B3LYP/6-31G(d) empiricaldispersion=gd3bj scf=xqc
 -----------------------------------------------------------

 -------------------------------
 CID_151523025_JID_2888_neutraal
 -------------------------------
 Symbolic Z-matrix:
 Charge =  0 Multiplicity = 1

 SCF Done:  E(RB3LYP) =  -622.631916262     A.U. after   16 cycles
 SCF Done:  E(RB3LYP) =  -622.644375308     A.U. after   13 cycles
 SCF Done:  E(RB3LYP) =  -622.645774213     A.U. after   13 cycles
 SCF Done:  E(RB3LYP) =  -622.647018414     A.U. after   13 cycles
 SCF Done:  E(RB3LYP) =  -622.648248477     A.U. after   13 cycles
 SCF Done:  E(RB3LYP) =  -622.649498710     A.U. after   15 cycles
 SCF Done:  E(RB3LYP) =  -622.650112660     A.U. after   13 cycles
 SCF Done:  E(RB3LYP) =  -622.650609000     A.U. after   13 cycles
 SCF Done:  E(RB3LYP) =  -622.650889949     A.U. after   13 cycles
 SCF Done:  E(RB3LYP) =  -622.650975268     A.U. after   12 cycles
 SCF Done:  E(RB3LYP) =  -622.651002775     A.U. after   10 cycles
 SCF Done:  E(RB3LYP) =  -622.651008013     A.U. after   10 cycles
 SCF Done:  E(RB3LYP) =  -622.651009256     A.U. after    9 cycles
 SCF Done:  E(RB3LYP) =  -622.651009736     A.U. after    9 cycles
 SCF Done:  E(RB3LYP) =  -622.651009840     A.U. after    8 cycles
 Optimization completed.
    -- Stationary point found.
 Normal termination of Gaussian 16 at Wed Dec  9 17:56:18 2020.

 --------------------------------------------------------------------
 #N Geom=AllCheck Guess=TCheck SCRF=Check GenChk RB3LYP/6-31G(d) Freq
 --------------------------------------------------------------------

 Structure from the checkpoint file:  "JID_2888.chk"
 -------------------------------
 CID_151523025_JID_2888_neutraal
 -------------------------------
 Charge =  0 Multiplicity = 1

 SCF Done:  E(RB3LYP) =  -622.651009840     A.U. after    1 cycles

  Exact polarizability:  92.530   4.861  85.358  -1.422  -0.310  71.997
 Approx polarizability: 135.460  30.264 150.085  -7.283 -12.086 128.427

                      1                      2                      3
                      A                      A                      A
 Frequencies --     36.9857                46.8167                63.8972
 Red. masses --      4.0514                10.2425                 4.5617
 Frc consts  --      0.0033                 0.0132                 0.0110
 IR Inten    --      0.5529                 0.8514                 3.5260

                      4                      5                      6
                      A                      A                      A
 Frequencies --     80.3293               139.6859               182.3020
 Red. masses --      5.3098                 4.3966                 6.2350
 Frc consts  --      0.0202                 0.0505                 0.1221
 IR Inten    --      2.6556                 1.1324                 0.2464

                      7                      8                      9
                      A                      A                      A
 Frequencies --    206.8971               348.4987               354.5461
 Red. masses --      4.2298                 4.7522                 5.5425
 Frc consts  --      0.1067                 0.3401                 0.4105
 IR Inten    --      1.0203                 0.2776                 1.5198

                     10                     11                     12
                      A                      A                      A
 Frequencies --    467.9737               474.5123               575.3044
 Red. masses --     10.9217                 6.2537                 4.2971
 Frc consts  --      1.4092                 0.8296                 0.8380
 IR Inten    --      3.2647                 0.6738                 3.6465

                     13                     14                     15
                      A                      A                      A
 Frequencies --    589.7886               632.6547               722.6616
 Red. masses --     12.9696                 2.8689                11.5021
 Frc consts  --      2.6581                 0.6766                 3.5391
 IR Inten    --      7.7476                10.1758                 7.3844

                     16                     17                     18
                      A                      A                      A
 Frequencies --    745.2358               823.3366               832.5587
 Red. masses --      1.3470                 5.4959                 9.9397
 Frc consts  --      0.4408                 2.1951                 4.0593
 IR Inten    --     27.4891                13.4870                63.5317

                     19                     20                     21
                      A                      A                      A
 Frequencies --    903.7036               906.6851               909.5406
 Red. masses --      5.9262                 4.1730                 1.3071
 Frc consts  --      2.8515                 2.0212                 0.6371
 IR Inten    --    202.8154                29.1580                 2.4004

                     22                     23                     24
                      A                      A                      A
 Frequencies --    950.2261               969.4583              1037.0168
 Red. masses --      5.2463                 3.3853                 3.6281
 Frc consts  --      2.7910                 1.8746                 2.2988
 IR Inten    --     15.3684                69.7157                 7.1107

                     25                     26                     27
                      A                      A                      A
 Frequencies --   1045.9297              1049.8388              1053.7554
 Red. masses --      3.2777                10.9208                 4.8563
 Frc consts  --      2.1126                 7.0917                 3.1771
 IR Inten    --     17.9506                88.7848                22.0515

                     28                     29                     30
                      A                      A                      A
 Frequencies --   1113.0395              1131.2332              1170.8874
 Red. masses --      2.7464                 3.1516                 1.0868
 Frc consts  --      2.0046                 2.3762                 0.8779
 IR Inten    --     86.5203               125.8762                 2.1836

                     31                     32                     33
                      A                      A                      A
 Frequencies --   1181.1263              1218.6746              1259.6515
 Red. masses --      1.1758                 2.2732                 1.2838
 Frc consts  --      0.9665                 1.9891                 1.2002
 IR Inten    --      0.2051               127.7463                 1.1211

                     34                     35                     36
                      A                      A                      A
 Frequencies --   1269.3950              1294.0596              1322.7869
 Red. masses --      1.3387                 4.9908                 1.2557
 Frc consts  --      1.2709                 4.9241                 1.2945
 IR Inten    --     17.4905               194.2401                 0.5375

                     37                     38                     39
                      A                      A                      A
 Frequencies --   1369.6115              1385.2753              1422.9506
 Red. masses --      1.5262                 1.4996                 1.3626
 Frc consts  --      1.6868                 1.6955                 1.6256
 IR Inten    --     10.4067                 9.8191                21.7321

                     40                     41                     42
                      A                      A                      A
 Frequencies --   1428.2302              1540.9373              1566.0343
 Red. masses --      1.8529                 1.0815                 1.1129
 Frc consts  --      2.2269                 1.5130                 1.6081
 IR Inten    --      3.3138                 2.2536                 1.6874

                     43                     44                     45
                      A                      A                      A
 Frequencies --   1760.5210              2266.3779              3035.4728
 Red. masses --      7.9213                13.9217                 1.0591
 Frc consts  --     14.4653                42.1315                 5.7496
 IR Inten    --     10.0605               354.5797                81.3638

                     46                     47                     48
                      A                      A                      A
 Frequencies --   3053.3706              3076.8698              3093.6162
 Red. masses --      1.0580                 1.0898                 1.1038
 Frc consts  --      5.8119                 6.0790                 6.2242
 IR Inten    --     23.1627                 4.1519                34.3743

                     49                     50                     51
                      A                      A                      A
 Frequencies --   3106.5841              3180.4795              3323.3530
 Red. masses --      1.1100                 1.0922                 1.1005
 Frc consts  --      6.3116                 6.5096                 7.1614
 IR Inten    --     72.7918                27.5637                 3.9221

 - Thermochemistry -
 -------------------
 Temperature   298.150 Kelvin.  Pressure   1.00000 Atm.
 Atom     1 has atomic number  6 and mass  12.00000

 Molecular mass:   169.04874 amu.
 Principal axes and moments of inertia in atomic units:
                           1         2         3
     Eigenvalues --  1063.285762594.035143102.51402
           X            1.00000   0.00202  -0.00143
           Y           -0.00198   0.99962   0.02746
           Z            0.00148  -0.02746   0.99962
 This molecule is an asymmetric top.
 Rotational symmetry number  1.
 Warning -- assumption of classical behavior for rotation
           may cause significant error
 Rotational temperatures (Kelvin)      0.08146     0.03339     0.02792
 Rotational constants (GHZ):           1.69732     0.69573     0.58170
 Zero-point vibrational energy     369171.6 (Joules/Mol)
                                   88.23414 (Kcal/Mol)
 Warning -- explicit consideration of  13 degrees of freedom as
           vibrations may cause significant error
 Vibrational temperatures:     53.21    67.36    91.93   115.58   200.98
          (Kelvin)            262.29   297.68   501.41   510.11   673.31
                              682.72   827.73   848.57   910.25  1039.75
                             1072.23  1184.60  1197.87  1300.23  1304.52
                             1308.63  1367.16  1394.83  1492.04  1504.86
                             1510.48  1516.12  1601.42  1627.59  1684.65
                             1699.38  1753.40  1812.36  1826.38  1861.86
                             1903.20  1970.57  1993.10  2047.31  2054.90
                             2217.07  2253.17  2533.00  3260.81  4367.37
                             4393.12  4426.93  4451.02  4469.68  4576.00
                             4781.56

 Zero-point correction=                           0.140610 (Hartree/Particle)
 Thermal correction to Energy=                    0.151114
 Thermal correction to Enthalpy=                  0.152058
 Thermal correction to Gibbs Free Energy=         0.102160
 Sum of electronic and zero-point Energies=           -622.510400
 Sum of electronic and thermal Energies=              -622.499896
 Sum of electronic and thermal Enthalpies=            -622.498952
 Sum of electronic and thermal Free Energies=         -622.548849

                     E (Thermal)             CV                S
                      KCal/Mol        Cal/Mol-Kelvin    Cal/Mol-Kelvin
 Total                   94.825             37.077            105.018
 Electronic               0.000              0.000              0.000
 Translational            0.889              2.981             41.283
 Rotational               0.889              2.981             30.527
 Vibrational             93.048             31.115             33.208
 Vibration     1          0.594              1.982              5.414
 Vibration     2          0.595              1.979              4.948
 Vibration     3          0.597              1.972              4.333
 Vibration     4          0.600              1.963              3.883
 Vibration     5          0.615              1.914              2.808
 Vibration     6          0.630              1.864              2.305
 Vibration     7          0.641              1.830              2.071
 Vibration     8          0.726              1.578              1.173
 Vibration     9          0.730              1.566              1.146
 Vibration    10          0.825              1.321              0.743
 Vibration    11          0.831              1.307              0.725
 Vibration    12          0.932              1.085              0.494
 Vibration    13          0.947              1.054              0.468

                           ! Non-Optimized Parameters !
 Normal termination of Gaussian 16 at Wed Dec  9 18:01:20 2020.

 ----------------------------------------------------------------------
 # B3LYP/6-311++G(d,p) empiricaldispersion=gd3bj scf=xqc pop=npa geom=c
 heck
 ----------------------------------------------------------------------

 ---------------------------------------
 CID_151523025_JID_2888_Energie_neutraal
 ---------------------------------------
 Structure from the checkpoint file:  "JID_2888.chk"
 Charge =  0 Multiplicity = 1

 SCF Done:  E(RB3LYP) =  -622.828794899     A.U. after   16 cycles
 Normal termination of Gaussian 16 at Wed Dec  9 18:04:02 2020.

 ----------------------------------------------------------------------
 # B3LYP/6-311++G(d,p) empiricaldispersion=gd3bj scf=xqc pop=npa geom=c
 heck
 ----------------------------------------------------------------------

 -------------------------------------
 CID_151523025_JID_2888_Energie_kation
 -------------------------------------
 Structure from the checkpoint file:  "JID_2888.chk"
 Charge =  1 Multiplicity = 2

 SCF Done:  E(UB3LYP) =  -622.514252256     A.U. after   26 cycles
 Normal termination of Gaussian 16 at Wed Dec  9 18:08:37 2020.
 Gaussian 16:  ES64L-G16RevA.03 25-Dec-2016

 ----------------------------------------------------------------------
 # B3LYP/6-311++G(d,p) empiricaldispersion=gd3bj scf=xqc pop=npa geom=c
 heck
 ----------------------------------------------------------------------

 ------------------------------------
 CID_151523025_JID_2888_Energie_anion
 ------------------------------------
 Structure from the checkpoint file:  "JID_2888.chk"
 Charge = -1 Multiplicity = 2

                         Standard orientation:
 ---------------------------------------------------------------------
 Center     Atomic      Atomic             Coordinates (Angstroms)
 Number     Number       Type             X           Y           Z
 ---------------------------------------------------------------------
      1          6           0        2.758052   -0.571644   -0.496875
      2          6           0        1.654861   -0.464421    0.577102
      3          6           0        2.042338    1.040397    0.592929
      4          8           0        3.155285    0.798728   -0.295242
      5          6           0        0.276288   -0.819730    0.189807
      6          6           0       -0.298370   -1.258963   -0.929278
      7          8           0       -1.670788   -1.392952   -0.751807
      8          6           0       -1.950838   -0.771585    0.491755
      9          8           0       -0.711872   -0.638305    1.165239
     10          7           0       -2.629763    0.524881    0.323691
     11          7           0       -1.949020    1.408733   -0.217404
     12          7           0       -1.430076    2.305783   -0.690045
     13          1           0        2.391007   -0.744150   -1.517600
     14          1           0        3.570060   -1.275925   -0.284989
     15          1           0        1.918573   -0.964227    1.514971
     16          1           0        2.365029    1.447026    1.557545
     17          1           0        1.291026    1.702332    0.145127
     18          1           0        0.092145   -1.523283   -1.897734
     19          1           0       -2.640820   -1.381643    1.070832
 ---------------------------------------------------------------------

 SCF Done:  E(UB3LYP) =  -622.822297527     A.U. after   33 cycles
 SCF Done:  E(UB3LYP) =  -622.822297527     a.u. after    1 cycles

 The electronic state is 2-A.
 Alpha  occ. eigenvalues --  -19.05537 -19.05399 -19.02356 -14.32471 -14.23245
 Alpha  occ. eigenvalues --  -14.21980 -10.20416 -10.12602 -10.12526 -10.12186
 Alpha  occ. eigenvalues --  -10.11748 -10.09603  -1.02968  -0.99341  -0.95028
 Alpha  occ. eigenvalues --   -0.92252  -0.83963  -0.70575  -0.64281  -0.59989
 Alpha  occ. eigenvalues --   -0.57012  -0.52521  -0.47729  -0.45585  -0.43306
 Alpha  occ. eigenvalues --   -0.41437  -0.39216  -0.38013  -0.36068  -0.35459
 Alpha  occ. eigenvalues --   -0.34815  -0.32274  -0.31912  -0.30976  -0.29129
 Alpha  occ. eigenvalues --   -0.27412  -0.26719  -0.25062  -0.23340  -0.22658
 Alpha  occ. eigenvalues --   -0.18862  -0.16008  -0.13544  -0.10624   0.04908
 Alpha virt. eigenvalues --    0.06662   0.08275   0.08775   0.09526   0.10190
 Alpha virt. eigenvalues --    0.11474   0.12259   0.12668   0.13272   0.13760
 Alpha virt. eigenvalues --    0.14806   0.16014   0.16826   0.17098   0.17425

  Beta  occ. eigenvalues --  -19.05541 -19.05398 -19.02353 -14.32112 -14.22795
  Beta  occ. eigenvalues --  -14.22025 -10.20304 -10.12605 -10.12497 -10.12183
  Beta  occ. eigenvalues --  -10.11729 -10.09588  -1.02879  -0.98729  -0.95016
  Beta  occ. eigenvalues --   -0.92246  -0.83636  -0.70519  -0.64172  -0.59947
  Beta  occ. eigenvalues --   -0.56810  -0.52493  -0.47640  -0.45421  -0.43124
  Beta  occ. eigenvalues --   -0.41350  -0.38927  -0.37815  -0.35770  -0.35411
  Beta  occ. eigenvalues --   -0.33665  -0.32171  -0.31144  -0.30785  -0.29023
  Beta  occ. eigenvalues --   -0.27354  -0.26683  -0.25045  -0.23313  -0.22594
  Beta  occ. eigenvalues --   -0.17998  -0.15987  -0.13424  -0.10497
  Beta virt. eigenvalues --    0.07572   0.08701   0.08926   0.09911   0.10552
  Beta virt. eigenvalues --    0.11314   0.11648   0.12607   0.12886   0.13348
  Beta virt. eigenvalues --    0.13869   0.14948   0.16031   0.16854   0.17268

 Mulliken charges and spin densities:
               1          2
     1  C    1.109753  -1.401082
     2  C   -0.847676   0.831599
     3  C   -0.096612  -0.258212
     4  O   -0.238054   0.023201
     5  C    1.084060  -1.175589
     6  C   -0.396920   0.378794
     7  O   -0.096522   0.012559
     8  C    0.516710  -0.821783
     9  O   -0.096629   0.034140
    10  N   -0.043855   0.301417
    11  N    0.306799   0.033422
    12  N   -0.472196   0.026011
    13  H    0.105246   0.035611
    14  H   -0.513049   0.672646
    15  H   -0.456316   0.678033
    16  H    0.084453   0.051169
    17  H    0.188240   0.011546
    18  H   -0.287536   0.454370
    19  H   -0.849895   1.112151
 Sum of Mulliken charges =  -1.00000   1.00000

 Dipole moment (field-independent basis, Debye):
    X=              0.8224    Y=              1.4636    Z=             -0.9180  Tot=              1.9134
 Quadrupole moment (field-independent basis, Debye-Ang):
   XX=           -127.2725   YY=           -104.2815   ZZ=            -89.6157
   XY=              6.3848   XZ=              2.6521   YZ=              6.2354

 Summary of Natural Population Analysis:

                                       Natural Population
                Natural  -----------------------------------------------
    Atom  No    Charge         Core      Valence    Rydberg      Total
 -----------------------------------------------------------------------
      C    1    0.00525      0.99963     1.98157    0.01355     2.99475
      C    2   -0.15548      0.99957     2.14333    0.01258     3.15548
      C    3    0.00272      0.99962     1.98559    0.01208     2.99728
      O    4   -0.30498      0.99991     3.29722    0.00785     4.30498
      C    5    0.11720      0.99941     1.86772    0.01567     2.88280
      C    6    0.03161      0.99937     1.95600    0.01302     2.96839
      O    7   -0.28024      0.99988     3.27162    0.00873     4.28024
      C    8    0.29690      0.99965     1.67963    0.02382     2.70310
      O    9   -0.28346      0.99987     3.27473    0.00886     4.28346
      N   10   -0.22795      0.99970     2.71305    0.01520     3.72795
      N   11    0.14632      0.99970     2.33752    0.01646     3.35368
      N   12    0.00600      0.99981     2.48126    0.01292     3.49400
      H   13    0.08144      0.00000     0.41701    0.00154     0.41856
      H   14    0.08841      0.00000     0.40892    0.00267     0.41159
      H   15    0.11273      0.00000     0.38474    0.00253     0.38727
      H   16    0.08195      0.00000     0.41689    0.00116     0.41805
      H   17    0.09225      0.00000     0.40638    0.00137     0.40775
      H   18    0.10199      0.00000     0.39679    0.00123     0.39801
      H   19    0.08734      0.00000     0.40897    0.00370     0.41266
 =======================================================================
   * Total *    0.00000     11.99612    31.82895    0.17493    44.00000

 Normal termination of Gaussian 16 at Wed Dec  9 18:18:35 2020.
