 Gaussian 16, Revision A.03,

 -----------------------------------------------------------
 # opt freq B3LYP/6-31G(d) empiricaldispersion=gd3bj scf=xqc
 -----------------------------------------------------------

 ------------------------------
 CID_29550959_JID_3904_neutraal
 ------------------------------
 Symbolic Z-matrix:
 Charge =  0 Multiplicity = 1

 SCF Done:  E(RB3LYP) =  -627.552020225     A.U. after   16 cycles
 SCF Done:  E(RB3LYP) =  -627.574513190     A.U. after   13 cycles
 SCF Done:  E(RB3LYP) =  -627.575857550     A.U. after   13 cycles
 SCF Done:  E(RB3LYP) =  -627.562704535     A.U. after   15 cycles
 SCF Done:  E(RB3LYP) =  -627.576437880     A.U. after   12 cycles
 SCF Done:  E(RB3LYP) =  -627.573430063     A.U. after   15 cycles
 SCF Done:  E(RB3LYP) =  -627.576522453     A.U. after   12 cycles
 SCF Done:  E(RB3LYP) =  -627.576933443     A.U. after   12 cycles
 SCF Done:  E(RB3LYP) =  -627.576794390     A.U. after   12 cycles
 SCF Done:  E(RB3LYP) =  -627.577209108     A.U. after   12 cycles
 SCF Done:  E(RB3LYP) =  -627.578485426     A.U. after   11 cycles
 SCF Done:  E(RB3LYP) =  -627.578496003     A.U. after   11 cycles
 SCF Done:  E(RB3LYP) =  -627.578501637     A.U. after   10 cycles
 SCF Done:  E(RB3LYP) =  -627.578502396     A.U. after   10 cycles
 SCF Done:  E(RB3LYP) =  -627.578502468     A.U. after    8 cycles
 Optimization completed.
    -- Stationary point found.
 Normal termination of Gaussian 16 at Sun Dec 13 15:59:30 2020.

 --------------------------------------------------------------------
 #N Geom=AllCheck Guess=TCheck SCRF=Check GenChk RB3LYP/6-31G(d) Freq
 --------------------------------------------------------------------

 Structure from the checkpoint file:  "JID_3904.chk"
 ------------------------------
 CID_29550959_JID_3904_neutraal
 ------------------------------
 Charge =  0 Multiplicity = 1

 SCF Done:  E(RB3LYP) =  -627.578502468     A.U. after    1 cycles

  Exact polarizability: 138.786   3.822 133.189   0.004   0.001  43.060
 Approx polarizability: 230.848  19.312 216.884   0.012   0.003  65.911

                      1                      2                      3
                      A                      A                      A
 Frequencies --     31.2647                73.7173               103.9291
 Red. masses --      3.7189                 7.1989                 8.4897
 Frc consts  --      0.0021                 0.0230                 0.0540
 IR Inten    --      0.5895                 0.0821                 4.1145

                      4                      5                      6
                      A                      A                      A
 Frequencies --    106.7195               174.5182               190.7401
 Red. masses --      5.5359                 3.2584                 5.8151
 Frc consts  --      0.0371                 0.0585                 0.1246
 IR Inten    --      0.0586                 2.8197                 1.7284

                      7                      8                      9
                      A                      A                      A
 Frequencies --    259.8574               293.6470               336.8474
 Red. masses --      5.4021                 7.6746                 3.2667
 Frc consts  --      0.2149                 0.3899                 0.2184
 IR Inten    --      0.5106                 8.4342                 5.8732

                     10                     11                     12
                      A                      A                      A
 Frequencies --    356.5948               384.2999               415.4852
 Red. masses --      9.6675                 8.6540                 3.6320
 Frc consts  --      0.7243                 0.7530                 0.3694
 IR Inten    --      0.8065                 4.2681                 4.4677

                     13                     14                     15
                      A                      A                      A
 Frequencies --    497.7849               512.7844               581.8253
 Red. masses --      7.7273                 2.3970                 5.4362
 Frc consts  --      1.1281                 0.3714                 1.0843
 IR Inten    --     20.1652                23.6117                 8.4174

                     16                     17                     18
                      A                      A                      A
 Frequencies --    595.9791               597.0623               610.4353
 Red. masses --      6.7556                 1.2621                 1.2052
 Frc consts  --      1.4138                 0.2651                 0.2646
 IR Inten    --      7.8230                67.3576                49.0764

                     19                     20                     21
                      A                      A                      A
 Frequencies --    629.5548               671.9225               727.6189
 Red. masses --      5.8664                 1.2505                 4.7735
 Frc consts  --      1.3699                 0.3326                 1.4890
 IR Inten    --     56.7224                39.0128                 3.6677

                     22                     23                     24
                      A                      A                      A
 Frequencies --    731.5541               772.7664               834.0437
 Red. masses --      3.7713                 6.7784                 5.7883
 Frc consts  --      1.1892                 2.3849                 2.3723
 IR Inten    --     15.7993                49.2996                12.8798

                     25                     26                     27
                      A                      A                      A
 Frequencies --    854.0160               936.3496               946.2123
 Red. masses --      1.6907                 5.6107                 1.4118
 Frc consts  --      0.7265                 2.8983                 0.7447
 IR Inten    --     25.5568                 1.3711                 4.9755

                     28                     29                     30
                      A                      A                      A
 Frequencies --    995.0260              1000.9748              1018.9449
 Red. masses --      3.8874                 1.6979                 1.2973
 Frc consts  --      2.2677                 1.0023                 0.7936
 IR Inten    --      8.5476                 0.1236                 0.3040

                     31                     32                     33
                      A                      A                      A
 Frequencies --   1095.3295              1130.2877              1165.2281
 Red. masses --      3.3223                 2.9921                 1.8056
 Frc consts  --      2.3484                 2.2522                 1.4444
 IR Inten    --    114.3715               106.7394                 1.2368

                     34                     35                     36
                      A                      A                      A
 Frequencies --   1228.5810              1240.8776              1269.1696
 Red. masses --      1.9920                 1.8967                 1.0672
 Frc consts  --      1.7715                 1.7207                 1.0129
 IR Inten    --     63.9376               153.6305                 1.2867

                     37                     38                     39
                      A                      A                      A
 Frequencies --   1315.6495              1374.9753              1405.0494
 Red. masses --      1.6883                 1.6330                 2.3789
 Frc consts  --      1.7218                 1.8190                 2.7670
 IR Inten    --    162.1432                 2.7321               156.1063

                     40                     41                     42
                      A                      A                      A
 Frequencies --   1459.2996              1490.1905              1515.3877
 Red. masses --      2.2786                 2.3843                 1.3873
 Frc consts  --      2.8590                 3.1195                 1.8770
 IR Inten    --      4.2456                60.9058                39.7265

                     43                     44                     45
                      A                      A                      A
 Frequencies --   1592.8353              1682.4132              1773.2699
 Red. masses --      6.4098                 5.8493                10.5298
 Frc consts  --      9.5816                 9.7548                19.5084
 IR Inten    --     76.7056                30.1796               591.6371

                     46                     47                     48
                      A                      A                      A
 Frequencies --   1821.1272              2252.4744              3074.6953
 Red. masses --      9.7335                 5.9410                 1.0590
 Frc consts  --     19.0194                17.7595                 5.8984
 IR Inten    --    358.7001                 2.3205                 4.4441

                     49                     50                     51
                      A                      A                      A
 Frequencies --   3103.1179              3221.7656              3240.6574
 Red. masses --      1.1037                 1.0888                 1.0954
 Frc consts  --      6.2618                 6.6588                 6.7777
 IR Inten    --      1.4737                 0.5775                 2.5366

                     52                     53                     54
                      A                      A                      A
 Frequencies --   3259.8664              3493.3438              3706.1814
 Red. masses --      1.0920                 1.1622                 1.0643
 Frc consts  --      6.8372                 8.3560                 8.6132
 IR Inten    --      8.5320                64.3243                83.9501

 - Thermochemistry -
 -------------------
 Temperature   298.150 Kelvin.  Pressure   1.00000 Atm.
 Atom     1 has atomic number  6 and mass  12.00000

 Molecular mass:   177.04259 amu.
 Principal axes and moments of inertia in atomic units:
                           1         2         3
     Eigenvalues --  1687.915882787.882664464.83258
           X            0.99970  -0.02446   0.00000
           Y            0.02446   0.99970  -0.00000
           Z           -0.00000   0.00000   1.00000
 This molecule is an asymmetric top.
 Rotational symmetry number  1.
 Warning -- assumption of classical behavior for rotation
           may cause significant error
 Rotational temperatures (Kelvin)      0.05131     0.03107     0.01940
 Rotational constants (GHZ):           1.06921     0.64735     0.40421
 Zero-point vibrational energy     383727.6 (Joules/Mol)
                                   91.71310 (Kcal/Mol)
 Warning -- explicit consideration of  18 degrees of freedom as
           vibrations may cause significant error
 Vibrational temperatures:     44.98   106.06   149.53   153.55   251.09
          (Kelvin)            274.43   373.88   422.49   484.65   513.06
                              552.92   597.79   716.20   737.78   837.12
                              857.48   859.04   878.28   905.79   966.75
                             1046.88  1052.54  1111.84  1200.00  1228.74
                             1347.20  1361.39  1431.62  1440.18  1466.03
                             1575.93  1626.23  1676.50  1767.65  1785.35
                             1826.05  1892.93  1978.28  2021.55  2099.61
                             2144.05  2180.30  2291.73  2420.62  2551.34
                             2620.20  3240.81  4423.80  4464.69  4635.40
                             4662.58  4690.22  5026.14  5332.37

 Zero-point correction=                           0.146154 (Hartree/Particle)
 Thermal correction to Energy=                    0.157664
 Thermal correction to Enthalpy=                  0.158609
 Thermal correction to Gibbs Free Energy=         0.107652
 Sum of electronic and zero-point Energies=           -627.432348
 Sum of electronic and thermal Energies=              -627.420838
 Sum of electronic and thermal Enthalpies=            -627.419894
 Sum of electronic and thermal Free Energies=         -627.470851

                     E (Thermal)             CV                S
                      KCal/Mol        Cal/Mol-Kelvin    Cal/Mol-Kelvin
 Total                   98.936             43.009            107.248
 Electronic               0.000              0.000              0.000
 Translational            0.889              2.981             41.421
 Rotational               0.889              2.981             31.419
 Vibrational             97.158             37.047             34.408
 Vibration     1          0.594              1.983              5.748
 Vibration     2          0.599              1.966              4.052
 Vibration     3          0.605              1.946              3.379
 Vibration     4          0.606              1.944              3.328
 Vibration     5          0.627              1.874              2.386
 Vibration     6          0.634              1.853              2.221
 Vibration     7          0.668              1.746              1.663
 Vibration     8          0.688              1.686              1.453
 Vibration     9          0.718              1.602              1.227
 Vibration    10          0.732              1.562              1.137
 Vibration    11          0.753              1.504              1.022
 Vibration    12          0.779              1.437              0.907
 Vibration    13          0.853              1.255              0.664
 Vibration    14          0.868              1.222              0.627
 Vibration    15          0.939              1.071              0.482
 Vibration    16          0.954              1.040              0.457
 Vibration    17          0.955              1.038              0.455
 Vibration    18          0.969              1.010              0.432

 Optimization completed.
    -- Stationary point found.
 Normal termination of Gaussian 16 at Sun Dec 13 16:03:48 2020.

 ----------------------------------------------------------------------
 # B3LYP/6-311++G(d,p) empiricaldispersion=gd3bj scf=xqc pop=npa geom=c
 heck
 ----------------------------------------------------------------------

 --------------------------------------
 CID_29550959_JID_3904_Energie_neutraal
 --------------------------------------
 Structure from the checkpoint file:  "JID_3904.chk"
 Charge =  0 Multiplicity = 1

 SCF Done:  E(RB3LYP) =  -627.767360190     A.U. after   15 cycles
 Normal termination of Gaussian 16 at Sun Dec 13 16:05:11 2020.

 ----------------------------------------------------------------------
 # B3LYP/6-311++G(d,p) empiricaldispersion=gd3bj scf=xqc pop=npa geom=c
 heck
 ----------------------------------------------------------------------

 ------------------------------------
 CID_29550959_JID_3904_Energie_kation
 ------------------------------------
 Structure from the checkpoint file:  "JID_3904.chk"
 Charge =  1 Multiplicity = 2

 SCF Done:  E(UB3LYP) =  -627.452024224     A.U. after   20 cycles
 Normal termination of Gaussian 16 at Sun Dec 13 16:07:39 2020.
 Gaussian 16:  ES64L-G16RevA.03 25-Dec-2016

 ----------------------------------------------------------------------
 # B3LYP/6-311++G(d,p) empiricaldispersion=gd3bj scf=xqc pop=npa geom=c
 heck
 ----------------------------------------------------------------------

 -----------------------------------
 CID_29550959_JID_3904_Energie_anion
 -----------------------------------
 Structure from the checkpoint file:  "JID_3904.chk"
 Charge = -1 Multiplicity = 2

                         Standard orientation:
 ---------------------------------------------------------------------
 Center     Atomic      Atomic             Coordinates (Angstroms)
 Number     Number       Type             X           Y           Z
 ---------------------------------------------------------------------
      1          6           0        2.362140   -3.053729   -0.000638
      2          6           0        2.385822   -1.847823   -0.000119
      3          6           0        2.445390   -0.393856    0.000396
      4          7           0        1.118326    0.260543    0.000257
      5          6           0       -0.042570   -0.432319    0.000296
      6          6           0       -1.256611    0.211948    0.000004
      7          6           0       -1.270718    1.638475   -0.000295
      8          6           0       -0.106699    2.343742   -0.000266
      9          6           0        1.182881    1.689537    0.000107
     10          8           0        2.283031    2.233627   -0.000012
     11          6           0       -2.527415   -0.526131   -0.000035
     12          8           0       -3.628556   -0.010758   -0.000191
     13          8           0       -2.361468   -1.877864    0.000366
     14          1           0        2.349818   -4.120415   -0.001062
     15          1           0        2.992825   -0.022792    0.873443
     16          1           0        2.993407   -0.022269   -0.872096
     17          1           0        0.039544   -1.511205    0.000511
     18          1           0       -2.234476    2.137294   -0.000550
     19          1           0       -0.084965    3.427129   -0.000472
     20          1           0       -3.261811   -2.250639    0.000430
 ---------------------------------------------------------------------

 SCF Done:  E(UB3LYP) =  -627.772999745     A.U. after   33 cycles
 SCF Done:  E(UB3LYP) =  -627.772999745     a.u. after    1 cycles

 The electronic state is 2-A.
 Alpha  occ. eigenvalues --  -19.02739 -18.95145 -18.94134 -14.20884 -10.14107
 Alpha  occ. eigenvalues --  -10.12059 -10.11287 -10.07979 -10.06633 -10.02867
 Alpha  occ. eigenvalues --  -10.02670 -10.01562 -10.00647  -0.96104  -0.89575
 Alpha  occ. eigenvalues --   -0.86651  -0.81212  -0.68981  -0.65519  -0.60520
 Alpha  occ. eigenvalues --   -0.59404  -0.51669  -0.48833  -0.45209  -0.43383
 Alpha  occ. eigenvalues --   -0.38752  -0.37916  -0.35598  -0.34532  -0.32602
 Alpha  occ. eigenvalues --   -0.32111  -0.30721  -0.30512  -0.29111  -0.26562
 Alpha  occ. eigenvalues --   -0.26389  -0.24113  -0.21510  -0.19805  -0.18439
 Alpha  occ. eigenvalues --   -0.18346  -0.17879  -0.14636  -0.13524  -0.11772
 Alpha  occ. eigenvalues --   -0.07575   0.05776
 Alpha virt. eigenvalues --    0.07965   0.09501   0.10156   0.10937   0.11249
 Alpha virt. eigenvalues --    0.11498   0.11740   0.13531   0.13771   0.14523
 Alpha virt. eigenvalues --    0.15913   0.16563   0.17363   0.18248   0.18425

  Beta  occ. eigenvalues --  -19.02745 -18.94968 -18.94162 -14.20511 -10.13954
  Beta  occ. eigenvalues --  -10.12099 -10.11305 -10.07985 -10.06607 -10.02757
  Beta  occ. eigenvalues --  -10.01891 -10.01635 -10.00444  -0.95988  -0.89471
  Beta  occ. eigenvalues --   -0.86420  -0.80583  -0.68766  -0.65289  -0.59880
  Beta  occ. eigenvalues --   -0.59264  -0.51088  -0.48382  -0.45047  -0.43246
  Beta  occ. eigenvalues --   -0.38557  -0.37576  -0.35114  -0.34374  -0.32460
  Beta  occ. eigenvalues --   -0.31787  -0.30560  -0.29890  -0.28877  -0.26295
  Beta  occ. eigenvalues --   -0.26014  -0.23941  -0.21315  -0.18739  -0.18269
  Beta  occ. eigenvalues --   -0.17887  -0.17253  -0.13365  -0.13114  -0.11701
  Beta  occ. eigenvalues --   -0.06109
  Beta virt. eigenvalues --    0.07921   0.09469   0.10126   0.11224   0.11429
  Beta virt. eigenvalues --    0.11749   0.11864   0.12654   0.13503   0.14423
  Beta virt. eigenvalues --    0.14540   0.15855   0.16816   0.17345   0.18317

 Mulliken charges and spin densities:
               1          2
     1  C   -0.766600   0.004437
     2  C    0.919839   0.025935
     3  C   -0.618859  -0.047833
     4  N    0.175873   0.066466
     5  C   -0.577303   0.705056
     6  C    0.632261  -0.091667
     7  C   -0.319514   0.042412
     8  C   -0.160984   0.211127
     9  C   -0.120428  -0.033019
    10  O   -0.418031  -0.007440
    11  C   -0.412997   0.097439
    12  O   -0.418731   0.054079
    13  O   -0.224630  -0.002133
    14  H    0.146748  -0.001427
    15  H    0.176601   0.025066
    16  H    0.176966   0.024703
    17  H    0.232598  -0.050927
    18  H    0.175027  -0.008626
    19  H    0.140958  -0.013176
    20  H    0.261205  -0.000473
 Sum of Mulliken charges =  -1.00000   1.00000

 Dipole moment (field-independent basis, Debye):
    X=              1.3807    Y=             -4.6382    Z=             -0.0012  Tot=              4.8393
 Quadrupole moment (field-independent basis, Debye-Ang):
   XX=           -111.1033   YY=            -90.4712   ZZ=            -82.3288
   XY=             -4.8320   XZ=             -0.0035   YZ=              0.0026

 Summary of Natural Population Analysis:

                                       Natural Population
                Natural  -----------------------------------------------
    Atom  No    Charge         Core      Valence    Rydberg      Total
 -----------------------------------------------------------------------
      C    1   -0.12586      0.99926     2.12307    0.00354     3.12586
      C    2    0.00414      0.99937     1.98993    0.00655     2.99586
      C    3   -0.13037      0.99955     2.12034    0.01048     3.13037
      N    4   -0.16957      0.99962     2.66093    0.00902     3.66957
      C    5    0.20182      0.99953     1.78619    0.01246     2.79818
      C    6   -0.14948      0.99945     2.14020    0.00984     3.14948
      C    7   -0.03886      0.99955     2.03049    0.00882     3.03886
      C    8   -0.14020      0.99952     2.13043    0.01024     3.14020
      C    9    0.31301      0.99962     1.66701    0.02036     2.68699
      O   10   -0.35752      0.99988     3.35126    0.00638     4.35752
      C   11    0.41126      0.99965     1.56546    0.02364     2.58874
      O   12   -0.32422      0.99987     3.31769    0.00665     4.32422
      O   13   -0.35664      0.99988     3.35056    0.00620     4.35664
      H   14    0.10780      0.00000     0.39120    0.00100     0.39220
      H   15    0.11708      0.00000     0.38161    0.00131     0.38292
      H   16    0.11710      0.00000     0.38159    0.00131     0.38290
      H   17    0.09668      0.00000     0.40207    0.00125     0.40332
      H   18    0.10096      0.00000     0.39790    0.00114     0.39904
      H   19    0.09509      0.00000     0.40328    0.00164     0.40491
      H   20    0.22779      0.00000     0.26694    0.00526     0.27221
 =======================================================================
   * Total *   -0.00000     12.99477    32.85816    0.14707    46.00000

 Normal termination of Gaussian 16 at Sun Dec 13 16:11:41 2020.
