 Gaussian 16, Revision A.03,

 -----------------------------------------------------------
 # opt freq B3LYP/6-31G(d) empiricaldispersion=gd3bj scf=xqc
 -----------------------------------------------------------

 --------------------------------
 CID_104552129_JID_10695_neutraal
 --------------------------------
 Symbolic Z-matrix:
 Charge =  0 Multiplicity = 1

 SCF Done:  E(RB3LYP) =  -913.794634686     A.U. after   15 cycles
 SCF Done:  E(RB3LYP) =  -913.800573000     A.U. after   13 cycles
 SCF Done:  E(RB3LYP) =  -913.800417403     A.U. after   13 cycles
 SCF Done:  E(RB3LYP) =  -913.802987391     A.U. after   13 cycles
 SCF Done:  E(RB3LYP) =  -913.806893989     A.U. after   12 cycles
 SCF Done:  E(RB3LYP) =  -913.807269133     A.U. after   12 cycles
 SCF Done:  E(RB3LYP) =  -913.806662260     A.U. after   12 cycles
 SCF Done:  E(RB3LYP) =  -913.807864668     A.U. after   12 cycles
 SCF Done:  E(RB3LYP) =  -913.808021941     A.U. after   11 cycles
 SCF Done:  E(RB3LYP) =  -913.808025207     A.U. after   12 cycles
 SCF Done:  E(RB3LYP) =  -913.808198514     A.U. after   11 cycles
 SCF Done:  E(RB3LYP) =  -913.808203982     A.U. after   11 cycles
 SCF Done:  E(RB3LYP) =  -913.808204894     A.U. after    9 cycles
 SCF Done:  E(RB3LYP) =  -913.808205198     A.U. after    8 cycles
 SCF Done:  E(RB3LYP) =  -913.808205256     A.U. after    7 cycles
 SCF Done:  E(RB3LYP) =  -913.808205266     A.U. after    7 cycles
 Optimization completed.
    -- Stationary point found.
 Normal termination of Gaussian 16 at Mon Dec 14 17:59:08 2020.

 --------------------------------------------------------------------
 #N Geom=AllCheck Guess=TCheck SCRF=Check GenChk RB3LYP/6-31G(d) Freq
 --------------------------------------------------------------------

 Structure from the checkpoint file:  "JID_10695.chk"
 --------------------------------
 CID_104552129_JID_10695_neutraal
 --------------------------------
 Charge =  0 Multiplicity = 1

 SCF Done:  E(RB3LYP) =  -913.808205266     A.U. after    1 cycles

  Exact polarizability: 269.860 -10.890 210.119  -1.921  -3.257  98.702
 Approx polarizability: 423.310 -12.810 329.514  -1.283 -13.785 153.898

                      1                      2                      3
                      A                      A                      A
 Frequencies --     31.2867                54.9292                70.9552
 Red. masses --      2.6704                 3.9791                 4.4673
 Frc consts  --      0.0015                 0.0071                 0.0133
 IR Inten    --      3.0551                 1.6962                 0.2393

                      4                      5                      6
                      A                      A                      A
 Frequencies --     75.4771                86.4743               105.7628
 Red. masses --      4.3886                 3.7535                 2.4571
 Frc consts  --      0.0147                 0.0165                 0.0162
 IR Inten    --      1.1064                 1.2520                 1.1569

                      7                      8                      9
                      A                      A                      A
 Frequencies --    131.8962               167.8573               176.0384
 Red. masses --      3.4142                 2.8605                 4.7912
 Frc consts  --      0.0350                 0.0475                 0.0875
 IR Inten    --      0.6709                 1.0710                 2.7272

                     10                     11                     12
                      A                      A                      A
 Frequencies --    193.8339               203.7393               226.2324
 Red. masses --      2.9417                 1.3517                 2.0493
 Frc consts  --      0.0651                 0.0331                 0.0618
 IR Inten    --      1.0924                 1.5325                 1.1771

                     13                     14                     15
                      A                      A                      A
 Frequencies --    249.0495               295.4083               296.9760
 Red. masses --      3.8706                 3.9211                 3.3691
 Frc consts  --      0.1414                 0.2016                 0.1751
 IR Inten    --      2.4682                 4.4942                12.3067

                     16                     17                     18
                      A                      A                      A
 Frequencies --    307.9546               313.4201               339.2879
 Red. masses --      3.6427                 3.0069                 1.9828
 Frc consts  --      0.2035                 0.1740                 0.1345
 IR Inten    --      2.6369                34.8764                60.8116

                     19                     20                     21
                      A                      A                      A
 Frequencies --    353.5680               358.6831               378.7273
 Red. masses --      2.7961                 3.7527                 4.0241
 Frc consts  --      0.2059                 0.2845                 0.3401
 IR Inten    --     11.5342                15.8890                 2.5271

                     22                     23                     24
                      A                      A                      A
 Frequencies --    407.9755               451.8129               454.8119
 Red. masses --      3.3161                 2.9935                 5.1078
 Frc consts  --      0.3252                 0.3600                 0.6225
 IR Inten    --      8.6383                 6.0489                18.3442

                     25                     26                     27
                      A                      A                      A
 Frequencies --    482.7852               493.6066               536.0471
 Red. masses --      1.8149                 2.3315                 2.3955
 Frc consts  --      0.2492                 0.3347                 0.4056
 IR Inten    --     11.4261                 5.5383                26.1803

                     28                     29                     30
                      A                      A                      A
 Frequencies --    564.2266               575.0007               598.8369
 Red. masses --      3.3622                 1.9951                 3.4289
 Frc consts  --      0.6306                 0.3887                 0.7245
 IR Inten    --      8.8794                89.7546                36.4887

                     31                     32                     33
                      A                      A                      A
 Frequencies --    605.5404               634.1729               656.9576
 Red. masses --      2.2412                 4.1091                 1.9020
 Frc consts  --      0.4842                 0.9737                 0.4837
 IR Inten    --     60.4794                43.2833                88.8023

                     34                     35                     36
                      A                      A                      A
 Frequencies --    665.3349               696.7150               707.5948
 Red. masses --      4.5537                 1.9854                 5.2574
 Frc consts  --      1.1877                 0.5678                 1.5509
 IR Inten    --      5.5406                29.9521                 1.9112

                     37                     38                     39
                      A                      A                      A
 Frequencies --    756.8808               771.3107               781.6886
 Red. masses --      4.6596                 1.4139                 3.8979
 Frc consts  --      1.5727                 0.4956                 1.4033
 IR Inten    --     12.1963                41.0047                26.8923

                     40                     41                     42
                      A                      A                      A
 Frequencies --    796.8848               814.6606               856.7874
 Red. masses --      4.8192                 3.7095                 3.3655
 Frc consts  --      1.8031                 1.4505                 1.4556
 IR Inten    --     32.0663                13.6213                 4.3993

                     43                     44                     45
                      A                      A                      A
 Frequencies --    876.8072               913.4927               930.0644
 Red. masses --      1.5057                 4.5934                 1.6029
 Frc consts  --      0.6820                 2.2583                 0.8169
 IR Inten    --      2.9694                 7.7895                 6.6877

                     46                     47                     48
                      A                      A                      A
 Frequencies --    944.6839               952.9966               955.5904
 Red. masses --      1.7084                 3.0239                 3.5591
 Frc consts  --      0.8983                 1.6181                 1.9149
 IR Inten    --     35.4859                57.7542                58.3279

                     49                     50                     51
                      A                      A                      A
 Frequencies --    969.7163               991.6737              1035.8918
 Red. masses --      1.5172                 1.2748                 1.7286
 Frc consts  --      0.8406                 0.7386                 1.0929
 IR Inten    --     15.3549                 0.0068                 5.4711

                     52                     53                     54
                      A                      A                      A
 Frequencies --   1053.6593              1083.2346              1108.7806
 Red. masses --      2.1888                 3.4358                 2.0060
 Frc consts  --      1.4317                 2.3753                 1.4530
 IR Inten    --      2.3368                32.7219                76.0746

                     55                     56                     57
                      A                      A                      A
 Frequencies --   1130.4458              1148.9941              1150.7701
 Red. masses --      2.8294                 1.5369                 1.6690
 Frc consts  --      2.1303                 1.1955                 1.3022
 IR Inten    --     32.1375                33.9588                 3.4515

                     58                     59                     60
                      A                      A                      A
 Frequencies --   1170.2571              1172.5869              1180.4611
 Red. masses --      1.7859                 1.8365                 1.4061
 Frc consts  --      1.4410                 1.4878                 1.1544
 IR Inten    --     55.2458                51.9829                22.2588

                     61                     62                     63
                      A                      A                      A
 Frequencies --   1188.3406              1199.3216              1252.8364
 Red. masses --      2.6392                 1.4030                 1.7752
 Frc consts  --      2.1958                 1.1890                 1.6417
 IR Inten    --     15.1419                 4.9190                21.9411

                     64                     65                     66
                      A                      A                      A
 Frequencies --   1280.1745              1290.2287              1335.5888
 Red. masses --      1.3027                 1.7364                 2.4509
 Frc consts  --      1.2578                 1.7031                 2.5758
 IR Inten    --     12.2464                 7.5170                38.7412

                     67                     68                     69
                      A                      A                      A
 Frequencies --   1340.8392              1353.2660              1369.9392
 Red. masses --      1.8715                 1.8987                 1.7553
 Frc consts  --      1.9824                 2.0487                 1.9408
 IR Inten    --     59.8496                36.4450                45.8828

                     70                     71                     72
                      A                      A                      A
 Frequencies --   1389.6138              1410.7190              1417.7828
 Red. masses --      2.9966                 1.2589                 3.5818
 Frc consts  --      3.4093                 1.4762                 4.2420
 IR Inten    --     42.0755                 9.9790                19.8291

                     73                     74                     75
                      A                      A                      A
 Frequencies --   1433.3345              1440.3700              1447.3301
 Red. masses --      2.4364                 1.3016                 1.7786
 Frc consts  --      2.9491                 1.5910                 2.1952
 IR Inten    --     49.9563                26.7939                10.5973

                     76                     77                     78
                      A                      A                      A
 Frequencies --   1472.8894              1500.9529              1506.0239
 Red. masses --      1.7732                 1.6534                 1.2806
 Frc consts  --      2.2665                 2.1947                 1.7114
 IR Inten    --    142.6690                20.3804                53.5831

                     79                     80                     81
                      A                      A                      A
 Frequencies --   1512.9750              1526.2065              1529.2534
 Red. masses --      1.1846                 1.1609                 1.3469
 Frc consts  --      1.5977                 1.5932                 1.8559
 IR Inten    --     18.5438                 8.6231                 8.5238

                     82                     83                     84
                      A                      A                      A
 Frequencies --   1535.3462              1536.7581              1544.8277
 Red. masses --      1.1497                 1.1334                 3.0169
 Frc consts  --      1.5968                 1.5771                 4.2419
 IR Inten    --     15.6855                19.5820                29.5973

                     85                     86                     87
                      A                      A                      A
 Frequencies --   1556.8294              1611.8088              1648.2387
 Red. masses --      1.1721                 7.1959                 1.8610
 Frc consts  --      1.6737                11.0145                 2.9788
 IR Inten    --     41.7601                46.2276               117.8209

                     88                     89                     90
                      A                      A                      A
 Frequencies --   1659.9149              1677.7969              1718.3007
 Red. masses --      2.3616                 5.6317                 6.0730
 Frc consts  --      3.8337                 9.3405                10.5645
 IR Inten    --     25.0325                35.8779               162.6225

                     91                     92                     93
                      A                      A                      A
 Frequencies --   2972.1934              3026.8327              3043.1837
 Red. masses --      1.0723                 1.0836                 1.0430
 Frc consts  --      5.5812                 5.8494                 5.6911
 IR Inten    --     67.7914                22.1021                66.2002

                     94                     95                     96
                      A                      A                      A
 Frequencies --   3071.7319              3084.4074              3096.7669
 Red. masses --      1.0406                 1.0893                 1.1007
 Frc consts  --      5.7851                 6.1056                 6.2195
 IR Inten    --     29.2712                84.3064                29.0791

                     97                     98                     99
                      A                      A                      A
 Frequencies --   3130.0912              3179.9209              3185.5154
 Red. masses --      1.1019                 1.0986                 1.0866
 Frc consts  --      6.3610                 6.5454                 6.4967
 IR Inten    --     28.0454                12.4940                 3.0756

                    100                    101                    102
                      A                      A                      A
 Frequencies --   3186.7699              3194.3871              3207.9346
 Red. masses --      1.0968                 1.0886                 1.0931
 Frc consts  --      6.5625                 6.5446                 6.6277
 IR Inten    --      4.8650                 6.5034                21.7530

                    103                    104                    105
                      A                      A                      A
 Frequencies --   3215.5993              3216.6680              3547.1604
 Red. masses --      1.0921                 1.0965                 1.0645
 Frc consts  --      6.6535                 6.6846                 7.8912
 IR Inten    --      5.8716                20.1241               402.4691

                    106                    107                    108
                      A                      A                      A
 Frequencies --   3557.0043              3669.7348              3782.3237
 Red. masses --      1.0458                 1.1011                 1.0679
 Frc consts  --      7.7963                 8.7368                 9.0011
 IR Inten    --     41.4125                69.5564                92.3031

 - Thermochemistry -
 -------------------
 Temperature   298.150 Kelvin.  Pressure   1.00000 Atm.
 Atom     1 has atomic number  6 and mass  12.00000

 Molecular mass:   274.14298 amu.
 Principal axes and moments of inertia in atomic units:
                           1         2         3
     Eigenvalues --  4624.828405783.996149477.90732
           X            0.99816  -0.06058  -0.00297
           Y            0.06060   0.99813   0.00799
           Z            0.00249  -0.00815   0.99996
 This molecule is an asymmetric top.
 Rotational symmetry number  1.
 Warning -- assumption of classical behavior for rotation
           may cause significant error
 Rotational temperatures (Kelvin)      0.01873     0.01497     0.00914
 Rotational constants (GHZ):           0.39023     0.31202     0.19042
 Zero-point vibrational energy     828732.9 (Joules/Mol)
                                  198.07193 (Kcal/Mol)
 Warning -- explicit consideration of  31 degrees of freedom as
           vibrations may cause significant error
 Vibrational temperatures:     45.01    79.03   102.09   108.59   124.42
          (Kelvin)            152.17   189.77   241.51   253.28   278.88
                              293.14   325.50   358.33   425.03   427.28
                              443.08   450.94   488.16   508.71   516.06
                              544.90   586.99   650.06   654.37   694.62
                              710.19   771.25   811.80   827.30   861.59
                              871.24   912.43   945.22   957.27  1002.42
                             1018.07  1088.98  1109.74  1124.68  1146.54
                             1172.11  1232.73  1261.53  1314.31  1338.16
                             1359.19  1371.15  1374.88  1395.21  1426.80
                             1490.42  1515.98  1558.53  1595.29  1626.46
                             1653.15  1655.70  1683.74  1687.09  1698.42
                             1709.76  1725.56  1802.55  1841.89  1856.35
                             1921.61  1929.17  1947.05  1971.04  1999.34
                             2029.71  2039.87  2062.25  2072.37  2082.39
                             2119.16  2159.54  2166.83  2176.83  2195.87
                             2200.25  2209.02  2211.05  2222.66  2239.93
                             2319.03  2371.45  2388.25  2413.98  2472.25
                             4276.32  4354.94  4378.46  4419.54  4437.77
                             4455.56  4503.50  4575.20  4583.25  4585.05
                             4596.01  4615.50  4626.53  4628.07  5103.57
                             5117.74  5279.93  5441.92

 Zero-point correction=                           0.315648 (Hartree/Particle)
 Thermal correction to Energy=                    0.334411
 Thermal correction to Enthalpy=                  0.335355
 Thermal correction to Gibbs Free Energy=         0.269122
 Sum of electronic and zero-point Energies=           -913.492558
 Sum of electronic and thermal Energies=              -913.473794
 Sum of electronic and thermal Enthalpies=            -913.472850
 Sum of electronic and thermal Free Energies=         -913.539084

                     E (Thermal)             CV                S
                      KCal/Mol        Cal/Mol-Kelvin    Cal/Mol-Kelvin
 Total                  209.846             73.193            139.400
 Electronic               0.000              0.000              0.000
 Translational            0.889              2.981             42.724
 Rotational               0.889              2.981             33.894
 Vibrational            208.069             67.231             62.783
 Vibration     1          0.594              1.983              5.746
 Vibration     2          0.596              1.976              4.632
 Vibration     3          0.598              1.968              4.127
 Vibration     4          0.599              1.965              4.005
 Vibration     5          0.601              1.959              3.738
 Vibration     6          0.605              1.945              3.345
 Vibration     7          0.612              1.921              2.918
 Vibration     8          0.625              1.882              2.459
 Vibration     9          0.628              1.872              2.370
 Vibration    10          0.635              1.848              2.191
 Vibration    11          0.639              1.835              2.099
 Vibration    12          0.650              1.801              1.909
 Vibration    13          0.662              1.764              1.737
 Vibration    14          0.690              1.682              1.443
 Vibration    15          0.691              1.679              1.434
 Vibration    16          0.698              1.659              1.373
 Vibration    17          0.701              1.648              1.344
 Vibration    18          0.719              1.597              1.215
 Vibration    19          0.730              1.568              1.150
 Vibration    20          0.734              1.557              1.128
 Vibration    21          0.749              1.515              1.044
 Vibration    22          0.773              1.453              0.934
 Vibration    23          0.810              1.357              0.790
 Vibration    24          0.813              1.350              0.781
 Vibration    25          0.839              1.288              0.703
 Vibration    26          0.849              1.264              0.674
 Vibration    27          0.891              1.170              0.574
 Vibration    28          0.920              1.109              0.515
 Vibration    29          0.931              1.085              0.495
 Vibration    30          0.957              1.034              0.452
 Vibration    31          0.964              1.020              0.440

 Optimization completed.
    -- Stationary point found.
 Normal termination of Gaussian 16 at Mon Dec 14 18:20:23 2020.

 ----------------------------------------------------------------------
 # B3LYP/6-311++G(d,p) empiricaldispersion=gd3bj scf=xqc pop=npa geom=c
 heck
 ----------------------------------------------------------------------

 ----------------------------------------
 CID_104552129_JID_10695_Energie_neutraal
 ----------------------------------------
 Structure from the checkpoint file:  "JID_10695.chk"
 Charge =  0 Multiplicity = 1

 SCF Done:  E(RB3LYP) =  -914.076106101     A.U. after   16 cycles
 Normal termination of Gaussian 16 at Mon Dec 14 18:30:27 2020.

 ----------------------------------------------------------------------
 # B3LYP/6-311++G(d,p) empiricaldispersion=gd3bj scf=xqc pop=npa geom=c
 heck
 ----------------------------------------------------------------------

 --------------------------------------
 CID_104552129_JID_10695_Energie_kation
 --------------------------------------
 Structure from the checkpoint file:  "JID_10695.chk"
 Charge =  1 Multiplicity = 2

 SCF Done:  E(UB3LYP) =  -913.795579736     A.U. after   31 cycles
 Normal termination of Gaussian 16 at Mon Dec 14 18:58:43 2020.
 Gaussian 16:  ES64L-G16RevA.03 25-Dec-2016

 ----------------------------------------------------------------------
 # B3LYP/6-311++G(d,p) empiricaldispersion=gd3bj scf=xqc pop=npa geom=c
 heck
 ----------------------------------------------------------------------

 -------------------------------------
 CID_104552129_JID_10695_Energie_anion
 -------------------------------------
 Structure from the checkpoint file:  "JID_10695.chk"
 Charge = -1 Multiplicity = 2

                         Standard orientation:
 ---------------------------------------------------------------------
 Center     Atomic      Atomic             Coordinates (Angstroms)
 Number     Number       Type             X           Y           Z
 ---------------------------------------------------------------------
      1          6           0       -0.336367    3.395078    1.299476
      2          6           0       -1.037431    2.742161    0.100742
      3          6           0       -0.317240    3.064223   -1.230453
      4          8           0        1.084163    3.164289   -1.145019
      5          7           0       -1.334112    1.296304    0.274595
      6          6           0       -2.412974    1.056751    1.241248
      7          6           0       -0.333601    0.329821    0.163613
      8          7           0        0.932257    0.714646    0.150811
      9          6           0        1.934338   -0.210293    0.093803
     10          6           0        3.278956    0.232792    0.076572
     11          6           0        4.310210   -0.682927    0.068495
     12          6           0        4.046194   -2.072425    0.070742
     13          6           0        2.745228   -2.527522    0.075103
     14          6           0        1.667611   -1.610072    0.084906
     15          6           0        0.308056   -1.997915    0.006067
     16          6           0       -0.698497   -1.062602    0.005810
     17          6           0       -2.085633   -1.508113   -0.280790
     18          7           0       -2.495070   -2.581223    0.316759
     19          8           0       -3.811690   -2.892460   -0.142200
     20          7           0       -2.803416   -0.816368   -1.227714
     21          1           0        0.655193    2.968507    1.450478
     22          1           0       -0.916808    3.272257    2.219113
     23          1           0       -0.220294    4.467683    1.114375
     24          1           0       -2.039101    3.184095    0.011882
     25          1           0       -0.638895    2.325995   -1.986052
     26          1           0       -0.669224    4.045484   -1.567518
     27          1           0        1.356618    2.334826   -0.699828
     28          1           0       -2.520616   -0.004848    1.455870
     29          1           0       -2.209502    1.567893    2.190711
     30          1           0       -3.362991    1.430577    0.844101
     31          1           0        3.472162    1.301153    0.084300
     32          1           0        5.339057   -0.334607    0.061606
     33          1           0        4.871847   -2.777526    0.064284
     34          1           0        2.527622   -3.592418    0.065908
     35          1           0        0.047176   -3.044646   -0.113613
     36          1           0       -4.041358   -3.646967    0.419151
     37          1           0       -2.545929    0.156002   -1.339285
     38          1           0       -3.795477   -1.015355   -1.230894
 ---------------------------------------------------------------------

 SCF Done:  E(UB3LYP) =  -914.091111105     A.U. after   28 cycles

 The electronic state is 2-A.
 Alpha  occ. eigenvalues --  -19.04435 -18.98644 -14.21337 -14.21229 -14.20797
 Alpha  occ. eigenvalues --  -14.15329 -10.11473 -10.10864 -10.10601 -10.10485
 Alpha  occ. eigenvalues --  -10.09226 -10.06329 -10.05439 -10.03451 -10.03320
 Alpha  occ. eigenvalues --  -10.03238 -10.02702 -10.02363 -10.02028 -10.01539
 Alpha  occ. eigenvalues --   -0.95789  -0.89801  -0.84687  -0.81385  -0.78455
 Alpha  occ. eigenvalues --   -0.71282  -0.70281  -0.66797  -0.65276  -0.61683
 Alpha  occ. eigenvalues --   -0.59961  -0.58173  -0.56361  -0.52005  -0.50988
 Alpha  occ. eigenvalues --   -0.46426  -0.45392  -0.44850  -0.42466  -0.41044
 Alpha  occ. eigenvalues --   -0.40351  -0.39211  -0.37769  -0.36127  -0.35927
 Alpha  occ. eigenvalues --   -0.34524  -0.34029  -0.33189  -0.31895  -0.31179
 Alpha  occ. eigenvalues --   -0.30542  -0.30189  -0.29237  -0.28619  -0.27980
 Alpha  occ. eigenvalues --   -0.27461  -0.27011  -0.26580  -0.25901  -0.24348
 Alpha  occ. eigenvalues --   -0.22335  -0.22144  -0.21498  -0.20786  -0.20708
 Alpha  occ. eigenvalues --   -0.17249  -0.16237  -0.15383  -0.14849  -0.13059
 Alpha  occ. eigenvalues --   -0.11513  -0.09464  -0.08583   0.03980
 Alpha virt. eigenvalues --    0.06731   0.07697   0.08864   0.09088   0.09225
 Alpha virt. eigenvalues --    0.10448   0.10765   0.10900   0.11442   0.12130
 Alpha virt. eigenvalues --    0.12179   0.13145   0.13377   0.13725   0.14212

  Beta  occ. eigenvalues --  -19.04415 -18.98643 -14.21258 -14.21212 -14.20775
  Beta  occ. eigenvalues --  -14.15039 -10.11466 -10.10825 -10.10600 -10.10487
  Beta  occ. eigenvalues --  -10.09216 -10.06308 -10.05436 -10.03559 -10.03297
  Beta  occ. eigenvalues --  -10.03170 -10.02498 -10.02064 -10.01898 -10.01035
  Beta  occ. eigenvalues --   -0.95719  -0.89795  -0.84528  -0.81319  -0.78156
  Beta  occ. eigenvalues --   -0.71151  -0.69950  -0.66653  -0.64731  -0.61507
  Beta  occ. eigenvalues --   -0.59515  -0.58122  -0.56291  -0.51553  -0.50774
  Beta  occ. eigenvalues --   -0.46240  -0.45154  -0.44551  -0.42407  -0.40948
  Beta  occ. eigenvalues --   -0.40245  -0.39084  -0.37663  -0.35984  -0.35803
  Beta  occ. eigenvalues --   -0.34475  -0.33972  -0.33093  -0.31729  -0.31062
  Beta  occ. eigenvalues --   -0.30420  -0.30134  -0.29066  -0.28547  -0.27907
  Beta  occ. eigenvalues --   -0.27104  -0.26611  -0.26346  -0.25666  -0.24257
  Beta  occ. eigenvalues --   -0.22183  -0.21977  -0.21101  -0.20537  -0.20287
  Beta  occ. eigenvalues --   -0.16871  -0.15410  -0.14750  -0.14278  -0.12737
  Beta  occ. eigenvalues --   -0.11034  -0.08177  -0.07610
  Beta virt. eigenvalues --    0.06696   0.07658   0.08833   0.09047   0.09206
  Beta virt. eigenvalues --    0.09871   0.10467   0.10805   0.11001   0.11562
  Beta virt. eigenvalues --    0.12100   0.12138   0.13349   0.13536   0.13732

 Mulliken charges and spin densities:
               1          2
     1  C   -0.510423   0.008157
     2  C    0.094006  -0.030727
     3  C   -0.391227   0.014468
     4  O   -0.245460   0.002497
     5  N    0.247623   0.010638
     6  C   -0.308118  -0.003875
     7  C   -1.775961  -0.023711
     8  N    0.055881   0.132460
     9  C   -1.402288  -0.016258
    10  C   -0.262029   0.068424
    11  C   -0.379390   0.186363
    12  C   -0.311815  -0.023770
    13  C   -0.026390   0.251261
    14  C    0.891302  -0.058691
    15  C    0.259787   0.424600
    16  C    1.526774   0.068539
    17  C   -0.641051  -0.017835
    18  N   -0.322126   0.034232
    19  O   -0.133787  -0.000120
    20  N   -0.301639   0.000368
    21  H    0.213087   0.002076
    22  H    0.080309   0.000066
    23  H    0.137723   0.000560
    24  H    0.129462  -0.000240
    25  H    0.149888  -0.000588
    26  H    0.138922   0.000689
    27  H    0.266884  -0.006815
    28  H    0.184045   0.000333
    29  H    0.126295   0.004780
    30  H    0.149201   0.000863
    31  H    0.086661  -0.007019
    32  H    0.119636  -0.012899
    33  H    0.101401   0.002768
    34  H    0.090575  -0.014908
    35  H    0.152567  -0.032929
    36  H    0.248589   0.012501
    37  H    0.315261   0.000646
    38  H    0.245823   0.023099
 Sum of Mulliken charges =  -1.00000   1.00000

 Dipole moment (field-independent basis, Debye):
    X=             -5.8565    Y=              2.6168    Z=              1.1910  Tot=              6.5242
 Quadrupole moment (field-independent basis, Debye-Ang):
   XX=           -153.6532   YY=           -148.0160   ZZ=           -133.8271
   XY=             -6.3671   XZ=             -0.4048   YZ=              1.8231

 Summary of Natural Population Analysis:

                                       Natural Population
                Natural  -----------------------------------------------
    Atom  No    Charge         Core      Valence    Rydberg      Total
 -----------------------------------------------------------------------
      C    1   -0.29853      0.99964     2.29277    0.00612     3.29853
      C    2   -0.00922      0.99960     1.99988    0.00974     3.00922
      C    3   -0.01110      0.99958     1.99875    0.01277     3.01110
      O    4   -0.39078      0.99990     3.38262    0.00826     4.39078
      N    5   -0.27769      0.99966     2.76514    0.01289     3.77769
      C    6   -0.17531      0.99963     2.16906    0.00661     3.17531
      C    7    0.21641      0.99955     1.76521    0.01883     2.78359
      N    8   -0.26226      0.99962     2.74947    0.01317     3.76226
      C    9    0.09929      0.99948     1.88890    0.01233     2.90071
      C   10   -0.10932      0.99957     2.09316    0.01659     3.10932
      C   11   -0.02446      0.99960     2.02058    0.00429     3.02446
      C   12   -0.15007      0.99962     2.13314    0.01731     3.15007
      C   13   -0.03385      0.99954     2.02513    0.00918     3.03385
      C   14   -0.07062      0.99949     2.06244    0.00869     3.07062
      C   15    0.03029      0.99955     1.95530    0.01486     2.96971
      C   16   -0.00926      0.99942     1.99797    0.01187     3.00926
      C   17    0.18252      0.99965     1.79660    0.02123     2.81748
      N   18   -0.12819      0.99962     2.61435    0.01423     3.62819
      O   19   -0.31497      0.99990     3.30844    0.00663     4.31497
      N   20   -0.40599      0.99969     2.89626    0.01004     3.90599
      H   21    0.11559      0.00000     0.38323    0.00118     0.38441
      H   22    0.09220      0.00000     0.40690    0.00090     0.40780
      H   23    0.09637      0.00000     0.40265    0.00099     0.40363
      H   24    0.08911      0.00000     0.40972    0.00117     0.41089
      H   25    0.07874      0.00000     0.41995    0.00131     0.42126
      H   26    0.07892      0.00000     0.41981    0.00128     0.42108
      H   27    0.24691      0.00000     0.24947    0.00362     0.25309
      H   28    0.11173      0.00000     0.38709    0.00117     0.38827
      H   29    0.08464      0.00000     0.41377    0.00159     0.41536
      H   30    0.08585      0.00000     0.41307    0.00108     0.41415
      H   31    0.09233      0.00000     0.40512    0.00255     0.40767
      H   32    0.08512      0.00000     0.41394    0.00093     0.41488
      H   33    0.08897      0.00000     0.40927    0.00176     0.41103
      H   34    0.08744      0.00000     0.41100    0.00156     0.41256
      H   35    0.09320      0.00000     0.40490    0.00190     0.40680
      H   36    0.22996      0.00000     0.26676    0.00328     0.27004
      H   37    0.19582      0.00000     0.30237    0.00181     0.30418
      H   38    0.19188      0.00000     0.30613    0.00199     0.30812
 =======================================================================
   * Total *    0.00168     19.99229    52.74033    0.26570    72.99832

 Normal termination of Gaussian 16 at Mon Dec 14 19:22:49 2020.
