 Gaussian 16, Revision A.03,

 -----------------------------------------------------------
 # opt freq B3LYP/6-31G(d) empiricaldispersion=gd3bj scf=xqc
 -----------------------------------------------------------

 ------------------------------
 CID_20140793_JID_1507_neutraal
 ------------------------------
 Symbolic Z-matrix:
 Charge =  0 Multiplicity = 1

 SCF Done:  E(RB3LYP) =  -549.811666788     A.U. after   20 cycles
 SCF Done:  E(RB3LYP) =  -549.832481352     A.U. after   17 cycles
 SCF Done:  E(RB3LYP) =  -549.839196408     A.U. after   17 cycles
 SCF Done:  E(RB3LYP) =  -549.832150023     A.U. after   18 cycles
 SCF Done:  E(RB3LYP) =  -549.848668826     A.U. after   16 cycles
 SCF Done:  E(RB3LYP) =  -549.856308776     A.U. after   16 cycles
 SCF Done:  E(RB3LYP) =  -549.867442656     A.U. after   17 cycles
 SCF Done:  E(RB3LYP) =  -549.882579118     A.U. after   15 cycles
 SCF Done:  E(RB3LYP) =  -549.896529760     A.U. after   15 cycles
 SCF Done:  E(RB3LYP) =  -549.932896662     A.U. after   16 cycles
 SCF Done:  E(RB3LYP) =  -550.062247931     A.U. after   13 cycles
 SCF Done:  E(RB3LYP) =  -550.062251797     A.U. after   12 cycles
 SCF Done:  E(RB3LYP) =  -550.062252702     A.U. after    9 cycles
 SCF Done:  E(RB3LYP) =  -550.062252784     A.U. after   10 cycles
 SCF Done:  E(RB3LYP) =  -550.062253219     A.U. after    9 cycles
 Optimization completed.
    -- Stationary point found.
 Normal termination of Gaussian 16 at Tue Dec  8 20:25:18 2020.

 --------------------------------------------------------------------
 #N Geom=AllCheck Guess=TCheck SCRF=Check GenChk RB3LYP/6-31G(d) Freq
 --------------------------------------------------------------------

 Structure from the checkpoint file:  "JID_1507.chk"
 ------------------------------
 CID_20140793_JID_1507_neutraal
 ------------------------------
 Charge =  0 Multiplicity = 1

 SCF Done:  E(RB3LYP) =  -550.062253219     A.U. after    1 cycles

  Exact polarizability: 186.629  12.869  84.395   0.001   0.000  31.562
 Approx polarizability: 412.898  56.600 146.052   0.003   0.003  49.255

                      1                      2                      3
                      A                      A                      A
 Frequencies --     29.2663                67.5780               165.6564
 Red. masses --     10.8263                 7.3991                 5.4577
 Frc consts  --      0.0055                 0.0199                 0.0882
 IR Inten    --      0.7777                 6.9186                 0.0759

                      4                      5                      6
                      A                      A                      A
 Frequencies --    176.6481               276.3881               318.1851
 Red. masses --      8.6523                 4.2858                 9.2808
 Frc consts  --      0.1591                 0.1929                 0.5536
 IR Inten    --      6.0892                 5.4606                 2.1533

                      7                      8                      9
                      A                      A                      A
 Frequencies --    358.4783               381.9720               455.9411
 Red. masses --     12.0929                 3.4621                 5.5091
 Frc consts  --      0.9156                 0.2976                 0.6748
 IR Inten    --      0.3620                 0.2105                 8.5972

                     10                     11                     12
                      A                      A                      A
 Frequencies --    503.1575               578.0967               601.3694
 Red. masses --      2.1387                 7.9188                 7.5492
 Frc consts  --      0.3190                 1.5592                 1.6085
 IR Inten    --      9.0480                13.4912                 0.4035

                     13                     14                     15
                      A                      A                      A
 Frequencies --    712.9316               763.2440               764.0414
 Red. masses --      2.5021                 8.5511                 4.3909
 Frc consts  --      0.7493                 2.9349                 1.5102
 IR Inten    --      1.5208                24.2500                 0.4133

                     16                     17                     18
                      A                      A                      A
 Frequencies --    788.2519               790.4898               846.5768
 Red. masses --      5.7439                 1.7504                 4.8691
 Frc consts  --      2.1028                 0.6444                 2.0560
 IR Inten    --      1.5312                 1.9290                 0.4540

                     19                     20                     21
                      A                      A                      A
 Frequencies --    862.1007               889.9239               966.9078
 Red. masses --      1.4241                 1.9693                 3.3346
 Frc consts  --      0.6236                 0.9189                 1.8368
 IR Inten    --      8.1766                76.8712                 5.1814

                     22                     23                     24
                      A                      A                      A
 Frequencies --   1003.9780              1005.3089              1027.9453
 Red. masses --      7.7620                 1.2813                 1.2484
 Frc consts  --      4.6097                 0.7630                 0.7772
 IR Inten    --     54.6591                 0.0246                 0.0841

                     25                     26                     27
                      A                      A                      A
 Frequencies --   1125.7610              1203.5185              1255.0312
 Red. masses --      1.5196                 1.0965                 1.6222
 Frc consts  --      1.1347                 0.9357                 1.5054
 IR Inten    --     16.4315                 0.5303                19.6746

                     28                     29                     30
                      A                      A                      A
 Frequencies --   1290.0767              1374.9000              1390.8508
 Red. masses --      1.7761                 3.3477                 2.7702
 Frc consts  --      1.7416                 3.7285                 3.1573
 IR Inten    --      7.1556               209.5059               236.9272

                     31                     32                     33
                      A                      A                      A
 Frequencies --   1431.5164              1441.5814              1602.3311
 Red. masses --      1.5976                 2.6491                 9.7819
 Frc consts  --      1.9289                 3.2437                14.7972
 IR Inten    --     15.4163                 4.8673                85.4256

                     34                     35                     36
                      A                      A                      A
 Frequencies --   1643.0744              1647.8132              1706.1149
 Red. masses --      7.2539                 7.1994                 6.6585
 Frc consts  --     11.5381                11.5176                11.4194
 IR Inten    --      8.8481               104.2415                19.1873

                     37                     38                     39
                      A                      A                      A
 Frequencies --   1744.4440              3191.9812              3220.6788
 Red. masses --      9.9476                 1.0891                 1.0917
 Frc consts  --     17.8353                 6.5381                 6.6717
 IR Inten    --    241.9527                 4.5901                 2.2407

                     40                     41                     42
                      A                      A                      A
 Frequencies --   3226.8161              3263.4532              3278.5459
 Red. masses --      1.0958                 1.0922                 1.0929
 Frc consts  --      6.7225                 6.8533                 6.9212
 IR Inten    --      3.2299                 5.0480                 6.1264

 - Thermochemistry -
 -------------------
 Temperature   298.150 Kelvin.  Pressure   1.00000 Atm.
 Atom     1 has atomic number  6 and mass  12.00000

 Molecular mass:   151.02694 amu.
 Principal axes and moments of inertia in atomic units:
                           1         2         3
     Eigenvalues --   498.385223156.747183655.13239
           X            1.00000   0.00030  -0.00000
           Y           -0.00030   1.00000  -0.00001
           Z            0.00000   0.00001   1.00000
 This molecule is an asymmetric top.
 Rotational symmetry number  1.
 Warning -- assumption of classical behavior for rotation
           may cause significant error
 Rotational temperatures (Kelvin)      0.17379     0.02744     0.02370
 Rotational constants (GHZ):           3.62118     0.57171     0.49376
 Zero-point vibrational energy     295315.7 (Joules/Mol)
                                   70.58214 (Kcal/Mol)
 Warning -- explicit consideration of  12 degrees of freedom as
           vibrations may cause significant error
 Vibrational temperatures:     42.11    97.23   238.34   254.16   397.66
          (Kelvin)            457.80   515.77   549.57   656.00   723.93
                              831.75   865.24  1025.75  1098.14  1099.29
                             1134.12  1137.34  1218.04  1240.37  1280.40
                             1391.16  1444.50  1446.42  1478.98  1619.72
                             1731.59  1805.71  1856.13  1978.17  2001.12
                             2059.63  2074.11  2305.40  2364.02  2370.84
                             2454.72  2509.87  4592.55  4633.84  4642.67
                             4695.38  4717.10

 Zero-point correction=                           0.112480 (Hartree/Particle)
 Thermal correction to Energy=                    0.121431
 Thermal correction to Enthalpy=                  0.122376
 Thermal correction to Gibbs Free Energy=         0.076886
 Sum of electronic and zero-point Energies=           -549.949773
 Sum of electronic and thermal Energies=              -549.940822
 Sum of electronic and thermal Enthalpies=            -549.939878
 Sum of electronic and thermal Free Energies=         -549.985367

                     E (Thermal)             CV                S
                      KCal/Mol        Cal/Mol-Kelvin    Cal/Mol-Kelvin
 Total                   76.199             32.915             95.740
 Electronic               0.000              0.000              0.000
 Translational            0.889              2.981             40.947
 Rotational               0.889              2.981             30.132
 Vibrational             74.422             26.954             24.661
 Vibration     1          0.593              1.984              5.879
 Vibration     2          0.598              1.970              4.223
 Vibration     3          0.624              1.885              2.484
 Vibration     4          0.628              1.871              2.364
 Vibration     5          0.678              1.717              1.556
 Vibration     6          0.705              1.639              1.319
 Vibration     7          0.733              1.558              1.129
 Vibration     8          0.751              1.509              1.031
 Vibration     9          0.814              1.348              0.778
 Vibration    10          0.858              1.243              0.650
 Vibration    11          0.935              1.079              0.489
 Vibration    12          0.960              1.029              0.447

 Optimization completed.
    -- Stationary point found.
 Normal termination of Gaussian 16 at Tue Dec  8 20:28:25 2020.

 ----------------------------------------------------------------------
 # B3LYP/6-311++G(d,p) empiricaldispersion=gd3bj scf=xqc pop=npa geom=c
 heck
 ----------------------------------------------------------------------

 --------------------------------------
 CID_20140793_JID_1507_Energie_neutraal
 --------------------------------------
 Structure from the checkpoint file:  "JID_1507.chk"
 Charge =  0 Multiplicity = 1

 SCF Done:  E(RB3LYP) =  -550.221273713     A.U. after   21 cycles
 Normal termination of Gaussian 16 at Tue Dec  8 20:30:39 2020.

 ----------------------------------------------------------------------
 # B3LYP/6-311++G(d,p) empiricaldispersion=gd3bj scf=xqc pop=npa geom=c
 heck
 ----------------------------------------------------------------------

 ------------------------------------
 CID_20140793_JID_1507_Energie_kation
 ------------------------------------
 Structure from the checkpoint file:  "JID_1507.chk"
 Charge =  1 Multiplicity = 2

 SCF Done:  E(UB3LYP) =  -549.865890448     A.U. after   33 cycles
 SCF Done:  E(UB3LYP) =  -549.865919179     a.u. after    3 cycles
 Normal termination of Gaussian 16 at Tue Dec  8 20:40:45 2020.
 Gaussian 16:  ES64L-G16RevA.03 25-Dec-2016

 ----------------------------------------------------------------------
 # B3LYP/6-311++G(d,p) empiricaldispersion=gd3bj scf=xqc pop=npa geom=c
 heck
 ----------------------------------------------------------------------

 -----------------------------------
 CID_20140793_JID_1507_Energie_anion
 -----------------------------------
 Structure from the checkpoint file:  "JID_1507.chk"
 Charge = -1 Multiplicity = 2

                         Standard orientation:
 ---------------------------------------------------------------------
 Center     Atomic      Atomic             Coordinates (Angstroms)
 Number     Number       Type             X           Y           Z
 ---------------------------------------------------------------------
      1          6           0        0.311979    1.001947   -0.000033
      2          6           0        1.637573    1.246868   -0.000020
      3          6           0        2.643310    0.163818    0.000127
      4          6           0        2.117283   -1.217008    0.000105
      5          6           0        0.793633   -1.458548    0.000058
      6          6           0       -0.187965   -0.371060   -0.000026
      7          6           0       -1.491885   -0.753018   -0.000075
      8          8           0        3.848289    0.397845   -0.000130
      9          7           0       -2.658685    0.100612    0.000004
     10          8           0       -2.537494    1.328837    0.000168
     11          8           0       -3.739072   -0.496564   -0.000116
     12          1           0       -0.412105    1.803759   -0.000103
     13          1           0        2.027452    2.259955   -0.000173
     14          1           0        2.851036   -2.016583    0.000051
     15          1           0        0.414300   -2.476959    0.000054
     16          1           0       -1.787232   -1.793399   -0.000050
 ---------------------------------------------------------------------

 SCF Done:  E(UB3LYP) =  -550.316066930     A.U. after   22 cycles

 The electronic state is 2-A.
 Alpha  occ. eigenvalues --  -18.98798 -18.98760 -18.95135 -14.37885 -10.10297
 Alpha  occ. eigenvalues --  -10.07612 -10.06604 -10.06100 -10.04876 -10.04476
 Alpha  occ. eigenvalues --  -10.04050  -1.06576  -0.89410  -0.88859  -0.73019
 Alpha  occ. eigenvalues --   -0.66695  -0.63284  -0.58142  -0.48807  -0.47638
 Alpha  occ. eigenvalues --   -0.43973  -0.39528  -0.38133  -0.37697  -0.34782
 Alpha  occ. eigenvalues --   -0.33595  -0.31255  -0.30609  -0.28476  -0.27724
 Alpha  occ. eigenvalues --   -0.25934  -0.22719  -0.22379  -0.17034  -0.15717
 Alpha  occ. eigenvalues --   -0.14761  -0.13918  -0.12861  -0.11035  -0.02878
 Alpha virt. eigenvalues --    0.08882   0.09134   0.10794   0.11036   0.11292
 Alpha virt. eigenvalues --    0.13642   0.13744   0.13985   0.16168   0.17750
 Alpha virt. eigenvalues --    0.18415   0.18676   0.18997   0.19657   0.19794

  Beta  occ. eigenvalues --  -18.98570 -18.98336 -18.94640 -14.37696 -10.10261
  Beta  occ. eigenvalues --  -10.07333 -10.06449 -10.06058 -10.04852 -10.04369
  Beta  occ. eigenvalues --  -10.03920  -1.06050  -0.88808  -0.88022  -0.72560
  Beta  occ. eigenvalues --   -0.66006  -0.63088  -0.57394  -0.48438  -0.47283
  Beta  occ. eigenvalues --   -0.43565  -0.39252  -0.37355  -0.36539  -0.34444
  Beta  occ. eigenvalues --   -0.33334  -0.31011  -0.30526  -0.28149  -0.26374
  Beta  occ. eigenvalues --   -0.25656  -0.22556  -0.20640  -0.15338  -0.14861
  Beta  occ. eigenvalues --   -0.14128  -0.13598  -0.10578  -0.10508
  Beta virt. eigenvalues --    0.03129   0.09146   0.10802   0.11138   0.11310
  Beta virt. eigenvalues --    0.12003   0.13663   0.13756   0.14498   0.16207
  Beta virt. eigenvalues --    0.17779   0.18710   0.18815   0.19332   0.19827

 Mulliken charges and spin densities:
               1          2
     1  C   -0.510763  -0.036348
     2  C    0.331197   0.130150
     3  C   -0.855903   0.035165
     4  C    0.520648   0.108223
     5  C   -1.436606  -0.029996
     6  C    1.789268   0.144730
     7  C   -0.815100   0.202133
     8  O   -0.381585   0.173161
     9  N   -0.197484   0.076188
    10  O   -0.176496   0.087731
    11  O   -0.089857   0.145317
    12  H    0.222178  -0.004571
    13  H    0.161290  -0.007335
    14  H    0.152464  -0.006401
    15  H    0.097554  -0.004585
    16  H    0.189194  -0.013563
 Sum of Mulliken charges =  -1.00000   1.00000

 Dipole moment (field-independent basis, Debye):
    X=              0.5479    Y=             -2.2448    Z=              0.0001  Tot=              2.3107
 Quadrupole moment (field-independent basis, Debye-Ang):
   XX=           -132.2960   YY=            -67.6310   ZZ=            -67.8700
   XY=             -0.5634   XZ=              0.0009   YZ=             -0.0009

 Summary of Natural Population Analysis:

                                       Natural Population
                Natural  -----------------------------------------------
    Atom  No    Charge         Core      Valence    Rydberg      Total
 -----------------------------------------------------------------------
      C    1   -0.08799      0.99952     2.07919    0.00927     3.08799
      C    2   -0.09085      0.99952     2.08173    0.00960     3.09085
      C    3    0.22344      0.99961     1.75687    0.02008     2.77656
      C    4   -0.10298      0.99951     2.09357    0.00989     3.10298
      C    5   -0.07687      0.99954     2.06886    0.00847     3.07687
      C    6   -0.01713      0.99949     2.00868    0.00896     3.01713
      C    7    0.04547      0.99942     1.94353    0.01158     2.95453
      O    8   -0.24220      0.99988     3.23477    0.00754     4.24220
      N    9    0.24828      0.99974     2.22461    0.02737     3.25172
      O   10   -0.21039      0.99990     3.20220    0.00829     4.21039
      O   11   -0.17857      0.99990     3.17049    0.00818     4.17857
      H   12    0.11602      0.00000     0.38263    0.00135     0.38398
      H   13    0.09482      0.00000     0.40336    0.00182     0.40518
      H   14    0.09497      0.00000     0.40300    0.00203     0.40503
      H   15    0.09098      0.00000     0.40716    0.00186     0.40902
      H   16    0.09299      0.00000     0.40572    0.00129     0.40701
 =======================================================================
   * Total *    0.00000     10.99604    27.86638    0.13758    39.00000

 Normal termination of Gaussian 16 at Tue Dec  8 20:44:32 2020.
