 Gaussian 16, Revision A.03,

 -----------------------------------------------------------
 # opt freq B3LYP/6-31G(d) empiricaldispersion=gd3bj scf=xqc
 -----------------------------------------------------------

 ------------------------------
 CID_82492896_JID_6270_neutraal
 ------------------------------
 Symbolic Z-matrix:
 Charge =  0 Multiplicity = 1

 SCF Done:  E(RB3LYP) =  -673.777317612     A.U. after   15 cycles
 SCF Done:  E(RB3LYP) =  -673.782522774     A.U. after   13 cycles
 SCF Done:  E(RB3LYP) =  -673.782570189     A.U. after   12 cycles
 SCF Done:  E(RB3LYP) =  -673.782913986     A.U. after   13 cycles
 SCF Done:  E(RB3LYP) =  -673.783092667     A.U. after   12 cycles
 SCF Done:  E(RB3LYP) =  -673.783125985     A.U. after   11 cycles
 SCF Done:  E(RB3LYP) =  -673.783180115     A.U. after   12 cycles
 SCF Done:  E(RB3LYP) =  -673.783205995     A.U. after   11 cycles
 SCF Done:  E(RB3LYP) =  -673.783254195     A.U. after   11 cycles
 SCF Done:  E(RB3LYP) =  -673.783297475     A.U. after   11 cycles
 SCF Done:  E(RB3LYP) =  -673.783354114     A.U. after    9 cycles
 SCF Done:  E(RB3LYP) =  -673.783354685     A.U. after    9 cycles
 SCF Done:  E(RB3LYP) =  -673.783354413     A.U. after    9 cycles
 SCF Done:  E(RB3LYP) =  -673.783355028     A.U. after    9 cycles
 SCF Done:  E(RB3LYP) =  -673.783355115     A.U. after    8 cycles
 SCF Done:  E(RB3LYP) =  -673.783355159     A.U. after    8 cycles
 Optimization completed.
    -- Stationary point found.
 Normal termination of Gaussian 16 at Thu Dec 10 22:10:16 2020.

 --------------------------------------------------------------------
 #N Geom=AllCheck Guess=TCheck SCRF=Check GenChk RB3LYP/6-31G(d) Freq
 --------------------------------------------------------------------

 Structure from the checkpoint file:  "JID_6270.chk"
 ------------------------------
 CID_82492896_JID_6270_neutraal
 ------------------------------
 Charge =  0 Multiplicity = 1

 SCF Done:  E(RB3LYP) =  -673.783355159     A.U. after    1 cycles

  Exact polarizability: 179.022  -1.494 190.005  12.971   0.797  92.033
 Approx polarizability: 263.809  -6.320 307.974  29.529  -0.840 138.194

                      1                      2                      3
                      A                      A                      A
 Frequencies --     28.7308                46.8955                58.3761
 Red. masses --      3.6686                 4.7698                 2.6554
 Frc consts  --      0.0018                 0.0062                 0.0053
 IR Inten    --      3.3236                 2.9157                 0.6839

                      4                      5                      6
                      A                      A                      A
 Frequencies --     64.1065                68.9162               104.4245
 Red. masses --      1.5936                 1.6408                 1.2738
 Frc consts  --      0.0039                 0.0046                 0.0082
 IR Inten    --      0.3309                 0.4109                 0.2196

                      7                      8                      9
                      A                      A                      A
 Frequencies --    119.3291               155.3970               168.3732
 Red. masses --      1.1075                 2.9087                 2.2324
 Frc consts  --      0.0093                 0.0414                 0.0373
 IR Inten    --      0.2707                 5.8520                 0.8382

                     10                     11                     12
                      A                      A                      A
 Frequencies --    189.3291               205.5537               235.8541
 Red. masses --      3.0855                 1.7547                 1.7195
 Frc consts  --      0.0652                 0.0437                 0.0564
 IR Inten    --      0.0766                 0.3532                 0.6065

                     13                     14                     15
                      A                      A                      A
 Frequencies --    265.1468               293.4809               305.3496
 Red. masses --      2.7339                 2.7359                 4.1074
 Frc consts  --      0.1132                 0.1388                 0.2256
 IR Inten    --      1.2853                 0.2577                 0.7505

                     16                     17                     18
                      A                      A                      A
 Frequencies --    345.7569               363.4392               407.7564
 Red. masses --      2.9034                 3.9237                 3.1087
 Frc consts  --      0.2045                 0.3054                 0.3045
 IR Inten    --      0.3095                 1.5269                 0.6472

                     19                     20                     21
                      A                      A                      A
 Frequencies --    460.3350               471.5371               517.2354
 Red. masses --      3.7579                 4.0433                 3.6606
 Frc consts  --      0.4692                 0.5297                 0.5770
 IR Inten    --      4.0321                 2.1449                 0.2219

                     22                     23                     24
                      A                      A                      A
 Frequencies --    539.6995               548.6193               587.3207
 Red. masses --      4.1215                 2.8637                 3.8422
 Frc consts  --      0.7073                 0.5078                 0.7809
 IR Inten    --      1.2683                 9.7783                 1.6205

                     25                     26                     27
                      A                      A                      A
 Frequencies --    595.8284               627.1928               633.8257
 Red. masses --      3.3934                 3.5113                 3.9806
 Frc consts  --      0.7098                 0.8138                 0.9422
 IR Inten    --      0.4393                 8.5316                 6.4501

                     28                     29                     30
                      A                      A                      A
 Frequencies --    685.9984               749.1218               782.8174
 Red. masses --      3.4129                 3.6082                 2.1129
 Frc consts  --      0.9463                 1.1930                 0.7629
 IR Inten    --      6.1290                 9.0518                 7.7381

                     31                     32                     33
                      A                      A                      A
 Frequencies --    783.5601               797.9834               869.3251
 Red. masses --      4.5666                 2.2293                 1.2877
 Frc consts  --      1.6519                 0.8364                 0.5734
 IR Inten    --      1.9648                 5.0652                11.9133

                     34                     35                     36
                      A                      A                      A
 Frequencies --    885.6773               899.4046               934.7934
 Red. masses --      1.7277                 1.3772                 3.1734
 Frc consts  --      0.7985                 0.6564                 1.6338
 IR Inten    --      4.6800                 5.8146                 3.0760

                     37                     38                     39
                      A                      A                      A
 Frequencies --    990.6993              1016.3288              1032.2385
 Red. masses --      4.6029                 1.6929                 1.8138
 Frc consts  --      2.6617                 1.0303                 1.1387
 IR Inten    --      2.3866                 2.6000                 3.8481

                     40                     41                     42
                      A                      A                      A
 Frequencies --   1046.1404              1051.5483              1073.2067
 Red. masses --      1.7350                 1.4837                 1.4790
 Frc consts  --      1.1187                 0.9666                 1.0037
 IR Inten    --      1.2842                 4.1797                 2.5613

                     43                     44                     45
                      A                      A                      A
 Frequencies --   1075.4871              1076.9492              1130.5061
 Red. masses --      2.0818                 1.4905                 2.5411
 Frc consts  --      1.4187                 1.0185                 1.9135
 IR Inten    --     23.6908                 3.1015                14.2705

                     46                     47                     48
                      A                      A                      A
 Frequencies --   1155.0869              1177.6596              1189.1617
 Red. masses --      1.2920                 1.7416                 1.6114
 Frc consts  --      1.0156                 1.4231                 1.3425
 IR Inten    --      3.7093                20.0016                11.8753

                     49                     50                     51
                      A                      A                      A
 Frequencies --   1219.5941              1241.8917              1273.6645
 Red. masses --      2.0258                 2.2578                 1.7550
 Frc consts  --      1.7753                 2.0517                 1.6774
 IR Inten    --      5.5155                68.2878                20.8399

                     52                     53                     54
                      A                      A                      A
 Frequencies --   1301.4068              1321.6091              1356.3719
 Red. masses --      1.8980                 1.5266                 3.0511
 Frc consts  --      1.8939                 1.5711                 3.3073
 IR Inten    --      2.5819                 7.8945                24.0586

                     55                     56                     57
                      A                      A                      A
 Frequencies --   1391.3532              1400.1744              1410.7945
 Red. masses --      3.6657                 5.5965                 1.3330
 Frc consts  --      4.1810                 6.4644                 1.5632
 IR Inten    --      6.9310                13.6631                36.3644

                     58                     59                     60
                      A                      A                      A
 Frequencies --   1421.6090              1442.5727              1443.3350
 Red. masses --      4.7238                 1.2868                 1.2772
 Frc consts  --      5.6247                 1.5777                 1.5677
 IR Inten    --     36.2751                 1.4145                 5.8222

                     61                     62                     63
                      A                      A                      A
 Frequencies --   1460.8839              1486.4637              1493.5370
 Red. masses --      2.0572                 1.0982                 1.0773
 Frc consts  --      2.5867                 1.4297                 1.4158
 IR Inten    --     45.3169                 3.5735                 9.4361

                     64                     65                     66
                      A                      A                      A
 Frequencies --   1497.3541              1503.7292              1508.5845
 Red. masses --      1.5507                 1.0574                 1.0465
 Frc consts  --      2.0485                 1.4088                 1.4033
 IR Inten    --      2.4461                11.8591                 1.9315

                     67                     68                     69
                      A                      A                      A
 Frequencies --   1515.1499              1515.8052              1523.4555
 Red. masses --      1.0536                 1.3669                 1.1045
 Frc consts  --      1.4250                 1.8505                 1.5104
 IR Inten    --      5.6989                 2.6660                28.3146

                     70                     71                     72
                      A                      A                      A
 Frequencies --   1530.4744              1547.1471              1553.2382
 Red. masses --      1.1010                 2.0091                 1.0826
 Frc consts  --      1.5195                 2.8334                 1.5389
 IR Inten    --     24.3947                21.1705                 3.7284

                     73                     74                     75
                      A                      A                      A
 Frequencies --   1614.6185              1642.1936              1674.0667
 Red. masses --      6.1923                 6.6953                 5.8874
 Frc consts  --      9.5113                10.6382                 9.7212
 IR Inten    --      4.8776                12.8719                 2.6411

                     76                     77                     78
                      A                      A                      A
 Frequencies --   1814.0728              3036.6448              3038.6752
 Red. masses --     10.4011                 1.0620                 1.0381
 Frc consts  --     20.1669                 5.7699                 5.6475
 IR Inten    --    160.8627                28.9952                46.2107

                     79                     80                     81
                      A                      A                      A
 Frequencies --   3044.2707              3057.9627              3058.8971
 Red. masses --      1.0389                 1.0406                 1.0364
 Frc consts  --      5.6729                 5.7334                 5.7138
 IR Inten    --     10.2760                86.6938                 2.3418

                     82                     83                     84
                      A                      A                      A
 Frequencies --   3087.5319              3093.1575              3099.1225
 Red. masses --      1.1009                 1.0999                 1.0975
 Frc consts  --      6.1832                 6.2000                 6.2107
 IR Inten    --     24.4775                11.9845                17.0065

                     85                     86                     87
                      A                      A                      A
 Frequencies --   3119.7296              3125.6180              3127.2651
 Red. masses --      1.0993                 1.1001                 1.0973
 Frc consts  --      6.3037                 6.3321                 6.3225
 IR Inten    --      9.9465                15.5279                30.0528

                     88                     89                     90
                      A                      A                      A
 Frequencies --   3128.4754              3155.0451              3166.4637
 Red. masses --      1.1007                 1.1042                 1.0896
 Frc consts  --      6.3473                 6.4758                 6.4366
 IR Inten    --     18.9120                11.6503                25.5655

                     91                     92                     93
                      A                      A                      A
 Frequencies --   3166.7390              3192.4435              3251.9682
 Red. masses --      1.1031                 1.0906                 1.0963
 Frc consts  --      6.5175                 6.5490                 6.8309
 IR Inten    --     12.5478                 6.4505                 2.6139

 - Thermochemistry -
 -------------------
 Temperature   298.150 Kelvin.  Pressure   1.00000 Atm.
 Atom     1 has atomic number  6 and mass  12.00000

 Molecular mass:   215.13101 amu.
 Principal axes and moments of inertia in atomic units:
                           1         2         3
     Eigenvalues --  2621.114924102.627176158.72095
           X            0.99999   0.00520  -0.00083
           Y           -0.00520   0.99998  -0.00398
           Z            0.00081   0.00398   0.99999
 This molecule is an asymmetric top.
 Rotational symmetry number  1.
 Warning -- assumption of classical behavior for rotation
           may cause significant error
 Rotational temperatures (Kelvin)      0.03304     0.02111     0.01406
 Rotational constants (GHZ):           0.68854     0.43990     0.29304
 Zero-point vibrational energy     734905.9 (Joules/Mol)
                                  175.64672 (Kcal/Mol)
 Warning -- explicit consideration of  25 degrees of freedom as
           vibrations may cause significant error
 Vibrational temperatures:     41.34    67.47    83.99    92.24    99.16
          (Kelvin)            150.24   171.69   223.58   242.25   272.40
                              295.75   339.34   381.49   422.25   439.33
                              497.47   522.91   586.67   662.32   678.44
                              744.19   776.51   789.34   845.02   857.26
                              902.39   911.93   987.00  1077.82  1126.30
                             1127.37  1148.12  1250.76  1274.29  1294.04
                             1344.96  1425.40  1462.27  1485.16  1505.16
                             1512.94  1544.11  1547.39  1549.49  1626.55
                             1661.91  1694.39  1710.94  1754.72  1786.81
                             1832.52  1872.43  1901.50  1951.52  2001.85
                             2014.54  2029.82  2045.38  2075.54  2076.64
                             2101.89  2138.69  2148.87  2154.36  2163.53
                             2170.52  2179.96  2180.91  2191.91  2202.01
                             2226.00  2234.76  2323.08  2362.75  2408.61
                             2610.05  4369.05  4371.98  4380.03  4399.73
                             4401.07  4442.27  4450.36  4458.95  4488.60
                             4497.07  4499.44  4501.18  4539.41  4555.84
                             4556.23  4593.21  4678.86

 Zero-point correction=                           0.279911 (Hartree/Particle)
 Thermal correction to Energy=                    0.296414
 Thermal correction to Enthalpy=                  0.297358
 Thermal correction to Gibbs Free Energy=         0.234718
 Sum of electronic and zero-point Energies=           -673.503444
 Sum of electronic and thermal Energies=              -673.486941
 Sum of electronic and thermal Enthalpies=            -673.485997
 Sum of electronic and thermal Free Energies=         -673.548637

                     E (Thermal)             CV                S
                      KCal/Mol        Cal/Mol-Kelvin    Cal/Mol-Kelvin
 Total                  186.003             60.607            131.837
 Electronic               0.000              0.000              0.000
 Translational            0.889              2.981             42.002
 Rotational               0.889              2.981             32.560
 Vibrational            184.225             54.645             57.276
 Vibration     1          0.593              1.984              5.915
 Vibration     2          0.595              1.979              4.944
 Vibration     3          0.596              1.974              4.511
 Vibration     4          0.597              1.971              4.327
 Vibration     5          0.598              1.969              4.184
 Vibration     6          0.605              1.946              3.370
 Vibration     7          0.609              1.933              3.111
 Vibration     8          0.620              1.897              2.605
 Vibration     9          0.625              1.881              2.454
 Vibration    10          0.633              1.855              2.234
 Vibration    11          0.640              1.832              2.083
 Vibration    12          0.655              1.786              1.834
 Vibration    13          0.671              1.737              1.628
 Vibration    14          0.688              1.686              1.454
 Vibration    15          0.696              1.664              1.387
 Vibration    16          0.724              1.584              1.185
 Vibration    17          0.737              1.548              1.107
 Vibration    18          0.772              1.453              0.935
 Vibration    19          0.818              1.338              0.765
 Vibration    20          0.828              1.313              0.733
 Vibration    21          0.872              1.212              0.616
 Vibration    22          0.895              1.162              0.566
 Vibration    23          0.904              1.143              0.547
 Vibration    24          0.944              1.059              0.472
 Vibration    25          0.954              1.041              0.457

                           ! Non-Optimized Parameters !
 Normal termination of Gaussian 16 at Thu Dec 10 22:21:25 2020.

 ----------------------------------------------------------------------
 # B3LYP/6-311++G(d,p) empiricaldispersion=gd3bj scf=xqc pop=npa geom=c
 heck
 ----------------------------------------------------------------------

 --------------------------------------
 CID_82492896_JID_6270_Energie_neutraal
 --------------------------------------
 Structure from the checkpoint file:  "JID_6270.chk"
 Charge =  0 Multiplicity = 1

 SCF Done:  E(RB3LYP) =  -673.960686215     A.U. after   15 cycles
 Normal termination of Gaussian 16 at Thu Dec 10 22:26:21 2020.

 ----------------------------------------------------------------------
 # B3LYP/6-311++G(d,p) empiricaldispersion=gd3bj scf=xqc pop=npa geom=c
 heck
 ----------------------------------------------------------------------

 ------------------------------------
 CID_82492896_JID_6270_Energie_kation
 ------------------------------------
 Structure from the checkpoint file:  "JID_6270.chk"
 Charge =  1 Multiplicity = 2

 SCF Done:  E(UB3LYP) =  -673.697812708     A.U. after   23 cycles
 Normal termination of Gaussian 16 at Thu Dec 10 22:37:17 2020.
 Gaussian 16:  ES64L-G16RevA.03 25-Dec-2016

 ----------------------------------------------------------------------
 # B3LYP/6-311++G(d,p) empiricaldispersion=gd3bj scf=xqc pop=npa geom=c
 heck
 ----------------------------------------------------------------------

 -----------------------------------
 CID_82492896_JID_6270_Energie_anion
 -----------------------------------
 Structure from the checkpoint file:  "JID_6270.chk"
 Charge = -1 Multiplicity = 2

                         Standard orientation:
 ---------------------------------------------------------------------
 Center     Atomic      Atomic             Coordinates (Angstroms)
 Number     Number       Type             X           Y           Z
 ---------------------------------------------------------------------
      1          6           0        0.799401    3.773594   -0.136073
      2          6           0        0.896718    2.266822   -0.127752
      3          6           0        2.136878    1.646192    0.149635
      4          6           0        2.325018    0.267236    0.184636
      5          6           0        1.186111   -0.519973   -0.084325
      6          6           0       -0.072812    0.074818   -0.373810
      7          6           0       -0.210781    1.473021   -0.388021
      8          6           0       -1.015298   -0.989162   -0.597641
      9          6           0       -0.319134   -2.158611   -0.436130
     10          7           0        1.005023   -1.900581   -0.122838
     11          6           0        2.012068   -2.936850   -0.000170
     12          6           0       -2.473010   -0.817296   -0.900587
     13          6           0       -3.217326   -0.041161    0.191069
     14          8           0       -3.906782    0.923750   -0.078839
     15          6           0       -3.027049   -0.519234    1.617702
     16          6           0        3.686839   -0.297844    0.514957
     17          1           0       -0.222725    4.102707   -0.346535
     18          1           0        1.456085    4.214582   -0.896820
     19          1           0        1.096370    4.201107    0.829950
     20          1           0        2.996553    2.282065    0.352232
     21          1           0       -1.177092    1.923910   -0.598077
     22          1           0       -0.660753   -3.181832   -0.521634
     23          1           0        1.507765   -3.905565    0.017645
     24          1           0        2.710306   -2.926580   -0.844804
     25          1           0        2.579042   -2.829340    0.927426
     26          1           0       -2.637410   -0.279836   -1.841117
     27          1           0       -2.948236   -1.803886   -0.994432
     28          1           0       -3.063098   -1.612241    1.683521
     29          1           0       -2.033342   -0.212151    1.964481
     30          1           0       -3.786507   -0.071139    2.261258
     31          1           0        3.685352   -0.848266    1.463791
     32          1           0        4.055457   -0.980941   -0.258186
     33          1           0        4.415593    0.512163    0.610938
 ---------------------------------------------------------------------

 SCF Done:  E(UB3LYP) =  -673.951606608     A.U. after   32 cycles

 The electronic state is 2-A.
 Alpha  occ. eigenvalues --  -19.01710 -14.26221 -10.16429 -10.10550 -10.10523
 Alpha  occ. eigenvalues --  -10.10134 -10.09061 -10.08605 -10.08203 -10.08171
 Alpha  occ. eigenvalues --  -10.07678 -10.07389 -10.07285 -10.07155 -10.07092
 Alpha  occ. eigenvalues --  -10.07026  -0.94982  -0.88770  -0.75842  -0.72330
 Alpha  occ. eigenvalues --   -0.68722  -0.67311  -0.63973  -0.62809  -0.59990
 Alpha  occ. eigenvalues --   -0.59700  -0.56015  -0.50978  -0.48320  -0.46200
 Alpha  occ. eigenvalues --   -0.43421  -0.41405  -0.39376  -0.37764  -0.37087
 Alpha  occ. eigenvalues --   -0.36120  -0.35487  -0.35126  -0.34731  -0.33364
 Alpha  occ. eigenvalues --   -0.32443  -0.32049  -0.31924  -0.31650  -0.30385
 Alpha  occ. eigenvalues --   -0.29462  -0.29251  -0.28729  -0.27944  -0.27747
 Alpha  occ. eigenvalues --   -0.26450  -0.25249  -0.23589  -0.22279  -0.17771
 Alpha  occ. eigenvalues --   -0.15727  -0.12501  -0.10556   0.04069
 Alpha virt. eigenvalues --    0.05977   0.06700   0.06886   0.07412   0.08009
 Alpha virt. eigenvalues --    0.08530   0.08801   0.08979   0.09727   0.10459
 Alpha virt. eigenvalues --    0.10662   0.10979   0.11550   0.11832   0.12438

  Beta  occ. eigenvalues --  -19.01666 -14.26218 -10.16371 -10.10519 -10.10486
  Beta  occ. eigenvalues --  -10.10103 -10.09060 -10.08599 -10.08202 -10.08169
  Beta  occ. eigenvalues --  -10.07667 -10.07354 -10.07284 -10.07155 -10.07090
  Beta  occ. eigenvalues --  -10.07020  -0.94890  -0.88756  -0.75834  -0.72305
  Beta  occ. eigenvalues --   -0.68708  -0.67252  -0.63942  -0.62766  -0.59965
  Beta  occ. eigenvalues --   -0.59656  -0.55957  -0.50937  -0.48297  -0.46144
  Beta  occ. eigenvalues --   -0.43335  -0.41346  -0.39338  -0.37719  -0.37049
  Beta  occ. eigenvalues --   -0.36077  -0.35399  -0.35061  -0.34701  -0.33356
  Beta  occ. eigenvalues --   -0.32409  -0.32016  -0.31878  -0.31605  -0.30361
  Beta  occ. eigenvalues --   -0.29432  -0.29211  -0.28693  -0.27919  -0.27723
  Beta  occ. eigenvalues --   -0.26285  -0.25223  -0.23542  -0.22258  -0.17753
  Beta  occ. eigenvalues --   -0.15692  -0.12484  -0.10536
  Beta virt. eigenvalues --    0.06253   0.06742   0.07173   0.07315   0.07649
  Beta virt. eigenvalues --    0.08535   0.08817   0.09288   0.09457   0.10088
  Beta virt. eigenvalues --    0.10623   0.11096   0.11291   0.11755   0.12136

 Mulliken charges and spin densities:
               1          2
     1  C   -0.009361  -0.379028
     2  C    0.341685  -0.307719
     3  C    0.237154  -0.651560
     4  C   -1.089805   1.513286
     5  C   -0.155560   0.144136
     6  C    0.315554  -0.107134
     7  C   -1.085688   0.038101
     8  C    0.473107   0.089227
     9  C   -0.271240   0.287294
    10  N   -0.183327   0.292561
    11  C    1.408775  -1.719967
    12  C    0.097871  -0.776075
    13  C   -0.262879   0.509658
    14  O   -0.266638   0.013014
    15  C    0.045819  -0.646822
    16  C    1.767583  -2.414975
    17  H    0.151330  -0.007156
    18  H    0.119934   0.025385
    19  H    0.108827   0.038122
    20  H    0.024706   0.076158
    21  H    0.106338   0.014041
    22  H   -0.885157   1.101759
    23  H   -0.807401   0.968741
    24  H   -0.380420   0.577489
    25  H   -0.392476   0.560643
    26  H    0.139520   0.037171
    27  H   -0.191438   0.377541
    28  H   -0.169338   0.335008
    29  H    0.125793   0.053023
    30  H    0.153361   0.011547
    31  H   -0.124353   0.300252
    32  H   -0.135486   0.291845
    33  H   -0.206790   0.354433
 Sum of Mulliken charges =  -1.00000   1.00000

 Dipole moment (field-independent basis, Debye):
    X=             -1.4850    Y=              8.3037    Z=              0.0955  Tot=              8.4360
 Quadrupole moment (field-independent basis, Debye-Ang):
   XX=           -167.7193   YY=           -165.1738   ZZ=           -124.7528
   XY=             14.7567   XZ=             -2.6966   YZ=              0.1357

 Summary of Natural Population Analysis:

                                       Natural Population
                Natural  -----------------------------------------------
    Atom  No    Charge         Core      Valence    Rydberg      Total
 -----------------------------------------------------------------------
      C    1   -0.28946      0.99964     2.28497    0.00486     3.28946
      C    2   -0.02718      0.99953     2.02006    0.00759     3.02718
      C    3   -0.10849      0.99949     2.09982    0.00917     3.10849
      C    4   -0.02057      0.99949     2.01293    0.00814     3.02057
      C    5    0.08324      0.99943     1.90577    0.01156     2.91676
      C    6   -0.03717      0.99947     2.02817    0.00953     3.03717
      C    7   -0.10414      0.99948     2.09749    0.00717     3.10414
      C    8   -0.06265      0.99947     2.05194    0.01123     3.06265
      C    9    0.01982      0.99947     1.96858    0.01213     2.98018
      N   10   -0.20406      0.99963     2.69423    0.01020     3.70406
      C   11   -0.17171      0.99963     2.16383    0.00824     3.17171
      C   12   -0.24168      0.99956     2.23246    0.00966     3.24168
      C   13    0.30486      0.99969     1.67373    0.02172     2.69514
      O   14   -0.28911      0.99987     3.28248    0.00676     4.28911
      C   15   -0.33965      0.99961     2.33481    0.00522     3.33965
      C   16   -0.29232      0.99964     2.28713    0.00555     3.29232
      H   17    0.10079      0.00000     0.39846    0.00075     0.39921
      H   18    0.09908      0.00000     0.39977    0.00116     0.40092
      H   19    0.09938      0.00000     0.39946    0.00116     0.40062
      H   20    0.09360      0.00000     0.40514    0.00126     0.40640
      H   21    0.10315      0.00000     0.39533    0.00151     0.39685
      H   22    0.10458      0.00000     0.39246    0.00296     0.39542
      H   23    0.10611      0.00000     0.39051    0.00338     0.39389
      H   24    0.09839      0.00000     0.39940    0.00222     0.40161
      H   25    0.10089      0.00000     0.39710    0.00201     0.39911
      H   26    0.11012      0.00000     0.38866    0.00121     0.38988
      H   27    0.11535      0.00000     0.38310    0.00155     0.38465
      H   28    0.11029      0.00000     0.38847    0.00123     0.38971
      H   29    0.11861      0.00000     0.38048    0.00091     0.38139
      H   30    0.10657      0.00000     0.39252    0.00091     0.39343
      H   31    0.10564      0.00000     0.39305    0.00130     0.39436
      H   32    0.10651      0.00000     0.39216    0.00132     0.39349
      H   33    0.10118      0.00000     0.39792    0.00090     0.39882
 =======================================================================
   * Total *    0.00000     15.99310    41.83241    0.17449    58.00000

 Normal termination of Gaussian 16 at Thu Dec 10 22:54:45 2020.
