 Gaussian 16, Revision A.03,

 -----------------------------------------------------------
 # opt freq B3LYP/6-31G(d) empiricaldispersion=gd3bj scf=xqc
 -----------------------------------------------------------

 -------------------------------
 CID_143931906_JID_1265_neutraal
 -------------------------------
 Symbolic Z-matrix:
 Charge =  0 Multiplicity = 1

 SCF Done:  E(RB3LYP) =  -517.903041814     A.U. after   15 cycles
 SCF Done:  E(RB3LYP) =  -517.905299933     A.U. after   12 cycles
 SCF Done:  E(RB3LYP) =  -517.905495144     A.U. after   12 cycles
 SCF Done:  E(RB3LYP) =  -517.905654869     A.U. after   11 cycles
 SCF Done:  E(RB3LYP) =  -517.905689749     A.U. after   10 cycles
 SCF Done:  E(RB3LYP) =  -517.905701755     A.U. after   10 cycles
 SCF Done:  E(RB3LYP) =  -517.905703885     A.U. after    8 cycles
 SCF Done:  E(RB3LYP) =  -517.905705033     A.U. after    8 cycles
 SCF Done:  E(RB3LYP) =  -517.905705148     A.U. after    7 cycles
 SCF Done:  E(RB3LYP) =  -517.905705206     A.U. after    7 cycles
 Optimization completed.
    -- Stationary point found.
 Normal termination of Gaussian 16 at Tue Dec  8 19:33:41 2020.

 --------------------------------------------------------------------
 #N Geom=AllCheck Guess=TCheck SCRF=Check GenChk RB3LYP/6-31G(d) Freq
 --------------------------------------------------------------------

 Structure from the checkpoint file:  "JID_1265.chk"
 -------------------------------
 CID_143931906_JID_1265_neutraal
 -------------------------------
 Charge =  0 Multiplicity = 1

 SCF Done:  E(RB3LYP) =  -517.905705206     A.U. after    1 cycles

  Exact polarizability: 106.924   6.431 103.693  -3.216  -0.323  68.938
 Approx polarizability: 130.020  12.048 173.740  -5.646   1.041 101.548

                      1                      2                      3
                      A                      A                      A
 Frequencies --     44.1680                62.6430                89.1902
 Red. masses --      3.2931                 3.5923                 2.3238
 Frc consts  --      0.0038                 0.0083                 0.0109
 IR Inten    --      0.2813                 2.0344                 0.1370

                      4                      5                      6
                      A                      A                      A
 Frequencies --    120.4464               193.0692               208.8397
 Red. masses --      3.2073                 2.9360                 4.0399
 Frc consts  --      0.0274                 0.0645                 0.1038
 IR Inten    --      1.1776                11.2510                 2.4388

                      7                      8                      9
                      A                      A                      A
 Frequencies --    244.0647               271.0490               295.1008
 Red. masses --      1.2180                 3.3562                 1.9941
 Frc consts  --      0.0427                 0.1453                 0.1023
 IR Inten    --      0.7387                 3.7151                 1.6394

                     10                     11                     12
                      A                      A                      A
 Frequencies --    347.5735               412.1477               458.3347
 Red. masses --      2.6992                 3.3493                 2.3278
 Frc consts  --      0.1921                 0.3352                 0.2881
 IR Inten    --      9.2800                 0.3892                 3.9110

                     13                     14                     15
                      A                      A                      A
 Frequencies --    477.4932               529.0560               567.7271
 Red. masses --      5.0782                 2.8165                 5.4367
 Frc consts  --      0.6822                 0.4645                 1.0324
 IR Inten    --     14.4302                16.3700                 9.4085

                     16                     17                     18
                      A                      A                      A
 Frequencies --    611.2114               699.0271               752.8525
 Red. masses --      1.5750                 1.9798                 4.2031
 Frc consts  --      0.3467                 0.5700                 1.4036
 IR Inten    --     93.5709                10.3782                11.1436

                     19                     20                     21
                      A                      A                      A
 Frequencies --    778.6522               815.2657               862.8957
 Red. masses --      4.9123                 1.1307                 2.3701
 Frc consts  --      1.7548                 0.4428                 1.0397
 IR Inten    --      3.8899                 1.9114                 0.5709

                     22                     23                     24
                      A                      A                      A
 Frequencies --    894.8591               917.8338               931.9427
 Red. masses --      1.5672                 2.3914                 1.9468
 Frc consts  --      0.7394                 1.1870                 0.9962
 IR Inten    --     32.8849                 0.4999                 4.6085

                     25                     26                     27
                      A                      A                      A
 Frequencies --   1003.3366              1025.1592              1054.6978
 Red. masses --      2.8563                 2.2459                 1.9794
 Frc consts  --      1.6941                 1.3907                 1.2973
 IR Inten    --     17.7491                13.6136                 4.1483

                     28                     29                     30
                      A                      A                      A
 Frequencies --   1087.7199              1110.6550              1122.4416
 Red. masses --      1.9738                 2.3836                 1.8174
 Frc consts  --      1.3759                 1.7324                 1.3490
 IR Inten    --      1.9462                58.0191                16.5493

                     31                     32                     33
                      A                      A                      A
 Frequencies --   1141.0875              1178.7942              1217.9930
 Red. masses --      2.4889                 2.7595                 1.8593
 Frc consts  --      1.9094                 2.2592                 1.6252
 IR Inten    --     76.1399                35.5246                50.3354

                     34                     35                     36
                      A                      A                      A
 Frequencies --   1233.2892              1255.4040              1300.4011
 Red. masses --      1.4412                 1.5463                 1.1858
 Frc consts  --      1.2915                 1.4359                 1.1815
 IR Inten    --     13.3010                14.6717                10.3134

                     37                     38                     39
                      A                      A                      A
 Frequencies --   1308.9900              1350.9193              1371.8986
 Red. masses --      1.2925                 1.1290                 1.5908
 Frc consts  --      1.3048                 1.2140                 1.7640
 IR Inten    --     33.0900                 6.1670                11.1933

                     40                     41                     42
                      A                      A                      A
 Frequencies --   1386.7430              1407.8877              1423.2125
 Red. masses --      1.5063                 1.3598                 1.4704
 Frc consts  --      1.7067                 1.5881                 1.7548
 IR Inten    --     31.6836                19.2528                 8.0135

                     43                     44                     45
                      A                      A                      A
 Frequencies --   1439.9545              1446.1681              1486.7324
 Red. masses --      1.3566                 1.5588                 1.7596
 Frc consts  --      1.6574                 1.9208                 2.2916
 IR Inten    --     38.8889                14.0007                48.4794

                     46                     47                     48
                      A                      A                      A
 Frequencies --   1503.8278              1507.5131              1520.4194
 Red. masses --      1.1861                 1.0813                 1.0454
 Frc consts  --      1.5804                 1.4478                 1.4239
 IR Inten    --     13.0130                 0.7306                 4.2758

                     49                     50                     51
                      A                      A                      A
 Frequencies --   1526.1629              1542.0535              1542.7875
 Red. masses --      1.0541                 1.1191                 1.0844
 Frc consts  --      1.4466                 1.5679                 1.5207
 IR Inten    --      2.9654                 9.4166                 2.4654

                     52                     53                     54
                      A                      A                      A
 Frequencies --   1725.5177              1778.6635              2994.9081
 Red. masses --      7.3668                 8.6056                 1.0733
 Frc consts  --     12.9231                16.0406                 5.6722
 IR Inten    --     21.6282               300.2921                52.0586

                     55                     56                     57
                      A                      A                      A
 Frequencies --   3021.8602              3023.0852              3046.5753
 Red. masses --      1.0663                 1.0682                 1.0580
 Frc consts  --      5.7367                 5.7517                 5.7857
 IR Inten    --     41.1640                31.7908                 8.7399

                     58                     59                     60
                      A                      A                      A
 Frequencies --   3055.4076              3086.0491              3088.7200
 Red. masses --      1.0403                 1.0931                 1.0980
 Frc consts  --      5.7217                 6.1336                 6.1720
 IR Inten    --     23.7156                28.2151                22.2686

                     61                     62                     63
                      A                      A                      A
 Frequencies --   3090.4053              3103.9616              3120.8654
 Red. masses --      1.1010                 1.0923                 1.1009
 Frc consts  --      6.1953                 6.2007                 6.3175
 IR Inten    --     20.1062                38.5655                37.9874

                     64                     65                     66
                      A                      A                      A
 Frequencies --   3134.8704              3193.0943              3593.2808
 Red. masses --      1.1039                 1.0897                 1.0763
 Frc consts  --      6.3918                 6.5459                 8.1876
 IR Inten    --     38.5347                 5.7562                20.8581

 - Thermochemistry -
 -------------------
 Temperature   298.150 Kelvin.  Pressure   1.00000 Atm.
 Atom     1 has atomic number  6 and mass  12.00000

 Molecular mass:   155.09463 amu.
 Principal axes and moments of inertia in atomic units:
                           1         2         3
     Eigenvalues --   938.782092753.297893286.32600
           X            0.99970   0.02279   0.00878
           Y           -0.02274   0.99973  -0.00517
           Z           -0.00890   0.00497   0.99995
 This molecule is an asymmetric top.
 Rotational symmetry number  1.
 Warning -- assumption of classical behavior for rotation
           may cause significant error
 Rotational temperatures (Kelvin)      0.09226     0.03146     0.02636
 Rotational constants (GHZ):           1.92243     0.65548     0.54917
 Zero-point vibrational energy     545132.0 (Joules/Mol)
                                  130.28968 (Kcal/Mol)
 Warning -- explicit consideration of  16 degrees of freedom as
           vibrations may cause significant error
 Vibrational temperatures:     63.55    90.13   128.32   173.30   277.78
          (Kelvin)            300.47   351.15   389.98   424.58   500.08
                              592.99   659.44   687.01   761.19   816.83
                              879.40  1005.74  1083.19  1120.31  1172.99
                             1241.51  1287.50  1320.56  1340.86  1443.58
                             1474.98  1517.47  1564.99  1597.98  1614.94
                             1641.77  1696.02  1752.42  1774.43  1806.25
                             1870.99  1883.34  1943.67  1973.86  1995.21
                             2025.64  2047.69  2071.77  2080.71  2139.08
                             2163.67  2168.98  2187.54  2195.81  2218.67
                             2219.73  2482.64  2559.10  4309.00  4347.78
                             4349.55  4383.34  4396.05  4440.14  4443.98
                             4446.40  4465.91  4490.23  4510.38  4594.15
                             5169.93

 Zero-point correction=                           0.207630 (Hartree/Particle)
 Thermal correction to Energy=                    0.218708
 Thermal correction to Enthalpy=                  0.219653
 Thermal correction to Gibbs Free Energy=         0.170068
 Sum of electronic and zero-point Energies=           -517.698075
 Sum of electronic and thermal Energies=              -517.686997
 Sum of electronic and thermal Enthalpies=            -517.686053
 Sum of electronic and thermal Free Energies=         -517.735637

                     E (Thermal)             CV                S
                      KCal/Mol        Cal/Mol-Kelvin    Cal/Mol-Kelvin
 Total                  137.242             40.956            104.360
 Electronic               0.000              0.000              0.000
 Translational            0.889              2.981             41.026
 Rotational               0.889              2.981             30.519
 Vibrational            135.464             34.995             32.814
 Vibration     1          0.595              1.980              5.063
 Vibration     2          0.597              1.972              4.372
 Vibration     3          0.602              1.957              3.678
 Vibration     4          0.609              1.932              3.093
 Vibration     5          0.635              1.849              2.198
 Vibration     6          0.642              1.827              2.054
 Vibration     7          0.659              1.773              1.773
 Vibration     8          0.675              1.727              1.590
 Vibration     9          0.689              1.683              1.445
 Vibration    10          0.725              1.580              1.177
 Vibration    11          0.776              1.444              0.919
 Vibration    12          0.816              1.342              0.771
 Vibration    13          0.834              1.300              0.717
 Vibration    14          0.884              1.186              0.589
 Vibration    15          0.924              1.101              0.509
 Vibration    16          0.970              1.008              0.431

                           ! Non-Optimized Parameters !
 Normal termination of Gaussian 16 at Tue Dec  8 19:38:04 2020.

 ----------------------------------------------------------------------
 # B3LYP/6-311++G(d,p) empiricaldispersion=gd3bj scf=xqc pop=npa geom=c
 heck
 ----------------------------------------------------------------------

 ---------------------------------------
 CID_143931906_JID_1265_Energie_neutraal
 ---------------------------------------
 Structure from the checkpoint file:  "JID_1265.chk"
 Charge =  0 Multiplicity = 1

 SCF Done:  E(RB3LYP) =  -518.058258746     A.U. after   14 cycles
 Normal termination of Gaussian 16 at Tue Dec  8 19:40:05 2020.

 ----------------------------------------------------------------------
 # B3LYP/6-311++G(d,p) empiricaldispersion=gd3bj scf=xqc pop=npa geom=c
 heck
 ----------------------------------------------------------------------

 -------------------------------------
 CID_143931906_JID_1265_Energie_kation
 -------------------------------------
 Structure from the checkpoint file:  "JID_1265.chk"
 Charge =  1 Multiplicity = 2

 SCF Done:  E(UB3LYP) =  -517.735442854     A.U. after   28 cycles
 Normal termination of Gaussian 16 at Tue Dec  8 19:45:16 2020.
 Gaussian 16:  ES64L-G16RevA.03 25-Dec-2016

 ----------------------------------------------------------------------
 # B3LYP/6-311++G(d,p) empiricaldispersion=gd3bj scf=xqc pop=npa geom=c
 heck
 ----------------------------------------------------------------------

 ------------------------------------
 CID_143931906_JID_1265_Energie_anion
 ------------------------------------
 Structure from the checkpoint file:  "JID_1265.chk"
 Charge = -1 Multiplicity = 2

                         Standard orientation:
 ---------------------------------------------------------------------
 Center     Atomic      Atomic             Coordinates (Angstroms)
 Number     Number       Type             X           Y           Z
 ---------------------------------------------------------------------
      1          6           0        3.769564    0.174873    0.851477
      2          6           0        2.652262   -0.753364    0.386095
      3          8           0        2.078385   -0.330916   -0.849871
      4          6           0        1.088759    0.672143   -0.706590
      5          6           0       -0.277717    0.105717   -0.390201
      6          6           0       -0.587020   -1.192981   -0.506963
      7          6           0       -1.972136   -1.708172   -0.226256
      8          6           0       -2.698331   -0.789613    0.756565
      9          7           0       -2.541719    0.598763    0.335050
     10          6           0       -1.314706    1.109910   -0.017504
     11          8           0       -1.096652    2.318405   -0.065873
     12          1           0        4.548299    0.243539    0.085312
     13          1           0        4.221321   -0.203326    1.776108
     14          1           0        3.395674    1.185045    1.049908
     15          1           0        3.048499   -1.757287    0.199290
     16          1           0        1.872555   -0.844756    1.156462
     17          1           0        1.361088    1.413489    0.055918
     18          1           0        1.049271    1.215259   -1.657495
     19          1           0        0.175534   -1.886375   -0.852875
     20          1           0       -1.934188   -2.724285    0.182783
     21          1           0       -2.535752   -1.769702   -1.169684
     22          1           0       -2.288650   -0.942423    1.768206
     23          1           0       -3.766065   -1.024691    0.791654
     24          1           0       -3.173466    1.293183    0.715276
 ---------------------------------------------------------------------

 SCF Done:  E(UB3LYP) =  -518.047832624     A.U. after   33 cycles
 SCF Done:  E(UB3LYP) =  -518.047832624     a.u. after    1 cycles

 The electronic state is 2-A.
 Alpha  occ. eigenvalues --  -19.01567 -18.96160 -14.20776 -10.14047 -10.11135
 Alpha  occ. eigenvalues --  -10.10452 -10.09161 -10.06427 -10.06314 -10.05281
 Alpha  occ. eigenvalues --  -10.04995  -0.92818  -0.91138  -0.80490  -0.69329
 Alpha  occ. eigenvalues --   -0.65885  -0.63466  -0.57816  -0.52680  -0.49906
 Alpha  occ. eigenvalues --   -0.48986  -0.40831  -0.39017  -0.38453  -0.37747
 Alpha  occ. eigenvalues --   -0.34751  -0.34298  -0.33871  -0.31135  -0.30432
 Alpha  occ. eigenvalues --   -0.29381  -0.28664  -0.28074  -0.27119  -0.25244
 Alpha  occ. eigenvalues --   -0.24929  -0.23149  -0.20738  -0.15963  -0.14666
 Alpha  occ. eigenvalues --   -0.13399  -0.12827   0.04795
 Alpha virt. eigenvalues --    0.06679   0.07208   0.08433   0.09304   0.09756
 Alpha virt. eigenvalues --    0.10175   0.10430   0.11621   0.12189   0.12564
 Alpha virt. eigenvalues --    0.13147   0.13854   0.15248   0.16364   0.16714

  Beta  occ. eigenvalues --  -19.01567 -18.96078 -14.20721 -10.13965 -10.11114
  Beta  occ. eigenvalues --  -10.10456 -10.09119 -10.06409 -10.06308 -10.05112
  Beta  occ. eigenvalues --  -10.04914  -0.92810  -0.90979  -0.80384  -0.69101
  Beta  occ. eigenvalues --   -0.65818  -0.63332  -0.57714  -0.52534  -0.49661
  Beta  occ. eigenvalues --   -0.48909  -0.40707  -0.38909  -0.38393  -0.37660
  Beta  occ. eigenvalues --   -0.34619  -0.34217  -0.33697  -0.31058  -0.30360
  Beta  occ. eigenvalues --   -0.29285  -0.28381  -0.28018  -0.26908  -0.25173
  Beta  occ. eigenvalues --   -0.24766  -0.23047  -0.20692  -0.15918  -0.14129
  Beta  occ. eigenvalues --   -0.13091  -0.12464
  Beta virt. eigenvalues --    0.07056   0.08015   0.08637   0.09068   0.09663
  Beta virt. eigenvalues --    0.10236   0.10617   0.10727   0.11942   0.12514
  Beta virt. eigenvalues --    0.12791   0.13308   0.14198   0.15302   0.16264

 Mulliken charges and spin densities:
               1          2
     1  C    0.246653  -0.746264
     2  C   -0.091158  -0.059769
     3  O   -0.097410   0.015165
     4  C   -0.384855  -0.262042
     5  C    0.376690  -0.110625
     6  C    0.710773   0.148406
     7  C   -0.599097  -0.143223
     8  C    1.595086  -1.960155
     9  N   -0.370537   0.218628
    10  C   -0.880642   0.610217
    11  O   -0.406162   0.033879
    12  H    0.071493   0.069867
    13  H   -0.224277   0.349065
    14  H   -0.004949   0.127210
    15  H   -0.278475   0.427456
    16  H    0.119169   0.017824
    17  H    0.187588  -0.013752
    18  H    0.197617  -0.011046
    19  H    0.080146   0.112345
    20  H   -0.322752   0.468551
    21  H    0.069519   0.087252
    22  H   -0.055793   0.208645
    23  H   -0.908893   1.083770
    24  H   -0.029734   0.328596
 Sum of Mulliken charges =  -1.00000   1.00000

 Dipole moment (field-independent basis, Debye):
    X=              4.0256    Y=              1.0801    Z=             -2.0905  Tot=              4.6629
 Quadrupole moment (field-independent basis, Debye-Ang):
   XX=           -133.0558   YY=           -104.7078   ZZ=            -89.8753
   XY=              0.1438   XZ=              2.3643   YZ=              4.2095

 Summary of Natural Population Analysis:

                                       Natural Population
                Natural  -----------------------------------------------
    Atom  No    Charge         Core      Valence    Rydberg      Total
 -----------------------------------------------------------------------
      C    1   -0.30014      0.99966     2.29503    0.00544     3.30014
      C    2   -0.01363      0.99960     2.00057    0.01346     3.01363
      O    3   -0.30409      0.99989     3.29534    0.00886     4.30409
      C    4   -0.01623      0.99953     2.00361    0.01309     3.01623
      C    5   -0.07076      0.99942     2.06201    0.00933     3.07076
      C    6   -0.03271      0.99948     2.02342    0.00981     3.03271
      C    7   -0.21003      0.99962     2.20061    0.00979     3.21003
      C    8   -0.08068      0.99962     2.06950    0.01155     3.08068
      N    9   -0.31886      0.99968     2.80845    0.01073     3.81886
      C   10    0.34022      0.99961     1.63755    0.02261     2.65978
      O   11   -0.32651      0.99988     3.32133    0.00530     4.32651
      H   12    0.09684      0.00000     0.40222    0.00094     0.40316
      H   13    0.09926      0.00000     0.39960    0.00113     0.40074
      H   14    0.09732      0.00000     0.40174    0.00094     0.40268
      H   15    0.08665      0.00000     0.41199    0.00136     0.41335
      H   16    0.08508      0.00000     0.41337    0.00155     0.41492
      H   17    0.08976      0.00000     0.40895    0.00130     0.41024
      H   18    0.09523      0.00000     0.40372    0.00105     0.40477
      H   19    0.09934      0.00000     0.39932    0.00133     0.40066
      H   20    0.10371      0.00000     0.39516    0.00113     0.39629
      H   21    0.10422      0.00000     0.39443    0.00134     0.39578
      H   22    0.08434      0.00000     0.41399    0.00167     0.41566
      H   23    0.10067      0.00000     0.39423    0.00510     0.39933
      H   24    0.19099      0.00000     0.30627    0.00274     0.30901
 =======================================================================
   * Total *    0.00000     10.99600    30.86241    0.14159    42.00000

 Normal termination of Gaussian 16 at Tue Dec  8 19:51:45 2020.
