 Gaussian 16, Revision A.03,

 -----------------------------------------------------------
 # opt freq B3LYP/6-31G(d) empiricaldispersion=gd3bj scf=xqc
 -----------------------------------------------------------

 ------------------------------
 CID_88145939_JID_2115_neutraal
 ------------------------------
 Symbolic Z-matrix:
 Charge =  0 Multiplicity = 1

 SCF Done:  E(RB3LYP) =  -866.574398744     A.U. after   13 cycles
 SCF Done:  E(RB3LYP) =  -866.576975087     A.U. after   10 cycles
 SCF Done:  E(RB3LYP) =  -866.577183766     A.U. after   10 cycles
 SCF Done:  E(RB3LYP) =  -866.577297506     A.U. after   10 cycles
 SCF Done:  E(RB3LYP) =  -866.577363296     A.U. after    9 cycles
 SCF Done:  E(RB3LYP) =  -866.577410153     A.U. after   10 cycles
 SCF Done:  E(RB3LYP) =  -866.577446257     A.U. after   10 cycles
 SCF Done:  E(RB3LYP) =  -866.577482584     A.U. after   10 cycles
 SCF Done:  E(RB3LYP) =  -866.577495885     A.U. after    8 cycles
 SCF Done:  E(RB3LYP) =  -866.577499466     A.U. after    8 cycles
 SCF Done:  E(RB3LYP) =  -866.577500768     A.U. after    7 cycles
 SCF Done:  E(RB3LYP) =  -866.577501356     A.U. after    7 cycles
 SCF Done:  E(RB3LYP) =  -866.577501396     A.U. after    6 cycles
 Optimization completed.
    -- Stationary point found.
 Normal termination of Gaussian 16 at Wed Dec  9 16:51:10 2020.

 --------------------------------------------------------------------
 #N Geom=AllCheck Guess=TCheck SCRF=Check GenChk RB3LYP/6-31G(d) Freq
 --------------------------------------------------------------------

 Structure from the checkpoint file:  "JID_2115.chk"
 ------------------------------
 CID_88145939_JID_2115_neutraal
 ------------------------------
 Charge =  0 Multiplicity = 1

 SCF Done:  E(RB3LYP) =  -866.577501396     A.U. after    1 cycles

  Exact polarizability: 135.563  -1.161 121.800  -1.332  -5.147 103.727
 Approx polarizability: 168.149   0.110 173.068  -2.696  -9.240 166.219

                      1                      2                      3
                      A                      A                      A
 Frequencies --     41.3088                70.4426                95.6792
 Red. masses --      4.2103                 3.4726                 3.4387
 Frc consts  --      0.0042                 0.0102                 0.0185
 IR Inten    --      0.8327                 0.1502                 1.5932

                      4                      5                      6
                      A                      A                      A
 Frequencies --    141.5264               157.8043               175.2894
 Red. masses --      2.1779                 1.5690                 2.0032
 Frc consts  --      0.0257                 0.0230                 0.0363
 IR Inten    --      1.3500                13.5010                 3.7154

                      7                      8                      9
                      A                      A                      A
 Frequencies --    197.9731               210.3682               231.8906
 Red. masses --      1.7904                 1.6810                 1.5553
 Frc consts  --      0.0413                 0.0438                 0.0493
 IR Inten    --     22.1402                46.1983                 8.0835

                     10                     11                     12
                      A                      A                      A
 Frequencies --    271.6388               290.1276               296.3069
 Red. masses --      1.7972                 1.6244                 1.7921
 Frc consts  --      0.0781                 0.0806                 0.0927
 IR Inten    --      3.3064                23.1313                18.3535

                     13                     14                     15
                      A                      A                      A
 Frequencies --    318.4834               366.2673               378.0176
 Red. masses --      3.0624                 2.4549                 2.0923
 Frc consts  --      0.1830                 0.1940                 0.1762
 IR Inten    --     22.0271                 3.1786                 0.7224

                     16                     17                     18
                      A                      A                      A
 Frequencies --    385.3262               401.6814               444.5205
 Red. masses --      2.3590                 2.0348                 2.6908
 Frc consts  --      0.2064                 0.1934                 0.3133
 IR Inten    --      6.1896                 1.6118                 0.0299

                     19                     20                     21
                      A                      A                      A
 Frequencies --    499.2341               524.0211               613.2272
 Red. masses --      2.5783                 2.5751                 3.3794
 Frc consts  --      0.3786                 0.4166                 0.7487
 IR Inten    --      0.3846                 2.5884                 7.7580

                     22                     23                     24
                      A                      A                      A
 Frequencies --    705.2070               709.6827               767.1461
 Red. masses --      2.8558                 2.0237                 2.9415
 Frc consts  --      0.8368                 0.6005                 1.0200
 IR Inten    --      1.9420                 4.9280                 3.2788

                     25                     26                     27
                      A                      A                      A
 Frequencies --    768.3012               820.4772               856.2756
 Red. masses --      1.6372                 2.0794                 2.3264
 Frc consts  --      0.5694                 0.8247                 1.0050
 IR Inten    --      4.0434                 2.7577                 2.7660

                     28                     29                     30
                      A                      A                      A
 Frequencies --    887.8794               905.7624               950.0569
 Red. masses --      1.9723                 1.9207                 2.1208
 Frc consts  --      0.9161                 0.9284                 1.1278
 IR Inten    --      2.2505                 5.3273                 6.1825

                     31                     32                     33
                      A                      A                      A
 Frequencies --    967.7551               984.4089               988.4262
 Red. masses --      1.9028                 1.6005                 1.4632
 Frc consts  --      1.0500                 0.9138                 0.8422
 IR Inten    --      6.4176                 4.6837                 1.1514

                     34                     35                     36
                      A                      A                      A
 Frequencies --    998.2404              1022.7151              1048.9439
 Red. masses --      2.0411                 1.6598                 2.0280
 Frc consts  --      1.1983                 1.0228                 1.3147
 IR Inten    --     13.7397                 0.9936                12.7718

                     37                     38                     39
                      A                      A                      A
 Frequencies --   1077.5710              1091.9595              1103.8227
 Red. masses --      2.2451                 1.8199                 1.7519
 Frc consts  --      1.5359                 1.2785                 1.2577
 IR Inten    --      2.0215                10.5183                 7.4221

                     40                     41                     42
                      A                      A                      A
 Frequencies --   1118.9423              1140.4571              1146.2564
 Red. masses --      1.9209                 1.7850                 1.3834
 Frc consts  --      1.4170                 1.3678                 1.0709
 IR Inten    --      3.9031                16.3389                23.8578

                     43                     44                     45
                      A                      A                      A
 Frequencies --   1173.2290              1215.6751              1223.7829
 Red. masses --      1.6436                 1.2147                 1.5826
 Frc consts  --      1.3330                 1.0577                 1.3965
 IR Inten    --     19.2477                 5.1507                14.8232

                     46                     47                     48
                      A                      A                      A
 Frequencies --   1245.8568              1264.5580              1291.4584
 Red. masses --      1.5312                 1.4477                 1.1755
 Frc consts  --      1.4003                 1.3640                 1.1551
 IR Inten    --      4.6239                13.0002                 1.6675

                     49                     50                     51
                      A                      A                      A
 Frequencies --   1311.7959              1330.2097              1340.8545
 Red. masses --      1.1955                 1.2562                 1.4616
 Frc consts  --      1.2121                 1.3096                 1.5482
 IR Inten    --      6.4611                 5.9867                 0.7046

                     52                     53                     54
                      A                      A                      A
 Frequencies --   1357.6558              1375.0688              1376.1185
 Red. masses --      1.3193                 1.5422                 1.4124
 Frc consts  --      1.4328                 1.7181                 1.5759
 IR Inten    --      5.5499                 0.9846                 1.4444

                     55                     56                     57
                      A                      A                      A
 Frequencies --   1393.5271              1396.1453              1401.0429
 Red. masses --      1.4405                 1.4499                 1.4344
 Frc consts  --      1.6481                 1.6651                 1.6589
 IR Inten    --      1.8760                 1.0445                 2.5632

                     58                     59                     60
                      A                      A                      A
 Frequencies --   1411.8534              1426.5734              1437.6958
 Red. masses --      1.3377                 1.5252                 1.2284
 Frc consts  --      1.5710                 1.8288                 1.4960
 IR Inten    --      4.4102                 0.7716                 4.6029

                     61                     62                     63
                      A                      A                      A
 Frequencies --   1445.2550              1454.0812              1502.1847
 Red. masses --      1.2364                 1.2022                 1.0912
 Frc consts  --      1.5216                 1.4976                 1.4508
 IR Inten    --      6.4650                39.7178                 3.3726

                     64                     65                     66
                      A                      A                      A
 Frequencies --   1508.1188              1514.4565              1524.9324
 Red. masses --      1.0771                 1.0705                 1.0523
 Frc consts  --      1.4433                 1.4466                 1.4418
 IR Inten    --      8.9848                 0.3124                 4.1430

                     67                     68                     69
                      A                      A                      A
 Frequencies --   1526.3674              1540.0401              1541.6587
 Red. masses --      1.0742                 1.0796                 1.0558
 Frc consts  --      1.4745                 1.5086                 1.4785
 IR Inten    --      5.1607                 2.7780                 9.5825

                     70                     71                     72
                      A                      A                      A
 Frequencies --   1546.9435              2696.9008              2992.2298
 Red. masses --      1.0451                 1.0380                 1.0815
 Frc consts  --      1.4735                 4.4482                 5.7051
 IR Inten    --     12.0059                16.0637                 9.7010

                     73                     74                     75
                      A                      A                      A
 Frequencies --   3018.2956              3024.0054              3028.3581
 Red. masses --      1.0733                 1.0723                 1.0632
 Frc consts  --      5.7609                 5.7774                 5.7450
 IR Inten    --      8.0948                18.1072                15.3539

                     76                     77                     78
                      A                      A                      A
 Frequencies --   3040.4384              3042.4547              3047.3708
 Red. masses --      1.0718                 1.0418                 1.0389
 Frc consts  --      5.8379                 5.6816                 5.6841
 IR Inten    --     83.8939                21.0389                15.4867

                     79                     80                     81
                      A                      A                      A
 Frequencies --   3070.8211              3071.5404              3077.9619
 Red. masses --      1.0766                 1.0927                 1.0749
 Frc consts  --      5.9816                 6.0739                 5.9998
 IR Inten    --     17.9715                29.1318                16.7458

                     82                     83                     84
                      A                      A                      A
 Frequencies --   3084.0656              3087.2711              3093.4003
 Red. masses --      1.0979                 1.0921                 1.0867
 Frc consts  --      6.1528                 6.1328                 6.1269
 IR Inten    --     26.1363                61.8013                54.5249

                     85                     86                     87
                      A                      A                      A
 Frequencies --   3102.4747              3107.1343              3119.3982
 Red. masses --      1.0993                 1.1001                 1.1047
 Frc consts  --      6.2344                 6.2574                 6.3334
 IR Inten    --     60.0888                27.1817                23.6554

                     88                     89                     90
                      A                      A                      A
 Frequencies --   3121.3448              3143.8398              3771.5699
 Red. masses --      1.1023                 1.0982                 1.0652
 Frc consts  --      6.3277                 6.3953                 8.9276
 IR Inten    --     27.5890                22.9330                11.6321

 - Thermochemistry -
 -------------------
 Temperature   298.150 Kelvin.  Pressure   1.00000 Atm.
 Atom     1 has atomic number  6 and mass  12.00000

 Molecular mass:   188.12349 amu.
 Principal axes and moments of inertia in atomic units:
                           1         2         3
     Eigenvalues --  1480.307153729.526354444.58549
           X            0.99933  -0.03533   0.00958
           Y            0.03551   0.99919  -0.01913
           Z           -0.00890   0.01946   0.99977
 This molecule is an asymmetric top.
 Rotational symmetry number  1.
 Warning -- assumption of classical behavior for rotation
           may cause significant error
 Rotational temperatures (Kelvin)      0.05851     0.02322     0.01949
 Rotational constants (GHZ):           1.21917     0.48391     0.40605
 Zero-point vibrational energy     759565.5 (Joules/Mol)
                                  181.54051 (Kcal/Mol)
 Warning -- explicit consideration of  21 degrees of freedom as
           vibrations may cause significant error
 Vibrational temperatures:     59.43   101.35   137.66   203.62   227.05
          (Kelvin)            252.20   284.84   302.67   333.64   390.83
                              417.43   426.32   458.23   526.98   543.88
                              554.40   577.93   639.57   718.29   753.95
                              882.30  1014.64  1021.08  1103.75  1105.41
                             1180.48  1231.99  1277.46  1303.19  1366.92
                             1392.38  1416.34  1422.12  1436.25  1471.46
                             1509.20  1550.38  1571.09  1588.15  1609.91
                             1640.86  1649.21  1688.01  1749.09  1760.75
                             1792.51  1819.42  1858.12  1887.38  1913.88
                             1929.19  1953.36  1978.42  1979.93  2004.97
                             2008.74  2015.79  2031.34  2052.52  2068.52
                             2079.40  2092.10  2161.31  2169.85  2178.97
                             2194.04  2196.10  2215.77  2218.10  2225.71
                             3880.24  4305.15  4342.65  4350.87  4357.13
                             4374.51  4377.41  4384.49  4418.23  4419.26
                             4428.50  4437.28  4441.89  4450.71  4463.77
                             4470.47  4488.12  4490.92  4523.28  5426.45

 Zero-point correction=                           0.289303 (Hartree/Particle)
 Thermal correction to Energy=                    0.303189
 Thermal correction to Enthalpy=                  0.304133
 Thermal correction to Gibbs Free Energy=         0.249216
 Sum of electronic and zero-point Energies=           -866.288198
 Sum of electronic and thermal Energies=              -866.274312
 Sum of electronic and thermal Enthalpies=            -866.273368
 Sum of electronic and thermal Free Energies=         -866.328285

                     E (Thermal)             CV                S
                      KCal/Mol        Cal/Mol-Kelvin    Cal/Mol-Kelvin
 Total                  190.254             53.333            115.582
 Electronic               0.000              0.000              0.000
 Translational            0.889              2.981             41.602
 Rotational               0.889              2.981             31.573
 Vibrational            188.476             47.371             42.407
 Vibration     1          0.594              1.981              5.195
 Vibration     2          0.598              1.968              4.141
 Vibration     3          0.603              1.952              3.540
 Vibration     4          0.615              1.912              2.783
 Vibration     5          0.621              1.894              2.576
 Vibration     6          0.627              1.873              2.378
 Vibration     7          0.637              1.843              2.152
 Vibration     8          0.643              1.825              2.040
 Vibration     9          0.653              1.792              1.864
 Vibration    10          0.675              1.726              1.586
 Vibration    11          0.686              1.692              1.473
 Vibration    12          0.690              1.681              1.438
 Vibration    13          0.705              1.638              1.318
 Vibration    14          0.739              1.542              1.095
 Vibration    15          0.748              1.517              1.047
 Vibration    16          0.754              1.502              1.018
 Vibration    17          0.767              1.466              0.956
 Vibration    18          0.804              1.373              0.813
 Vibration    19          0.855              1.252              0.660
 Vibration    20          0.879              1.197              0.601
 Vibration    21          0.973              1.004              0.427

 Optimization completed.
    -- Stationary point found.
 Normal termination of Gaussian 16 at Wed Dec  9 16:59:49 2020.

 ----------------------------------------------------------------------
 # B3LYP/6-311++G(d,p) empiricaldispersion=gd3bj scf=xqc pop=npa geom=c
 heck
 ----------------------------------------------------------------------

 --------------------------------------
 CID_88145939_JID_2115_Energie_neutraal
 --------------------------------------
 Structure from the checkpoint file:  "JID_2115.chk"
 Charge =  0 Multiplicity = 1

 SCF Done:  E(RB3LYP) =  -866.747091775     A.U. after   15 cycles
 Normal termination of Gaussian 16 at Wed Dec  9 17:03:29 2020.

 ----------------------------------------------------------------------
 # B3LYP/6-311++G(d,p) empiricaldispersion=gd3bj scf=xqc pop=npa geom=c
 heck
 ----------------------------------------------------------------------

 ------------------------------------
 CID_88145939_JID_2115_Energie_kation
 ------------------------------------
 Structure from the checkpoint file:  "JID_2115.chk"
 Charge =  1 Multiplicity = 2

 SCF Done:  E(UB3LYP) =  -866.430553940     A.U. after   23 cycles
 Normal termination of Gaussian 16 at Wed Dec  9 17:11:23 2020.
 Gaussian 16:  ES64L-G16RevA.03 25-Dec-2016

 ----------------------------------------------------------------------
 # B3LYP/6-311++G(d,p) empiricaldispersion=gd3bj scf=xqc pop=npa geom=c
 heck
 ----------------------------------------------------------------------

 -----------------------------------
 CID_88145939_JID_2115_Energie_anion
 -----------------------------------
 Structure from the checkpoint file:  "JID_2115.chk"
 Charge = -1 Multiplicity = 2

                         Standard orientation:
 ---------------------------------------------------------------------
 Center     Atomic      Atomic             Coordinates (Angstroms)
 Number     Number       Type             X           Y           Z
 ---------------------------------------------------------------------
      1          6           0        3.140596   -1.088983    1.036504
      2          6           0        2.781174   -0.674284   -0.399764
      3          6           0        1.606512   -1.494157   -0.962554
      4          6           0        0.256105   -1.077873   -0.363662
      5          6           0       -0.044831    0.418802   -0.573232
      6          6           0        1.114095    1.287269   -0.030717
      7          6           0        2.478696    0.827736   -0.565844
      8          8           0        1.092182    1.392021    1.396660
      9          6           0       -1.414246    0.846090    0.007681
     10          6           0       -1.689029    2.342273   -0.209155
     11          6           0       -2.575942    0.012162   -0.586874
     12         16           0       -3.267890   -1.314643    0.490692
     13          1           0        3.555874   -2.103255    1.047597
     14          1           0        2.276017   -1.102599    1.710694
     15          1           0        3.884228   -0.412692    1.471111
     16          1           0        3.666430   -0.890303   -1.013166
     17          1           0        1.562653   -1.350746   -2.051286
     18          1           0        1.776766   -2.565256   -0.794721
     19          1           0        0.229257   -1.312345    0.710737
     20          1           0       -0.532540   -1.684726   -0.820856
     21          1           0       -0.074431    0.593431   -1.661376
     22          1           0        0.964045    2.317506   -0.365038
     23          1           0        3.257295    1.433228   -0.087118
     24          1           0        2.506438    1.063399   -1.639334
     25          1           0        1.149882    0.498784    1.765736
     26          1           0       -1.386603    0.675105    1.089063
     27          1           0       -1.658698    2.604513   -1.274958
     28          1           0       -2.681614    2.605534    0.172428
     29          1           0       -0.960491    2.961776    0.319517
     30          1           0       -3.447403    0.650101   -0.761156
     31          1           0       -2.307239   -0.417200   -1.557262
     32          1           0       -2.149860   -2.060352    0.600738
 ---------------------------------------------------------------------

 SCF Done:  E(UB3LYP) =  -866.735527561     A.U. after   27 cycles

 The electronic state is 2-A.
 Alpha  occ. eigenvalues --  -88.74646 -19.01994 -10.11570 -10.10461 -10.08090
 Alpha  occ. eigenvalues --  -10.07362 -10.06987 -10.06697 -10.06376 -10.05964
 Alpha  occ. eigenvalues --  -10.05941 -10.05916  -7.83327  -5.79704  -5.79352
 Alpha  occ. eigenvalues --   -5.78717  -0.92282  -0.74156  -0.71377  -0.66591
 Alpha  occ. eigenvalues --   -0.64295  -0.63159  -0.58175  -0.55547  -0.51668
 Alpha  occ. eigenvalues --   -0.51196  -0.46974  -0.44173  -0.41411  -0.36795
 Alpha  occ. eigenvalues --   -0.36672  -0.35070  -0.34187  -0.33334  -0.32887
 Alpha  occ. eigenvalues --   -0.32704  -0.30630  -0.29767  -0.29172  -0.28237
 Alpha  occ. eigenvalues --   -0.26967  -0.26466  -0.25933  -0.24507  -0.23971
 Alpha  occ. eigenvalues --   -0.22906  -0.22647  -0.21889  -0.21016  -0.19120
 Alpha  occ. eigenvalues --   -0.16761  -0.14504   0.04328
 Alpha virt. eigenvalues --    0.06536   0.07217   0.07822   0.08774   0.09096
 Alpha virt. eigenvalues --    0.09297   0.09904   0.10175   0.10797   0.11524
 Alpha virt. eigenvalues --    0.11812   0.12105   0.12810   0.12957   0.13679

  Beta  occ. eigenvalues --  -88.74638 -19.01980 -10.11563 -10.10436 -10.08084
  Beta  occ. eigenvalues --  -10.07348 -10.06974 -10.06677 -10.06356 -10.05936
  Beta  occ. eigenvalues --  -10.05904 -10.05896  -7.83319  -5.79680  -5.79348
  Beta  occ. eigenvalues --   -5.78711  -0.92247  -0.74122  -0.71340  -0.66549
  Beta  occ. eigenvalues --   -0.64253  -0.63117  -0.58113  -0.55492  -0.51613
  Beta  occ. eigenvalues --   -0.51141  -0.46924  -0.44113  -0.41354  -0.36748
  Beta  occ. eigenvalues --   -0.36630  -0.35029  -0.34153  -0.33289  -0.32844
  Beta  occ. eigenvalues --   -0.32667  -0.30586  -0.29733  -0.29130  -0.28198
  Beta  occ. eigenvalues --   -0.26932  -0.26436  -0.25896  -0.24463  -0.23932
  Beta  occ. eigenvalues --   -0.22870  -0.22599  -0.21840  -0.20982  -0.19084
  Beta  occ. eigenvalues --   -0.16733  -0.14481
  Beta virt. eigenvalues --    0.06566   0.07238   0.07776   0.08399   0.09212
  Beta virt. eigenvalues --    0.09555   0.09762   0.10259   0.10630   0.11124
  Beta virt. eigenvalues --    0.12061   0.12103   0.12398   0.13089   0.13258

 Mulliken charges and spin densities:
               1          2
     1  C    1.247204  -1.937647
     2  C   -1.980250   2.410375
     3  C    1.584066  -2.384719
     4  C   -0.699325   0.389703
     5  C    0.437824  -0.462688
     6  C   -0.324413   0.022924
     7  C    1.590178  -2.324245
     8  O   -0.152385   0.034753
     9  C   -0.770870   1.303021
    10  C    0.107183  -0.821670
    11  C    0.157773  -0.560007
    12  S   -0.139528  -0.053248
    13  H   -0.294467   0.451132
    14  H   -0.202614   0.288497
    15  H   -0.088602   0.241497
    16  H   -0.522913   0.747718
    17  H   -0.322940   0.475246
    18  H   -0.412833   0.592163
    19  H    0.110792   0.065709
    20  H    0.225323  -0.096009
    21  H   -0.077364   0.266259
    22  H    0.187078  -0.008987
    23  H   -0.048218   0.245577
    24  H   -0.342460   0.491393
    25  H    0.196216   0.031764
    26  H    0.111881   0.032805
    27  H   -0.174287   0.336362
    28  H   -0.013660   0.140624
    29  H   -0.000857   0.183773
    30  H   -0.045697   0.278493
    31  H   -0.253407   0.479298
    32  H   -0.088429   0.140135
 Sum of Mulliken charges =  -1.00000   1.00000

 Dipole moment (field-independent basis, Debye):
    X=             -3.8408    Y=              1.5600    Z=              2.8706  Tot=              5.0424
 Quadrupole moment (field-independent basis, Debye-Ang):
   XX=           -155.1114   YY=           -129.6995   ZZ=           -125.2889
   XY=              5.8639   XZ=              2.2847   YZ=             -2.5220

 Summary of Natural Population Analysis:

                                       Natural Population
                Natural  -----------------------------------------------
    Atom  No    Charge         Core      Valence    Rydberg      Total
 -----------------------------------------------------------------------
      C    1   -0.28341      0.99964     2.27683    0.00693     3.28341
      C    2   -0.11472      0.99960     2.10354    0.01158     3.11472
      C    3   -0.18625      0.99961     2.17646    0.01018     3.18625
      C    4   -0.19766      0.99961     2.18735    0.01070     3.19766
      C    5   -0.11559      0.99955     2.10405    0.01200     3.11559
      C    6    0.06528      0.99952     1.92017    0.01502     2.93472
      C    7   -0.19746      0.99959     2.18764    0.01023     3.19746
      O    8   -0.37523      0.99990     3.36939    0.00594     4.37523
      C    9   -0.12077      0.99957     2.10915    0.01206     3.12077
      C   10   -0.28418      0.99965     2.27861    0.00593     3.28418
      C   11   -0.24069      0.99956     2.23008    0.01106     3.24069
      S   12   -0.02948      4.99966     3.01516    0.01466     8.02948
      H   13    0.10247      0.00000     0.39625    0.00127     0.39753
      H   14    0.08518      0.00000     0.41355    0.00127     0.41482
      H   15    0.10086      0.00000     0.39814    0.00100     0.39914
      H   16    0.10059      0.00000     0.39689    0.00253     0.39941
      H   17    0.10012      0.00000     0.39783    0.00205     0.39988
      H   18    0.10086      0.00000     0.39761    0.00153     0.39914
      H   19    0.08990      0.00000     0.40834    0.00177     0.41010
      H   20    0.10302      0.00000     0.39547    0.00152     0.39698
      H   21    0.10167      0.00000     0.39634    0.00200     0.39833
      H   22    0.08934      0.00000     0.40880    0.00186     0.41066
      H   23    0.10250      0.00000     0.39643    0.00107     0.39750
      H   24    0.10401      0.00000     0.39437    0.00162     0.39599
      H   25    0.22701      0.00000     0.26977    0.00322     0.27299
      H   26    0.10280      0.00000     0.39524    0.00196     0.39720
      H   27    0.09754      0.00000     0.40150    0.00096     0.40246
      H   28    0.09721      0.00000     0.40199    0.00081     0.40279
      H   29    0.10539      0.00000     0.39375    0.00085     0.39461
      H   30    0.10481      0.00000     0.39413    0.00106     0.39519
      H   31    0.10453      0.00000     0.39387    0.00160     0.39547
      H   32    0.06037      0.00000     0.43683    0.00280     0.43963
 =======================================================================
   * Total *    0.00000     15.99544    35.84550    0.15905    52.00000

 Normal termination of Gaussian 16 at Wed Dec  9 17:20:28 2020.
