 Gaussian 16, Revision A.03,

 -----------------------------------------------------------
 # opt freq B3LYP/6-31G(d) empiricaldispersion=gd3bj scf=xqc
 -----------------------------------------------------------

 -------------------------------
 CID_131218005_JID_1913_neutraal
 -------------------------------
 Symbolic Z-matrix:
 Charge =  0 Multiplicity = 1

 SCF Done:  E(RB3LYP) =  -556.212542159     A.U. after   14 cycles
 SCF Done:  E(RB3LYP) =  -556.216308216     A.U. after   11 cycles
 SCF Done:  E(RB3LYP) =  -556.216740896     A.U. after   12 cycles
 SCF Done:  E(RB3LYP) =  -556.217070122     A.U. after   12 cycles
 SCF Done:  E(RB3LYP) =  -556.217294462     A.U. after   10 cycles
 SCF Done:  E(RB3LYP) =  -556.217420805     A.U. after   12 cycles
 SCF Done:  E(RB3LYP) =  -556.217611672     A.U. after   11 cycles
 SCF Done:  E(RB3LYP) =  -556.217557132     A.U. after   11 cycles
 SCF Done:  E(RB3LYP) =  -556.217841603     A.U. after   12 cycles
 SCF Done:  E(RB3LYP) =  -556.218214755     A.U. after   13 cycles
 SCF Done:  E(RB3LYP) =  -556.222136665     A.U. after   10 cycles
 SCF Done:  E(RB3LYP) =  -556.222140769     A.U. after    8 cycles
 SCF Done:  E(RB3LYP) =  -556.222142822     A.U. after    8 cycles
 SCF Done:  E(RB3LYP) =  -556.222144373     A.U. after    9 cycles
 SCF Done:  E(RB3LYP) =  -556.222145225     A.U. after    8 cycles
 SCF Done:  E(RB3LYP) =  -556.222145506     A.U. after    8 cycles
 Optimization completed.
    -- Stationary point found.
 Normal termination of Gaussian 16 at Mon Dec 14 13:11:44 2020.

 --------------------------------------------------------------------
 #N Geom=AllCheck Guess=TCheck SCRF=Check GenChk RB3LYP/6-31G(d) Freq
 --------------------------------------------------------------------

 Structure from the checkpoint file:  "JID_1913.chk"
 -------------------------------
 CID_131218005_JID_1913_neutraal
 -------------------------------
 Charge =  0 Multiplicity = 1

 SCF Done:  E(RB3LYP) =  -556.222145506     A.U. after    1 cycles

  Exact polarizability: 108.666   4.154  90.362  -0.520  -1.363  72.286
 Approx polarizability: 127.460   8.344 134.532  -4.159  -6.122 108.894

 ******    1 imaginary frequencies (negative Signs) ******

                      1                      2                      3
                      A                      A                      A
 Frequencies --    -29.3023                42.3391                58.3943
 Red. masses --      2.4141                 5.9619                 2.6635
 Frc consts  --      0.0012                 0.0063                 0.0054
 IR Inten    --      0.1612                 1.6060                 1.1464

                      4                      5                      6
                      A                      A                      A
 Frequencies --     92.7200               107.6961               138.9858
 Red. masses --      2.1103                 3.2824                 2.4074
 Frc consts  --      0.0107                 0.0224                 0.0274
 IR Inten    --      1.9925                 0.8900                 1.3021

                      7                      8                      9
                      A                      A                      A
 Frequencies --    200.6589               225.5910               248.3572
 Red. masses --      1.4079                 2.2396                 2.6411
 Frc consts  --      0.0334                 0.0672                 0.0960
 IR Inten    --      1.1258                 1.0865                 1.5991

                     10                     11                     12
                      A                      A                      A
 Frequencies --    261.4341               269.3638               293.8645
 Red. masses --      1.6153                 1.4958                 4.6978
 Frc consts  --      0.0650                 0.0639                 0.2390
 IR Inten    --      4.7530                11.9484                 4.9276

                     13                     14                     15
                      A                      A                      A
 Frequencies --    314.1354               350.2828               356.9383
 Red. masses --      2.1860                 2.6850                 1.1878
 Frc consts  --      0.1271                 0.1941                 0.0892
 IR Inten    --      1.4942                10.4989               100.5572

                     16                     17                     18
                      A                      A                      A
 Frequencies --    402.4897               455.5061               527.6038
 Red. masses --      3.8524                 3.3523                 3.2387
 Frc consts  --      0.3677                 0.4098                 0.5312
 IR Inten    --     28.0498                 7.3822                27.8312

                     19                     20                     21
                      A                      A                      A
 Frequencies --    579.5460               624.5799               659.2477
 Red. masses --      2.6487                 1.7168                 2.5927
 Frc consts  --      0.5242                 0.3946                 0.6639
 IR Inten    --     13.0726                72.3819                45.9264

                     22                     23                     24
                      A                      A                      A
 Frequencies --    735.6534               798.4770               835.3613
 Red. masses --      3.7248                 1.1900                 2.8548
 Frc consts  --      1.1877                 0.4470                 1.1737
 IR Inten    --     16.9107                 7.0775                 1.6616

                     25                     26                     27
                      A                      A                      A
 Frequencies --    880.5753               923.1062               971.7321
 Red. masses --      3.9418                 2.2693                 2.2043
 Frc consts  --      1.8009                 1.1393                 1.2263
 IR Inten    --     33.6990                28.6306                 1.3196

                     28                     29                     30
                      A                      A                      A
 Frequencies --    995.4879              1051.5253              1067.9509
 Red. masses --      2.2586                 2.1085                 2.4815
 Frc consts  --      1.3188                 1.3736                 1.6675
 IR Inten    --     16.0675                32.5166                17.4364

                     31                     32                     33
                      A                      A                      A
 Frequencies --   1111.7213              1137.9485              1151.9849
 Red. masses --      1.9734                 2.4054                 2.2208
 Frc consts  --      1.4370                 1.8352                 1.7364
 IR Inten    --     47.6664                37.4413                17.4530

                     34                     35                     36
                      A                      A                      A
 Frequencies --   1191.5901              1195.6898              1197.9948
 Red. masses --      1.8183                 1.6151                 2.5113
 Frc consts  --      1.5212                 1.3604                 2.1235
 IR Inten    --     60.4387                43.8608                28.7610

                     37                     38                     39
                      A                      A                      A
 Frequencies --   1235.8443              1259.8571              1300.4292
 Red. masses --      1.4523                 1.3949                 1.5413
 Frc consts  --      1.3068                 1.3044                 1.5358
 IR Inten    --     18.9167                36.8801                46.6856

                     40                     41                     42
                      A                      A                      A
 Frequencies --   1320.1067              1376.8312              1383.2119
 Red. masses --      1.1841                 1.4175                 1.3441
 Frc consts  --      1.2158                 1.5832                 1.5151
 IR Inten    --     16.8220                79.6579                 2.9911

                     43                     44                     45
                      A                      A                      A
 Frequencies --   1402.6739              1418.7168              1431.3227
 Red. masses --      1.2713                 1.4166                 1.4518
 Frc consts  --      1.4737                 1.6799                 1.7524
 IR Inten    --      0.8097                41.6849                26.9289

                     46                     47                     48
                      A                      A                      A
 Frequencies --   1443.3869              1448.2007              1502.9834
 Red. masses --      1.2648                 1.3789                 1.1383
 Frc consts  --      1.5525                 1.7039                 1.5151
 IR Inten    --      5.6074                51.6735                 0.0812

                     49                     50                     51
                      A                      A                      A
 Frequencies --   1505.2254              1517.6925              1521.2952
 Red. masses --      1.8573                 1.0509                 1.0480
 Frc consts  --      2.4793                 1.4262                 1.4290
 IR Inten    --     67.6005                 2.0917                 4.5743

                     52                     53                     54
                      A                      A                      A
 Frequencies --   1526.8675              1531.5643              1542.0811
 Red. masses --      1.1006                 1.0511                 1.0881
 Frc consts  --      1.5118                 1.4527                 1.5245
 IR Inten    --      4.4155                 5.8578                 4.9714

                     55                     56                     57
                      A                      A                      A
 Frequencies --   1544.3635              1548.9874              1767.8079
 Red. masses --      1.0590                 1.0509                 7.8557
 Frc consts  --      1.4881                 1.4856                14.4646
 IR Inten    --      1.5165                 9.8591               348.9272

                     58                     59                     60
                      A                      A                      A
 Frequencies --   3021.8292              3036.3820              3050.7676
 Red. masses --      1.0399                 1.0753                 1.0370
 Frc consts  --      5.5945                 5.8413                 5.6863
 IR Inten    --     49.7072                41.2536                23.9464

                     61                     62                     63
                      A                      A                      A
 Frequencies --   3060.3409              3081.6779              3088.4714
 Red. masses --      1.0380                 1.0843                 1.0956
 Frc consts  --      5.7280                 6.0669                 6.1575
 IR Inten    --     21.8160                11.4119                47.1704

                     64                     65                     66
                      A                      A                      A
 Frequencies --   3107.2458              3113.3870              3128.8152
 Red. masses --      1.0864                 1.0995                 1.0980
 Frc consts  --      6.1799                 6.2792                 6.3329
 IR Inten    --      6.4074                20.1164                24.0924

                     67                     68                     69
                      A                      A                      A
 Frequencies --   3133.6211              3134.7105              3153.0276
 Red. masses --      1.1029                 1.1032                 1.1026
 Frc consts  --      6.3809                 6.3870                 6.4585
 IR Inten    --     29.2179                40.6929                 9.1005

                     70                     71                     72
                      A                      A                      A
 Frequencies --   3163.9634              3573.6991              3738.5539
 Red. masses --      1.0907                 1.0752                 1.0660
 Frc consts  --      6.4332                 8.0908                 8.7783
 IR Inten    --     16.8373                14.8461                18.2152

 - Thermochemistry -
 -------------------
 Temperature   298.150 Kelvin.  Pressure   1.00000 Atm.
 Atom     1 has atomic number  6 and mass  12.00000

 Molecular mass:   161.10519 amu.
 Principal axes and moments of inertia in atomic units:
                           1         2         3
     Eigenvalues --   975.404552995.254773487.57422
           X            0.99979   0.01589   0.01331
           Y           -0.01618   0.99962   0.02228
           Z           -0.01295  -0.02249   0.99966
 This molecule is an asymmetric top.
 Rotational symmetry number  1.
 Warning -- assumption of classical behavior for rotation
           may cause significant error
 Rotational temperatures (Kelvin)      0.08880     0.02892     0.02484
 Rotational constants (GHZ):           1.85025     0.60253     0.51748
    1 imaginary frequencies ignored.
 Zero-point vibrational energy     595575.7 (Joules/Mol)
                                  142.34600 (Kcal/Mol)
 Warning -- explicit consideration of  18 degrees of freedom as
           vibrations may cause significant error
 Vibrational temperatures:     60.92    84.02   133.40   154.95   199.97
          (Kelvin)            288.70   324.58   357.33   376.15   387.55
                              422.81   451.97   503.98   513.55   579.09
                              655.37   759.10   833.84   898.63   948.51
                             1058.44  1148.83  1201.90  1266.95  1328.14
                             1398.11  1432.29  1512.91  1536.54  1599.52
                             1637.25  1657.45  1714.43  1720.33  1723.65
                             1778.10  1812.65  1871.03  1899.34  1980.95
                             1990.13  2018.13  2041.22  2059.35  2076.71
                             2083.64  2162.46  2165.68  2183.62  2188.80
                             2196.82  2203.58  2218.71  2221.99  2228.65
                             2543.48  4347.74  4368.68  4389.37  4403.15
                             4433.85  4443.62  4470.63  4479.47  4501.67
                             4508.58  4510.15  4536.50  4552.24  5141.76
                             5378.95

 Zero-point correction=                           0.226843 (Hartree/Particle)
 Thermal correction to Energy=                    0.239488
 Thermal correction to Enthalpy=                  0.240432
 Thermal correction to Gibbs Free Energy=         0.187768
 Sum of electronic and zero-point Energies=           -555.995303
 Sum of electronic and thermal Energies=              -555.982657
 Sum of electronic and thermal Enthalpies=            -555.981713
 Sum of electronic and thermal Free Energies=         -556.034378

                     E (Thermal)             CV                S
                      KCal/Mol        Cal/Mol-Kelvin    Cal/Mol-Kelvin
 Total                  150.281             45.844            110.842
 Electronic               0.000              0.000              0.000
 Translational            0.889              2.981             41.140
 Rotational               0.889              2.981             30.700
 Vibrational            148.504             39.882             39.002
 Vibration     1          0.595              1.980              5.147
 Vibration     2          0.596              1.974              4.511
 Vibration     3          0.602              1.954              3.602
 Vibration     4          0.606              1.943              3.310
 Vibration     5          0.615              1.914              2.818
 Vibration     6          0.638              1.839              2.127
 Vibration     7          0.650              1.802              1.914
 Vibration     8          0.662              1.765              1.742
 Vibration     9          0.669              1.743              1.652
 Vibration    10          0.674              1.730              1.600
 Vibration    11          0.689              1.685              1.452
 Vibration    12          0.702              1.647              1.340
 Vibration    13          0.727              1.575              1.165
 Vibration    14          0.732              1.561              1.135
 Vibration    15          0.768              1.465              0.954
 Vibration    16          0.814              1.349              0.779
 Vibration    17          0.883              1.189              0.593
 Vibration    18          0.936              1.076              0.486

                           ! Non-Optimized Parameters !
 Normal termination of Gaussian 16 at Mon Dec 14 13:16:46 2020.

 ----------------------------------------------------------------------
 # B3LYP/6-311++G(d,p) empiricaldispersion=gd3bj scf=xqc pop=npa geom=c
 heck
 ----------------------------------------------------------------------

 ---------------------------------------
 CID_131218005_JID_1913_Energie_neutraal
 ---------------------------------------
 Structure from the checkpoint file:  "JID_1913.chk"
 Charge =  0 Multiplicity = 1

 SCF Done:  E(RB3LYP) =  -556.401037604     A.U. after   14 cycles
 Normal termination of Gaussian 16 at Mon Dec 14 13:18:47 2020.

 ----------------------------------------------------------------------
 # B3LYP/6-311++G(d,p) empiricaldispersion=gd3bj scf=xqc pop=npa geom=c
 heck
 ----------------------------------------------------------------------

 -------------------------------------
 CID_131218005_JID_1913_Energie_kation
 -------------------------------------
 Structure from the checkpoint file:  "JID_1913.chk"
 Charge =  1 Multiplicity = 2

 SCF Done:  E(UB3LYP) =  -556.081796459     A.U. after   28 cycles
 Normal termination of Gaussian 16 at Mon Dec 14 13:23:31 2020.
 Gaussian 16:  ES64L-G16RevA.03 25-Dec-2016

 ----------------------------------------------------------------------
 # B3LYP/6-311++G(d,p) empiricaldispersion=gd3bj scf=xqc pop=npa geom=c
 heck
 ----------------------------------------------------------------------

 ------------------------------------
 CID_131218005_JID_1913_Energie_anion
 ------------------------------------
 Structure from the checkpoint file:  "JID_1913.chk"
 Charge = -1 Multiplicity = 2

                         Standard orientation:
 ---------------------------------------------------------------------
 Center     Atomic      Atomic             Coordinates (Angstroms)
 Number     Number       Type             X           Y           Z
 ---------------------------------------------------------------------
      1          6           0       -3.917336   -0.971313   -0.465164
      2          6           0       -2.648495   -0.727424    0.349718
      3          7           0       -2.099120    0.595089    0.073787
      4          6           0       -0.809215    0.981835   -0.137239
      5          8           0       -0.524063    2.160494   -0.339586
      6          6           0        0.262028   -0.124561   -0.084912
      7          6           0        1.653116    0.416349   -0.472252
      8          6           0        2.325510    1.212723    0.646176
      9          8           0        2.476352   -0.615288   -1.011611
     10          6           0        2.945254   -1.602708   -0.106903
     11          8           0        0.220271   -0.787613    1.185164
     12          1           0       -4.685223   -0.221782   -0.237901
     13          1           0       -4.336048   -1.956293   -0.233087
     14          1           0       -3.705842   -0.925775   -1.538419
     15          1           0       -2.858854   -0.831101    1.423050
     16          1           0       -1.892927   -1.476137    0.113593
     17          1           0       -2.747512    1.374910    0.074906
     18          1           0        0.013325   -0.903051   -0.814170
     19          1           0        1.493385    1.090704   -1.317511
     20          1           0        2.457677    0.622648    1.559980
     21          1           0        3.315341    1.543707    0.318376
     22          1           0        1.719291    2.093404    0.874053
     23          1           0        3.609481   -1.180095    0.660507
     24          1           0        2.127220   -2.131962    0.395374
     25          1           0        3.521112   -2.311338   -0.708294
     26          1           0        0.417767   -0.123622    1.864746
 ---------------------------------------------------------------------

 SCF Done:  E(UB3LYP) =  -556.389786539     A.U. after   32 cycles

 The electronic state is 2-A.
 Alpha  occ. eigenvalues --  -19.02726 -19.02242 -18.98355 -14.23187 -10.16677
 Alpha  occ. eigenvalues --  -10.12766 -10.12137 -10.10603 -10.10141 -10.06153
 Alpha  occ. eigenvalues --  -10.05934  -0.94565  -0.93138  -0.91948  -0.81785
 Alpha  occ. eigenvalues --   -0.67870  -0.65470  -0.60774  -0.58874  -0.53418
 Alpha  occ. eigenvalues --   -0.50432  -0.46785  -0.43049  -0.39453  -0.38387
 Alpha  occ. eigenvalues --   -0.37872  -0.36815  -0.35039  -0.33594  -0.32846
 Alpha  occ. eigenvalues --   -0.31800  -0.30170  -0.29491  -0.28693  -0.27993
 Alpha  occ. eigenvalues --   -0.26699  -0.26347  -0.25398  -0.24295  -0.22614
 Alpha  occ. eigenvalues --   -0.19732  -0.16447  -0.15117  -0.14107   0.04455
 Alpha virt. eigenvalues --    0.06520   0.07935   0.08508   0.09078   0.09326
 Alpha virt. eigenvalues --    0.09881   0.10526   0.11374   0.11894   0.12240
 Alpha virt. eigenvalues --    0.12484   0.13164   0.13417   0.14560   0.15528

  Beta  occ. eigenvalues --  -19.02673 -19.02239 -18.98302 -14.23176 -10.16646
  Beta  occ. eigenvalues --  -10.12751 -10.12138 -10.10580 -10.10110 -10.06100
  Beta  occ. eigenvalues --  -10.05901  -0.94485  -0.93100  -0.91850  -0.81738
  Beta  occ. eigenvalues --   -0.67825  -0.65403  -0.60693  -0.58826  -0.53302
  Beta  occ. eigenvalues --   -0.50370  -0.46720  -0.42997  -0.39401  -0.38339
  Beta  occ. eigenvalues --   -0.37802  -0.36757  -0.34986  -0.33532  -0.32786
  Beta  occ. eigenvalues --   -0.31752  -0.30098  -0.29460  -0.28609  -0.27941
  Beta  occ. eigenvalues --   -0.26652  -0.26217  -0.25335  -0.24256  -0.22571
  Beta  occ. eigenvalues --   -0.19694  -0.16415  -0.14997  -0.14064
  Beta virt. eigenvalues --    0.06840   0.07500   0.08544   0.09142   0.09509
  Beta virt. eigenvalues --    0.09812   0.10527   0.10918   0.11765   0.12098
  Beta virt. eigenvalues --    0.12622   0.12886   0.13438   0.13753   0.14851

 Mulliken charges and spin densities:
               1          2
     1  C    1.479987  -2.017453
     2  C    0.010549  -0.148758
     3  N   -0.361986   0.182948
     4  C   -0.655784   0.478742
     5  O   -0.338483   0.009632
     6  C    1.688212  -1.421907
     7  C   -2.292919   1.557818
     8  C    0.954881  -1.399621
     9  O   -0.066487   0.001043
    10  C    0.573490  -0.803034
    11  O   -0.128262  -0.010964
    12  H   -0.420714   0.557039
    13  H   -0.412726   0.560731
    14  H   -0.196516   0.341649
    15  H   -0.593980   0.787320
    16  H    0.073285   0.145904
    17  H    0.090667   0.202405
    18  H    0.003823   0.188031
    19  H    0.100219   0.110710
    20  H   -0.219107   0.374064
    21  H   -0.024416   0.172567
    22  H    0.148788   0.041963
    23  H   -0.202145   0.330934
    24  H   -0.098620   0.268612
    25  H    0.042842   0.094825
    26  H   -0.154600   0.394802
 Sum of Mulliken charges =  -1.00000   1.00000

 Dipole moment (field-independent basis, Debye):
    X=              4.1851    Y=              1.3096    Z=             -2.4759  Tot=              5.0359
 Quadrupole moment (field-independent basis, Debye-Ang):
   XX=           -139.2138   YY=           -105.3275   ZZ=           -101.0432
   XY=             -6.8786   XZ=              1.7143   YZ=              3.5765

 Summary of Natural Population Analysis:

                                       Natural Population
                Natural  -----------------------------------------------
    Atom  No    Charge         Core      Valence    Rydberg      Total
 -----------------------------------------------------------------------
      C    1   -0.28827      0.99967     2.28370    0.00491     3.28827
      C    2   -0.08706      0.99962     2.07666    0.01078     3.08706
      N    3   -0.31157      0.99967     2.80111    0.01080     3.81157
      C    4    0.33486      0.99965     1.64206    0.02343     2.66514
      O    5   -0.32777      0.99988     3.32225    0.00564     4.32777
      C    6    0.01220      0.99950     1.97346    0.01484     2.98780
      C    7    0.05869      0.99953     1.92737    0.01440     2.94131
      C    8   -0.31216      0.99964     2.30592    0.00660     3.31216
      O    9   -0.30467      0.99989     3.29482    0.00996     4.30467
      C   10   -0.10255      0.99960     2.09415    0.00880     3.10255
      O   11   -0.36821      0.99990     3.36089    0.00741     4.36821
      H   12    0.09719      0.00000     0.40094    0.00187     0.40281
      H   13    0.10461      0.00000     0.39348    0.00191     0.39539
      H   14    0.09760      0.00000     0.40119    0.00121     0.40240
      H   15    0.09553      0.00000     0.40131    0.00316     0.40447
      H   16    0.10297      0.00000     0.39504    0.00199     0.39703
      H   17    0.19136      0.00000     0.30597    0.00266     0.30864
      H   18    0.10212      0.00000     0.39612    0.00176     0.39788
      H   19    0.10211      0.00000     0.39638    0.00150     0.39789
      H   20    0.09808      0.00000     0.40041    0.00151     0.40192
      H   21    0.10335      0.00000     0.39576    0.00089     0.39665
      H   22    0.11495      0.00000     0.38403    0.00102     0.38505
      H   23    0.07783      0.00000     0.42046    0.00171     0.42217
      H   24    0.08998      0.00000     0.40827    0.00175     0.41002
      H   25    0.08461      0.00000     0.41423    0.00116     0.41539
      H   26    0.23422      0.00000     0.25952    0.00626     0.26578
 =======================================================================
   * Total *   -0.00000     10.99655    32.85550    0.14795    44.00000

 Normal termination of Gaussian 16 at Mon Dec 14 13:29:06 2020.
