 Gaussian 16, Revision A.03,

 -----------------------------------------------------------
 # opt freq B3LYP/6-31G(d) empiricaldispersion=gd3bj scf=xqc
 -----------------------------------------------------------

 -------------------------------
 CID_106052354_JID_9130_neutraal
 -------------------------------
 Symbolic Z-matrix:
 Charge =  0 Multiplicity = 1

 SCF Done:  E(RB3LYP) =  -1580.96491348     A.U. after   15 cycles
 SCF Done:  E(RB3LYP) =  -1580.97548591     A.U. after   12 cycles
 SCF Done:  E(RB3LYP) =  -1580.97769561     A.U. after   12 cycles
 SCF Done:  E(RB3LYP) =  -1580.97837387     A.U. after   12 cycles
 SCF Done:  E(RB3LYP) =  -1580.97871266     A.U. after   12 cycles
 SCF Done:  E(RB3LYP) =  -1580.97898996     A.U. after   12 cycles
 SCF Done:  E(RB3LYP) =  -1580.97876828     A.U. after   13 cycles
 SCF Done:  E(RB3LYP) =  -1580.97905931     A.U. after   12 cycles
 SCF Done:  E(RB3LYP) =  -1580.97940349     A.U. after   12 cycles
 SCF Done:  E(RB3LYP) =  -1580.97955700     A.U. after   12 cycles
 SCF Done:  E(RB3LYP) =  -1580.97971229     A.U. after    9 cycles
 SCF Done:  E(RB3LYP) =  -1580.97971314     A.U. after    9 cycles
 SCF Done:  E(RB3LYP) =  -1580.97971371     A.U. after    9 cycles
 SCF Done:  E(RB3LYP) =  -1580.97971384     A.U. after    8 cycles
 SCF Done:  E(RB3LYP) =  -1580.97971386     A.U. after    7 cycles
 Optimization completed.
    -- Stationary point found.
 Normal termination of Gaussian 16 at Sun Dec 13 20:33:59 2020.

 --------------------------------------------------------------------
 #N Geom=AllCheck Guess=TCheck SCRF=Check GenChk RB3LYP/6-31G(d) Freq
 --------------------------------------------------------------------

 Structure from the checkpoint file:  "JID_9130.chk"
 -------------------------------
 CID_106052354_JID_9130_neutraal
 -------------------------------
 Charge =  0 Multiplicity = 1

 SCF Done:  E(RB3LYP) =  -1580.97971386     A.U. after    1 cycles

  Exact polarizability: 213.259   1.285 167.749   0.129  -9.729 154.743
 Approx polarizability: 300.097   4.649 232.794  -1.440 -23.538 289.565

                      1                      2                      3
                      A                      A                      A
 Frequencies --     15.9821                27.7736                39.5520
 Red. masses --      3.9224                 3.3940                 4.6621
 Frc consts  --      0.0006                 0.0015                 0.0043
 IR Inten    --      0.1258                 0.0165                 1.3522

                      4                      5                      6
                      A                      A                      A
 Frequencies --     45.0249                54.3790                72.1733
 Red. masses --      3.9978                 4.1769                 3.6767
 Frc consts  --      0.0048                 0.0073                 0.0113
 IR Inten    --      0.8331                 0.4355                 0.5825

                      7                      8                      9
                      A                      A                      A
 Frequencies --     92.0124               117.6433               126.4181
 Red. masses --      1.7238                 5.5643                 3.7338
 Frc consts  --      0.0086                 0.0454                 0.0352
 IR Inten    --      0.7039                 1.4147                 1.5831

                     10                     11                     12
                      A                      A                      A
 Frequencies --    164.9226               180.1060               202.0043
 Red. masses --      5.0254                 3.7372                 4.1526
 Frc consts  --      0.0805                 0.0714                 0.0998
 IR Inten    --      0.0730                 3.0612                 1.9728

                     13                     14                     15
                      A                      A                      A
 Frequencies --    222.2860               244.6956               260.5063
 Red. masses --      2.7920                 4.2751                 1.3403
 Frc consts  --      0.0813                 0.1508                 0.0536
 IR Inten    --      1.7605                 1.4758                 0.7710

                     16                     17                     18
                      A                      A                      A
 Frequencies --    267.6364               276.4252               300.0255
 Red. masses --      1.0894                 3.9075                 5.5010
 Frc consts  --      0.0460                 0.1759                 0.2917
 IR Inten    --      0.8129                 2.9427                 1.4897

                     19                     20                     21
                      A                      A                      A
 Frequencies --    314.4604               338.1739               346.7324
 Red. masses --      2.8944                 3.4062                 3.0690
 Frc consts  --      0.1686                 0.2295                 0.2174
 IR Inten    --      3.5086                 3.3483                 2.3714

                     22                     23                     24
                      A                      A                      A
 Frequencies --    363.1919               406.4050               424.2040
 Red. masses --      2.0757                 4.6069                 2.9077
 Frc consts  --      0.1613                 0.4483                 0.3083
 IR Inten    --      7.3636                 0.2922                 5.3134

                     25                     26                     27
                      A                      A                      A
 Frequencies --    454.9598               488.3143               510.7271
 Red. masses --      5.5431                 3.6657                 2.5770
 Frc consts  --      0.6760                 0.5150                 0.3961
 IR Inten    --      3.8014                22.7257                58.9154

                     28                     29                     30
                      A                      A                      A
 Frequencies --    539.3081               558.5240               567.0330
 Red. masses --      2.9142                 3.8278                 4.6088
 Frc consts  --      0.4994                 0.7035                 0.8731
 IR Inten    --     45.2901                34.9670                24.9476

                     31                     32                     33
                      A                      A                      A
 Frequencies --    598.6881               627.4723               640.2477
 Red. masses --      5.3553                 3.2540                 3.8294
 Frc consts  --      1.1309                 0.7548                 0.9249
 IR Inten    --     35.6698                18.0237                40.0210

                     34                     35                     36
                      A                      A                      A
 Frequencies --    657.5330               681.2501               755.9469
 Red. masses --      3.1150                 7.4632                 4.1692
 Frc consts  --      0.7935                 2.0407                 1.4038
 IR Inten    --     18.9441                15.9848                18.2601

                     37                     38                     39
                      A                      A                      A
 Frequencies --    776.7669               791.4789               819.4114
 Red. masses --      1.7901                 2.0942                 1.2644
 Frc consts  --      0.6364                 0.7729                 0.5002
 IR Inten    --    135.2689                32.7414                23.9183

                     40                     41                     42
                      A                      A                      A
 Frequencies --    829.8254               836.3385               878.8933
 Red. masses --      1.1942                 2.3821                 1.9052
 Frc consts  --      0.4845                 0.9817                 0.8671
 IR Inten    --      4.5328                94.1239                11.9536

                     43                     44                     45
                      A                      A                      A
 Frequencies --    881.9826               905.4777               920.5508
 Red. masses --      2.8824                 1.4422                 2.1781
 Frc consts  --      1.3210                 0.6967                 1.0875
 IR Inten    --     19.5365                 2.9933                23.9443

                     46                     47                     48
                      A                      A                      A
 Frequencies --    983.2420               984.3283              1021.6275
 Red. masses --      1.5790                 2.0599                 1.8104
 Frc consts  --      0.8994                 1.1759                 1.1133
 IR Inten    --      6.4177                 3.2517                 5.9831

                     49                     50                     51
                      A                      A                      A
 Frequencies --   1026.2676              1045.7155              1055.0163
 Red. masses --      2.1596                 2.9681                 2.3380
 Frc consts  --      1.3401                 1.9123                 1.5333
 IR Inten    --     47.7341                 1.5566                31.6720

                     52                     53                     54
                      A                      A                      A
 Frequencies --   1079.6966              1088.9479              1113.9175
 Red. masses --      2.6965                 2.5641                 1.8995
 Frc consts  --      1.8521                 1.7914                 1.3886
 IR Inten    --      9.4179                35.2685                 2.6655

                     55                     56                     57
                      A                      A                      A
 Frequencies --   1119.4450              1125.8204              1134.6678
 Red. masses --      4.7033                 2.3351                 2.7917
 Frc consts  --      3.4726                 1.7438                 2.1177
 IR Inten    --    112.7572                31.1424                24.0804

                     58                     59                     60
                      A                      A                      A
 Frequencies --   1138.1238              1160.9643              1171.2079
 Red. masses --      2.4171                 1.4686                 2.3317
 Frc consts  --      1.8447                 1.1662                 1.8844
 IR Inten    --     85.9201                28.1213                16.1991

                     61                     62                     63
                      A                      A                      A
 Frequencies --   1188.3337              1195.4010              1219.7017
 Red. masses --      2.2018                 2.2106                 1.3504
 Frc consts  --      1.8319                 1.8611                 1.1836
 IR Inten    --     15.5802                22.6797                 2.5482

                     64                     65                     66
                      A                      A                      A
 Frequencies --   1242.3775              1250.5570              1278.8561
 Red. masses --      1.3956                 1.4509                 1.7065
 Frc consts  --      1.2692                 1.3369                 1.6443
 IR Inten    --      3.6882                 9.3791                20.8485

                     67                     68                     69
                      A                      A                      A
 Frequencies --   1290.9339              1301.1274              1308.9884
 Red. masses --      1.3382                 1.8435                 4.9392
 Frc consts  --      1.3139                 1.8388                 4.9863
 IR Inten    --      5.8222                40.6991                85.5985

                     70                     71                     72
                      A                      A                      A
 Frequencies --   1327.7986              1335.0734              1342.7344
 Red. masses --      1.3021                 1.2848                 1.3133
 Frc consts  --      1.3526                 1.3493                 1.3951
 IR Inten    --     10.9868                 6.1234                 6.8295

                     73                     74                     75
                      A                      A                      A
 Frequencies --   1369.9906              1370.5904              1384.8510
 Red. masses --      1.3785                 1.5578                 1.6166
 Frc consts  --      1.5244                 1.7241                 1.8266
 IR Inten    --     45.2356                17.9950                19.2109

                     76                     77                     78
                      A                      A                      A
 Frequencies --   1386.0980              1413.5911              1416.3120
 Red. masses --      1.4393                 1.3029                 1.4600
 Frc consts  --      1.6292                 1.5340                 1.7255
 IR Inten    --     32.4436                 5.1121                15.3387

                     79                     80                     81
                      A                      A                      A
 Frequencies --   1444.0775              1455.1611              1480.1521
 Red. masses --      1.3225                 1.3445                 1.1948
 Frc consts  --      1.6249                 1.6774                 1.5422
 IR Inten    --      7.1516                14.8733                 2.1010

                     82                     83                     84
                      A                      A                      A
 Frequencies --   1493.0174              1498.0079              1510.2205
 Red. masses --      1.2451                 3.7837                 1.1078
 Frc consts  --      1.6353                 5.0026                 1.4886
 IR Inten    --      4.3496                25.0367                16.2060

                     85                     86                     87
                      A                      A                      A
 Frequencies --   1513.7135              1517.5026              1525.1177
 Red. masses --      1.0803                 1.0675                 1.0478
 Frc consts  --      1.4584                 1.4483                 1.4359
 IR Inten    --      9.0578                10.2628                 4.3894

                     88                     89                     90
                      A                      A                      A
 Frequencies --   1528.3135              1532.0359              1535.8578
 Red. masses --      1.0853                 1.0922                 1.0727
 Frc consts  --      1.4936                 1.5104                 1.4909
 IR Inten    --     15.4826                 7.2835                 0.5596

                     91                     92                     93
                      A                      A                      A
 Frequencies --   1552.0178              1554.8461              1595.8017
 Red. masses --      1.0903                 1.1049                 5.3821
 Frc consts  --      1.5473                 1.5738                 8.0753
 IR Inten    --      3.5120                 7.1269                 5.4157

                     94                     95                     96
                      A                      A                      A
 Frequencies --   2929.1658              2965.0328              2971.4290
 Red. masses --      1.0619                 1.0720                 1.0714
 Frc consts  --      5.3683                 5.5527                 5.5733
 IR Inten    --     79.7548                38.7792                63.1009

                     97                     98                     99
                      A                      A                      A
 Frequencies --   3006.0696              3046.6619              3051.7437
 Red. masses --      1.0680                 1.0518                 1.0603
 Frc consts  --      5.6863                 5.7521                 5.8181
 IR Inten    --     52.5389                13.7377                13.2134

                    100                    101                    102
                      A                      A                      A
 Frequencies --   3053.1812              3075.6667              3076.8828
 Red. masses --      1.0733                 1.0701                 1.0795
 Frc consts  --      5.8949                 5.9641                 6.0216
 IR Inten    --     59.2781                34.3716                 1.7173

                    103                    104                    105
                      A                      A                      A
 Frequencies --   3084.4601              3091.7531              3095.4440
 Red. masses --      1.0852                 1.0882                 1.1056
 Frc consts  --      6.0831                 6.1288                 6.2418
 IR Inten    --     18.8842                56.3161                13.9915

                    106                    107                    108
                      A                      A                      A
 Frequencies --   3101.8806              3112.3678              3119.7914
 Red. masses --      1.0842                 1.0991                 1.1040
 Frc consts  --      6.1464                 6.2728                 6.3309
 IR Inten    --     56.6020                39.2644                33.2516

                    109                    110                    111
                      A                      A                      A
 Frequencies --   3134.4994              3162.8741              3217.7786
 Red. masses --      1.1033                 1.0991                 1.0914
 Frc consts  --      6.3866                 6.4783                 6.6578
 IR Inten    --     28.4696                 9.2676                 7.1118

                    112                    113                    114
                      A                      A                      A
 Frequencies --   3245.5623              3479.8602              3540.7837
 Red. masses --      1.0956                 1.0739                 1.0754
 Frc consts  --      6.7998                 7.6620                 7.9434
 IR Inten    --      0.3391                 0.9031                36.0828

 - Thermochemistry -
 -------------------
 Temperature   298.150 Kelvin.  Pressure   1.00000 Atm.
 Atom     1 has atomic number  6 and mass  12.00000

 Molecular mass:   303.10752 amu.
 Principal axes and moments of inertia in atomic units:
                           1         2         3
     Eigenvalues --  4414.616636809.739919742.36603
           X            1.00000  -0.00215   0.00066
           Y            0.00216   0.99989  -0.01441
           Z           -0.00063   0.01442   0.99990
 This molecule is an asymmetric top.
 Rotational symmetry number  1.
 Warning -- assumption of classical behavior for rotation
           may cause significant error
 Rotational temperatures (Kelvin)      0.01962     0.01272     0.00889
 Rotational constants (GHZ):           0.40881     0.26502     0.18525
 Zero-point vibrational energy     884007.4 (Joules/Mol)
                                  211.28285 (Kcal/Mol)
 Warning -- explicit consideration of  31 degrees of freedom as
           vibrations may cause significant error
 Vibrational temperatures:     22.99    39.96    56.91    64.78    78.24
          (Kelvin)            103.84   132.39   169.26   181.89   237.29
                              259.13   290.64   319.82   352.06   374.81
                              385.07   397.71   431.67   452.44   486.56
                              498.87   522.55   584.73   610.34   654.59
                              702.58   734.82   775.94   803.59   815.83
                              861.38   902.79   921.17   946.04   980.17
                             1087.64  1117.59  1138.76  1178.95  1193.93
                             1203.30  1264.53  1268.98  1302.78  1324.47
                             1414.67  1416.23  1469.89  1476.57  1504.55
                             1517.93  1553.44  1566.75  1602.68  1610.63
                             1619.80  1632.53  1637.51  1670.37  1685.11
                             1709.75  1719.92  1754.88  1787.50  1799.27
                             1839.99  1857.37  1872.03  1883.34  1910.41
                             1920.87  1931.90  1971.11  1971.97  1992.49
                             1994.29  2033.84  2037.76  2077.71  2093.65
                             2129.61  2148.12  2155.30  2172.87  2177.90
                             2183.35  2194.30  2198.90  2204.26  2209.76
                             2233.01  2237.08  2296.00  4214.42  4266.02
                             4275.22  4325.06  4383.47  4390.78  4392.85
                             4425.20  4426.95  4437.85  4448.34  4453.65
                             4462.91  4478.00  4488.68  4509.85  4550.67
                             4629.67  4669.64  5006.74  5094.40

 Zero-point correction=                           0.336701 (Hartree/Particle)
 Thermal correction to Energy=                    0.356783
 Thermal correction to Enthalpy=                  0.357728
 Thermal correction to Gibbs Free Energy=         0.285692
 Sum of electronic and zero-point Energies=          -1580.643013
 Sum of electronic and thermal Energies=             -1580.622930
 Sum of electronic and thermal Enthalpies=           -1580.621986
 Sum of electronic and thermal Free Energies=        -1580.694022

                     E (Thermal)             CV                S
                      KCal/Mol        Cal/Mol-Kelvin    Cal/Mol-Kelvin
 Total                  223.885             75.002            151.612
 Electronic               0.000              0.000              0.000
 Translational            0.889              2.981             43.023
 Rotational               0.889              2.981             34.037
 Vibrational            222.107             69.040             74.552
 Vibration     1          0.593              1.986              7.080
 Vibration     2          0.593              1.984              5.982
 Vibration     3          0.594              1.981              5.281
 Vibration     4          0.595              1.979              5.025
 Vibration     5          0.596              1.976              4.651
 Vibration     6          0.598              1.967              4.093
 Vibration     7          0.602              1.955              3.617
 Vibration     8          0.608              1.935              3.139
 Vibration     9          0.611              1.927              3.000
 Vibration    10          0.623              1.886              2.493
 Vibration    11          0.629              1.867              2.327
 Vibration    12          0.639              1.837              2.115
 Vibration    13          0.648              1.807              1.940
 Vibration    14          0.660              1.772              1.768
 Vibration    15          0.669              1.745              1.658
 Vibration    16          0.673              1.733              1.611
 Vibration    17          0.678              1.717              1.556
 Vibration    18          0.693              1.674              1.417
 Vibration    19          0.702              1.646              1.339
 Vibration    20          0.718              1.599              1.221
 Vibration    21          0.725              1.582              1.181
 Vibration    22          0.737              1.548              1.108
 Vibration    23          0.771              1.456              0.939
 Vibration    24          0.786              1.418              0.878
 Vibration    25          0.813              1.350              0.781
 Vibration    26          0.844              1.276              0.688
 Vibration    27          0.866              1.226              0.632
 Vibration    28          0.894              1.163              0.567
 Vibration    29          0.914              1.121              0.527
 Vibration    30          0.923              1.103              0.510
 Vibration    31          0.957              1.035              0.452

                           ! Non-Optimized Parameters !
 Normal termination of Gaussian 16 at Sun Dec 13 20:58:03 2020.

 ----------------------------------------------------------------------
 # B3LYP/6-311++G(d,p) empiricaldispersion=gd3bj scf=xqc pop=npa geom=c
 heck
 ----------------------------------------------------------------------

 ---------------------------------------
 CID_106052354_JID_9130_Energie_neutraal
 ---------------------------------------
 Structure from the checkpoint file:  "JID_9130.chk"
 Charge =  0 Multiplicity = 1

 SCF Done:  E(RB3LYP) =  -1581.25709445     A.U. after   16 cycles
 Normal termination of Gaussian 16 at Sun Dec 13 21:10:39 2020.

 ----------------------------------------------------------------------
 # B3LYP/6-311++G(d,p) empiricaldispersion=gd3bj scf=xqc pop=npa geom=c
 heck
 ----------------------------------------------------------------------

 -------------------------------------
 CID_106052354_JID_9130_Energie_kation
 -------------------------------------
 Structure from the checkpoint file:  "JID_9130.chk"
 Charge =  1 Multiplicity = 2

 SCF Done:  E(UB3LYP) =  -1580.96637177     A.U. after   28 cycles
 Normal termination of Gaussian 16 at Sun Dec 13 21:41:55 2020.
 Gaussian 16:  ES64L-G16RevA.03 25-Dec-2016

 ----------------------------------------------------------------------
 # B3LYP/6-311++G(d,p) empiricaldispersion=gd3bj scf=xqc pop=npa geom=c
 heck
 ----------------------------------------------------------------------

 ------------------------------------
 CID_106052354_JID_9130_Energie_anion
 ------------------------------------
 Structure from the checkpoint file:  "JID_9130.chk"
 Charge = -1 Multiplicity = 2

                         Standard orientation:
 ---------------------------------------------------------------------
 Center     Atomic      Atomic             Coordinates (Angstroms)
 Number     Number       Type             X           Y           Z
 ---------------------------------------------------------------------
      1          6           0        3.932234    2.397353    0.025455
      2          6           0        3.577108    0.980566    0.462039
      3          7           0        3.962360    0.016213   -0.569483
      4          6           0        3.635730   -1.374050   -0.251323
      5          6           0        2.190204   -1.630463    0.104825
      6          6           0        1.663454   -1.981401    1.324195
      7          6           0        0.240531   -1.997209    1.342929
      8          6           0       -0.290266   -1.645146    0.130584
      9         16           0        0.933082   -1.308746   -1.059434
     10         16           0       -1.995614   -1.438275   -0.277546
     11          8           0       -2.001150   -0.732038   -1.565669
     12          8           0       -2.725014   -2.697967   -0.112518
     13          7           0       -2.546554   -0.478610    0.993667
     14          6           0       -2.469649    0.994374    0.973906
     15          6           0       -3.174759    1.746439   -0.197812
     16          6           0       -2.058833    2.602969   -0.810589
     17          7           0       -1.146472    2.828420    0.315596
     18          6           0       -1.021929    1.523111    0.951062
     19          6           0        0.129237    3.399624   -0.066622
     20          1           0        4.998814    2.476045   -0.206971
     21          1           0        3.688786    3.118197    0.813197
     22          1           0        3.365884    2.683403   -0.869885
     23          1           0        4.127392    0.719499    1.375959
     24          1           0        2.504277    0.930317    0.718418
     25          1           0        3.518514    0.274751   -1.450129
     26          1           0        3.938391   -1.991823   -1.104597
     27          1           0        4.248281   -1.685992    0.603512
     28          1           0        2.282097   -2.201469    2.187813
     29          1           0       -0.368384   -2.217822    2.211274
     30          1           0       -3.464753   -0.836855    1.245626
     31          1           0       -2.932611    1.285494    1.920569
     32          1           0       -3.974324    2.377992    0.200454
     33          1           0       -3.603748    1.055863   -0.924019
     34          1           0       -2.411993    3.559071   -1.211288
     35          1           0       -1.564880    2.047035   -1.628240
     36          1           0       -0.372943    0.851838    0.365653
     37          1           0       -0.588653    1.606640    1.953433
     38          1           0        0.754530    3.545473    0.821128
     39          1           0        0.688802    2.759355   -0.778146
     40          1           0       -0.027365    4.376205   -0.536926
 ---------------------------------------------------------------------

 SCF Done:  E(UB3LYP) =  -1581.26361381     A.U. after   33 cycles
 SCF Done:  E(UB3LYP) =  -1581.26361381     a.u. after    1 cycles

 The electronic state is 2-A.
 Alpha  occ. eigenvalues --  -88.93372 -88.72679 -18.98731 -18.98676 -14.22568
 Alpha  occ. eigenvalues --  -14.20331 -14.18871 -10.11604 -10.08896 -10.08895
 Alpha  occ. eigenvalues --  -10.08618 -10.08615 -10.08299 -10.06746 -10.06648
 Alpha  occ. eigenvalues --  -10.05546 -10.04506 -10.03615 -10.03260  -7.99426
 Alpha  occ. eigenvalues --   -7.81315  -5.95761  -5.95682  -5.95497  -5.77630
 Alpha  occ. eigenvalues --   -5.77253  -5.76907  -0.99080  -0.88098  -0.84042
 Alpha  occ. eigenvalues --   -0.80547  -0.79967  -0.73980  -0.67683  -0.65477
 Alpha  occ. eigenvalues --   -0.62603  -0.61724  -0.59638  -0.57985  -0.55830
 Alpha  occ. eigenvalues --   -0.52146  -0.50175  -0.48574  -0.47638  -0.42999
 Alpha  occ. eigenvalues --   -0.41370  -0.40949  -0.39544  -0.38757  -0.37622
 Alpha  occ. eigenvalues --   -0.36782  -0.35441  -0.34725  -0.34712  -0.34458
 Alpha  occ. eigenvalues --   -0.33077  -0.32347  -0.30970  -0.29761  -0.29098
 Alpha  occ. eigenvalues --   -0.27771  -0.27101  -0.26988  -0.26575  -0.26288
 Alpha  occ. eigenvalues --   -0.25767  -0.25456  -0.24704  -0.24411  -0.24082
 Alpha  occ. eigenvalues --   -0.23203  -0.21702  -0.20656  -0.19653  -0.18976
 Alpha  occ. eigenvalues --   -0.17913  -0.15714  -0.12683  -0.12498  -0.11517
 Alpha  occ. eigenvalues --   -0.10370   0.04561
 Alpha virt. eigenvalues --    0.06542   0.07363   0.07974   0.08890   0.09100
 Alpha virt. eigenvalues --    0.09521   0.10146   0.10742   0.11035   0.11441
 Alpha virt. eigenvalues --    0.11935   0.12471   0.12883   0.13498   0.13800

  Beta  occ. eigenvalues --  -88.93361 -88.72618 -18.98705 -18.98620 -14.22542
  Beta  occ. eigenvalues --  -14.20331 -14.18825 -10.11604 -10.08889 -10.08881
  Beta  occ. eigenvalues --  -10.08647 -10.08619 -10.08293 -10.06745 -10.06644
  Beta  occ. eigenvalues --  -10.05218 -10.04031 -10.03702 -10.03050  -7.99413
  Beta  occ. eigenvalues --   -7.81259  -5.95740  -5.95646  -5.95494  -5.77609
  Beta  occ. eigenvalues --   -5.77232  -5.76689  -0.98946  -0.87998  -0.84030
  Beta  occ. eigenvalues --   -0.80478  -0.79851  -0.73533  -0.67645  -0.65351
  Beta  occ. eigenvalues --   -0.62538  -0.61276  -0.59253  -0.57892  -0.55656
  Beta  occ. eigenvalues --   -0.52005  -0.50117  -0.48503  -0.47555  -0.42772
  Beta  occ. eigenvalues --   -0.41198  -0.40654  -0.39404  -0.38599  -0.37522
  Beta  occ. eigenvalues --   -0.36647  -0.35270  -0.34687  -0.34668  -0.34401
  Beta  occ. eigenvalues --   -0.32982  -0.32242  -0.30847  -0.29723  -0.28997
  Beta  occ. eigenvalues --   -0.27677  -0.26980  -0.26831  -0.26524  -0.26269
  Beta  occ. eigenvalues --   -0.25624  -0.25422  -0.24556  -0.24202  -0.23956
  Beta  occ. eigenvalues --   -0.22494  -0.21549  -0.20334  -0.19478  -0.18792
  Beta  occ. eigenvalues --   -0.17729  -0.15580  -0.12322  -0.12195  -0.10750
  Beta  occ. eigenvalues --   -0.08400
  Beta virt. eigenvalues --    0.06507   0.07254   0.07958   0.08749   0.08904
  Beta virt. eigenvalues --    0.09424   0.10094   0.10332   0.10764   0.11151
  Beta virt. eigenvalues --    0.11323   0.11943   0.12408   0.12762   0.13541

 Mulliken charges and spin densities:
               1          2
     1  C   -0.444796  -0.137013
     2  C   -0.426354   0.093674
     3  N   -0.014605   0.005659
     4  C   -0.640369  -0.054752
     5  C    0.351121   0.089396
     6  C   -0.438777   0.054133
     7  C   -0.294613   0.364498
     8  C   -0.770161   0.067446
     9  S   -0.086449   0.366740
    10  S    0.841373  -0.035895
    11  O   -0.249070   0.005748
    12  O   -0.110147  -0.014653
    13  N   -0.191937   0.013195
    14  C   -0.639003   0.048016
    15  C   -0.371777  -0.095176
    16  C   -0.287250   0.013687
    17  N    0.127623  -0.025789
    18  C   -0.150988   0.228365
    19  C   -0.256708  -0.093523
    20  H    0.151121  -0.002880
    21  H    0.078521   0.042023
    22  H    0.098069   0.035168
    23  H    0.112566   0.024744
    24  H    0.177494  -0.011258
    25  H    0.216694  -0.000814
    26  H    0.077259   0.111940
    27  H    0.127727   0.001461
    28  H    0.102836   0.007733
    29  H    0.144214  -0.001882
    30  H    0.291491   0.009339
    31  H    0.165565   0.017869
    32  H    0.097094   0.014483
    33  H    0.202396  -0.002600
    34  H    0.026933   0.119846
    35  H    0.106140   0.036938
    36  H    0.780721  -0.789689
    37  H   -0.064759   0.223109
    38  H    0.126843   0.031519
    39  H    0.064223   0.072736
    40  H   -0.030258   0.166460
 Sum of Mulliken charges =  -1.00000   1.00000

 Dipole moment (field-independent basis, Debye):
    X=             -0.5201    Y=              4.6545    Z=              2.3236  Tot=              5.2282
 Quadrupole moment (field-independent basis, Debye-Ang):
   XX=           -168.7604   YY=           -174.1724   ZZ=           -147.4331
   XY=             -6.1414   XZ=             -3.3361   YZ=             -4.4842

 Summary of Natural Population Analysis:

                                       Natural Population
                Natural  -----------------------------------------------
    Atom  No    Charge         Core      Valence    Rydberg      Total
 -----------------------------------------------------------------------
      C    1   -0.28692      0.99967     2.28273    0.00453     3.28692
      C    2   -0.09413      0.99965     2.08256    0.01192     3.09413
      N    3   -0.33626      0.99975     2.82406    0.01245     3.83626
      C    4   -0.10266      0.99957     2.09007    0.01302     3.10266
      C    5   -0.02662      0.99950     2.01380    0.01333     3.02662
      C    6   -0.15938      0.99946     2.14912    0.01080     3.15938
      C    7   -0.07299      0.99945     2.06229    0.01124     3.07299
      C    8   -0.21139      0.99937     2.19365    0.01836     3.21139
      S    9    0.23194      4.99933     2.74721    0.02152     7.76806
      S   10    1.12153      4.99908     1.78038    0.09902     6.87847
      O   11   -0.47384      0.99991     3.46766    0.00627     4.47384
      O   12   -0.46768      0.99991     3.46260    0.00518     4.46768
      N   13   -0.43453      0.99973     2.92182    0.01298     3.93453
      C   14   -0.01467      0.99959     1.99918    0.01589     3.01467
      C   15   -0.20314      0.99962     2.19599    0.00753     3.20314
      C   16   -0.08576      0.99964     2.07686    0.00926     3.08576
      N   17   -0.28191      0.99972     2.76963    0.01256     3.78191
      C   18   -0.09894      0.99960     2.08350    0.01584     3.09894
      C   19   -0.17452      0.99966     2.16795    0.00691     3.17452
      H   20    0.09587      0.00000     0.40290    0.00122     0.40413
      H   21    0.09618      0.00000     0.40280    0.00102     0.40382
      H   22    0.09495      0.00000     0.40365    0.00140     0.40505
      H   23    0.08505      0.00000     0.41383    0.00111     0.41495
      H   24    0.09066      0.00000     0.40689    0.00245     0.40934
      H   25    0.17026      0.00000     0.32780    0.00193     0.32974
      H   26    0.09914      0.00000     0.39947    0.00139     0.40086
      H   27    0.09269      0.00000     0.40632    0.00099     0.40731
      H   28    0.09761      0.00000     0.40146    0.00093     0.40239
      H   29    0.10342      0.00000     0.39567    0.00091     0.39658
      H   30    0.19363      0.00000     0.30487    0.00150     0.30637
      H   31    0.09732      0.00000     0.40148    0.00120     0.40268
      H   32    0.09362      0.00000     0.40522    0.00116     0.40638
      H   33    0.11249      0.00000     0.38583    0.00168     0.38751
      H   34    0.09007      0.00000     0.40853    0.00140     0.40993
      H   35    0.09165      0.00000     0.40659    0.00175     0.40835
      H   36    0.10103      0.00000     0.39626    0.00270     0.39897
      H   37    0.09717      0.00000     0.40153    0.00129     0.40283
      H   38    0.09363      0.00000     0.40516    0.00121     0.40637
      H   39    0.08472      0.00000     0.41338    0.00190     0.41528
      H   40    0.09071      0.00000     0.40821    0.00108     0.40929
 =======================================================================
   * Total *   -0.00000     26.99221    53.66893    0.33887    81.00000

 Normal termination of Gaussian 16 at Sun Dec 13 22:17:06 2020.
