 Gaussian 16, Revision A.03,

 -----------------------------------------------------------
 # opt freq B3LYP/6-31G(d) empiricaldispersion=gd3bj scf=xqc
 -----------------------------------------------------------

 --------------------------------
 CID_152720376_JID_10493_neutraal
 --------------------------------
 Symbolic Z-matrix:
 Charge =  0 Multiplicity = 1

 SCF Done:  E(RB3LYP) =  -894.019967182     A.U. after   17 cycles
 SCF Done:  E(RB3LYP) =  -894.025411480     A.U. after   15 cycles
 SCF Done:  E(RB3LYP) =  -894.027225673     A.U. after   14 cycles
 SCF Done:  E(RB3LYP) =  -894.028462531     A.U. after   14 cycles
 SCF Done:  E(RB3LYP) =  -894.029088256     A.U. after   16 cycles
 SCF Done:  E(RB3LYP) =  -894.029296997     A.U. after   16 cycles
 SCF Done:  E(RB3LYP) =  -894.029379435     A.U. after   13 cycles
 SCF Done:  E(RB3LYP) =  -894.029434864     A.U. after   13 cycles
 SCF Done:  E(RB3LYP) =  -894.029465739     A.U. after   11 cycles
 SCF Done:  E(RB3LYP) =  -894.029471940     A.U. after   11 cycles
 SCF Done:  E(RB3LYP) =  -894.029473179     A.U. after    9 cycles
 SCF Done:  E(RB3LYP) =  -894.029473638     A.U. after    8 cycles
 SCF Done:  E(RB3LYP) =  -894.029473730     A.U. after    8 cycles
 SCF Done:  E(RB3LYP) =  -894.029473772     A.U. after    8 cycles
 SCF Done:  E(RB3LYP) =  -894.029473791     A.U. after    8 cycles
 Optimization completed.
    -- Stationary point found.
 Normal termination of Gaussian 16 at Mon Dec 14 17:42:40 2020.

 --------------------------------------------------------------------
 #N Geom=AllCheck Guess=TCheck SCRF=Check GenChk RB3LYP/6-31G(d) Freq
 --------------------------------------------------------------------

 Structure from the checkpoint file:  "JID_10493.chk"
 --------------------------------
 CID_152720376_JID_10493_neutraal
 --------------------------------
 Charge =  0 Multiplicity = 1

 SCF Done:  E(RB3LYP) =  -894.029473791     A.U. after    1 cycles

  Exact polarizability: 203.206  11.037 213.256 -11.675  19.999 134.424
 Approx polarizability: 288.925  28.318 394.406 -19.053  53.803 235.011

                      1                      2                      3
                      A                      A                      A
 Frequencies --     20.1088                27.2287                35.1151
 Red. masses --      7.4852                 5.7691                 5.7106
 Frc consts  --      0.0018                 0.0025                 0.0041
 IR Inten    --      0.0140                 0.0148                 0.1507

                      4                      5                      6
                      A                      A                      A
 Frequencies --     37.6397                43.8763                88.6253
 Red. masses --      5.0531                 5.5972                 7.1151
 Frc consts  --      0.0042                 0.0063                 0.0329
 IR Inten    --      0.0508                 0.3386                 0.3481

                      7                      8                      9
                      A                      A                      A
 Frequencies --    114.7985               132.9010               166.8998
 Red. masses --      3.3376                 4.1362                 5.3300
 Frc consts  --      0.0259                 0.0430                 0.0875
 IR Inten    --      0.0374                 0.3582                 4.1864

                     10                     11                     12
                      A                      A                      A
 Frequencies --    195.4418               203.3102               222.4209
 Red. masses --      8.9781                 4.8225                 2.6127
 Frc consts  --      0.2021                 0.1174                 0.0762
 IR Inten    --      0.2444                 0.3582                 1.0039

                     13                     14                     15
                      A                      A                      A
 Frequencies --    264.3456               286.2414               337.8114
 Red. masses --      5.0404                 4.4783                 3.3416
 Frc consts  --      0.2075                 0.2162                 0.2247
 IR Inten    --      1.6058                 1.9958                 7.1908

                     16                     17                     18
                      A                      A                      A
 Frequencies --    361.2488               398.4949               415.6506
 Red. masses --      4.4195                 5.8985                 3.0023
 Frc consts  --      0.3398                 0.5519                 0.3056
 IR Inten    --      1.2083                 2.5148                 0.1953

                     19                     20                     21
                      A                      A                      A
 Frequencies --    446.3614               470.2265               487.5050
 Red. masses --      2.8447                 3.4620                 4.2800
 Frc consts  --      0.3339                 0.4510                 0.5993
 IR Inten    --      2.0880                 5.4658                 5.9623

                     22                     23                     24
                      A                      A                      A
 Frequencies --    520.1480               525.4357               537.9063
 Red. masses --      5.9915                 6.2299                 5.8219
 Frc consts  --      0.9551                 1.0134                 0.9925
 IR Inten    --     11.7752                 4.3946                15.6915

                     25                     26                     27
                      A                      A                      A
 Frequencies --    557.6640               598.6496               622.8352
 Red. masses --      4.5477                 3.3030                 4.5987
 Frc consts  --      0.8333                 0.6974                 1.0511
 IR Inten    --      1.4249                 6.2078                13.0599

                     28                     29                     30
                      A                      A                      A
 Frequencies --    635.5877               649.4800               687.6124
 Red. masses --      6.2791                 5.0563                 2.8682
 Frc consts  --      1.4945                 1.2566                 0.7990
 IR Inten    --      0.8454                14.7609                 3.3611

                     31                     32                     33
                      A                      A                      A
 Frequencies --    711.8961               725.0317               752.4098
 Red. masses --      2.6836                 3.4547                 5.2995
 Frc consts  --      0.8013                 1.0700                 1.7676
 IR Inten    --     11.6713                11.6508                 2.8053

                     34                     35                     36
                      A                      A                      A
 Frequencies --    755.8071               783.7743               822.5796
 Red. masses --      1.7288                 2.7932                 3.2846
 Frc consts  --      0.5819                 1.0110                 1.3094
 IR Inten    --     41.1662                 3.2077                 1.0349

                     37                     38                     39
                      A                      A                      A
 Frequencies --    825.3567               860.6407               864.3492
 Red. masses --      3.3201                 2.2576                 1.2740
 Frc consts  --      1.3326                 0.9852                 0.5608
 IR Inten    --      9.5353                20.1181                 0.7539

                     40                     41                     42
                      A                      A                      A
 Frequencies --    875.2711               921.0828               944.0441
 Red. masses --      1.5862                 1.3510                 1.5310
 Frc consts  --      0.7160                 0.6753                 0.8039
 IR Inten    --     24.2869                 3.7835                24.8845

                     43                     44                     45
                      A                      A                      A
 Frequencies --    952.7645               957.9074               971.8190
 Red. masses --      2.4133                 1.3517                 1.3447
 Frc consts  --      1.2907                 0.7307                 0.7483
 IR Inten    --      7.7444                 0.6944                 0.1656

                     46                     47                     48
                      A                      A                      A
 Frequencies --    999.2771              1021.6722              1042.4889
 Red. masses --      1.2575                 5.8792                 2.0045
 Frc consts  --      0.7399                 3.6157                 1.2835
 IR Inten    --      0.8567                 2.6438                 2.8296

                     49                     50                     51
                      A                      A                      A
 Frequencies --   1047.6449              1057.3830              1065.9374
 Red. masses --      1.1017                 2.5908                 2.6567
 Frc consts  --      0.7124                 1.7067                 1.7785
 IR Inten    --     14.1633                28.3454                30.3177

                     52                     53                     54
                      A                      A                      A
 Frequencies --   1089.6990              1117.1792              1120.7867
 Red. masses --      1.7130                 1.8885                 1.6492
 Frc consts  --      1.1985                 1.3887                 1.2206
 IR Inten    --     19.9688                17.1386                13.3774

                     55                     56                     57
                      A                      A                      A
 Frequencies --   1190.0126              1194.8360              1201.5461
 Red. masses --      1.6344                 1.1010                 9.1199
 Frc consts  --      1.3637                 0.9261                 7.7575
 IR Inten    --     32.0140                 0.0896                55.9710

                     58                     59                     60
                      A                      A                      A
 Frequencies --   1212.1043              1231.3859              1235.4124
 Red. masses --      1.1447                 2.8309                 3.0317
 Frc consts  --      0.9909                 2.5291                 2.7263
 IR Inten    --      4.4731                34.3177               103.4526

                     61                     62                     63
                      A                      A                      A
 Frequencies --   1277.7330              1302.9878              1324.7009
 Red. masses --      2.0928                 1.4808                 1.9886
 Frc consts  --      2.0131                 1.4813                 2.0561
 IR Inten    --     80.1206                61.5427                43.6114

                     64                     65                     66
                      A                      A                      A
 Frequencies --   1339.7763              1350.4875              1367.2669
 Red. masses --      1.5126                 2.1724                 3.3206
 Frc consts  --      1.5997                 2.3344                 3.6574
 IR Inten    --     14.7505                 6.0644                16.9990

                     67                     68                     69
                      A                      A                      A
 Frequencies --   1370.3227              1420.6007              1471.1080
 Red. masses --      2.0800                 1.4327                 1.9508
 Frc consts  --      2.3012                 1.7036                 2.4874
 IR Inten    --     29.3874                17.5389                 6.0640

                     70                     71                     72
                      A                      A                      A
 Frequencies --   1478.6174              1504.2154              1525.4019
 Red. masses --      1.9239                 2.1827                 1.1399
 Frc consts  --      2.4783                 2.9098                 1.5627
 IR Inten    --     47.2108                12.3832                 6.0022

                     73                     74                     75
                      A                      A                      A
 Frequencies --   1535.9111              1548.8927              1630.3550
 Red. masses --      2.7021                 2.1573                 6.9904
 Frc consts  --      3.7556                 3.0493                10.9476
 IR Inten    --    111.1199                 5.4873                36.9523

                     76                     77                     78
                      A                      A                      A
 Frequencies --   1649.1744              1658.1046              1669.2794
 Red. masses --      5.6730                 5.7717                 5.5263
 Frc consts  --      9.0907                 9.3492                 9.0728
 IR Inten    --     10.6830                95.4842                 1.1653

                     79                     80                     81
                      A                      A                      A
 Frequencies --   1711.7196              2176.9671              3037.8736
 Red. masses --      4.2699                13.9984                 1.0661
 Frc consts  --      7.3712                39.0869                 5.7966
 IR Inten    --      2.4487               503.4825                42.4260

                     82                     83                     84
                      A                      A                      A
 Frequencies --   3100.6646              3166.6172              3172.4215
 Red. masses --      1.0986                 1.0586                 1.0876
 Frc consts  --      6.2231                 6.2543                 6.4492
 IR Inten    --     22.6630                 3.4774                 9.2749

                     85                     86                     87
                      A                      A                      A
 Frequencies --   3187.5852              3188.2577              3197.9386
 Red. masses --      1.0908                 1.0865                 1.0908
 Frc consts  --      6.5298                 6.5068                 6.5724
 IR Inten    --      6.8584                 0.5508                18.2090

                     88                     89                     90
                      A                      A                      A
 Frequencies --   3208.7451              3214.6968              3216.1480
 Red. masses --      1.0938                 1.0880                 1.0967
 Frc consts  --      6.6353                 6.6248                 6.6837
 IR Inten    --     23.1510                 4.4152                10.8764

                     91                     92                     93
                      A                      A                      A
 Frequencies --   3228.7697              3249.4706              3259.4715
 Red. masses --      1.0956                 1.1151                 1.0898
 Frc consts  --      6.7292                 6.9371                 6.8215
 IR Inten    --      5.3553                10.1839                 4.8982

 - Thermochemistry -
 -------------------
 Temperature   298.150 Kelvin.  Pressure   1.00000 Atm.
 Atom     1 has atomic number  6 and mass  12.00000

 Molecular mass:   267.10078 amu.
 Principal axes and moments of inertia in atomic units:
                           1         2         3
     Eigenvalues --  3200.398478853.68721**********
           X            0.99993  -0.01121   0.00237
           Y            0.01116   0.99973   0.02015
           Z           -0.00260  -0.02013   0.99979
 This molecule is an asymmetric top.
 Rotational symmetry number  1.
 Warning -- assumption of classical behavior for rotation
           may cause significant error
 Rotational temperatures (Kelvin)      0.02706     0.00978     0.00826
 Rotational constants (GHZ):           0.56391     0.20384     0.17221
 Zero-point vibrational energy     666235.9 (Joules/Mol)
                                  159.23421 (Kcal/Mol)
 Warning -- explicit consideration of  26 degrees of freedom as
           vibrations may cause significant error
 Vibrational temperatures:     28.93    39.18    50.52    54.16    63.13
          (Kelvin)            127.51   165.17   191.21   240.13   281.20
                              292.52   320.01   380.33   411.84   486.04
                              519.76   573.35   598.03   642.21   676.55
                              701.41   748.38   755.98   773.93   802.35
                              861.32   896.12   914.47   934.46   989.32
                             1024.26  1043.16  1082.55  1087.44  1127.68
                             1183.51  1187.50  1238.27  1243.61  1259.32
                             1325.23  1358.27  1370.82  1378.22  1398.23
                             1437.74  1469.96  1499.91  1507.33  1521.34
                             1533.65  1567.83  1607.37  1612.56  1712.16
                             1719.10  1728.76  1743.95  1771.69  1777.48
                             1838.37  1874.71  1905.95  1927.64  1943.05
                             1967.19  1971.59  2043.93  2116.60  2127.40
                             2164.23  2194.71  2209.83  2228.51  2345.72
                             2372.79  2385.64  2401.72  2462.78  3132.17
                             4370.82  4461.16  4556.06  4564.41  4586.22
                             4587.19  4601.12  4616.67  4625.23  4627.32
                             4645.48  4675.26  4689.65

 Zero-point correction=                           0.253756 (Hartree/Particle)
 Thermal correction to Energy=                    0.271336
 Thermal correction to Enthalpy=                  0.272280
 Thermal correction to Gibbs Free Energy=         0.205043
 Sum of electronic and zero-point Energies=           -893.775718
 Sum of electronic and thermal Energies=              -893.758138
 Sum of electronic and thermal Enthalpies=            -893.757194
 Sum of electronic and thermal Free Energies=         -893.824431

                     E (Thermal)             CV                S
                      KCal/Mol        Cal/Mol-Kelvin    Cal/Mol-Kelvin
 Total                  170.266             66.453            141.513
 Electronic               0.000              0.000              0.000
 Translational            0.889              2.981             42.647
 Rotational               0.889              2.981             34.051
 Vibrational            168.488             60.491             64.816
 Vibration     1          0.593              1.986              6.623
 Vibration     2          0.593              1.984              6.022
 Vibration     3          0.594              1.982              5.517
 Vibration     4          0.594              1.982              5.380
 Vibration     5          0.595              1.980              5.076
 Vibration     6          0.601              1.957              3.690
 Vibration     7          0.608              1.937              3.186
 Vibration     8          0.613              1.920              2.904
 Vibration     9          0.624              1.883              2.470
 Vibration    10          0.636              1.846              2.176
 Vibration    11          0.639              1.835              2.103
 Vibration    12          0.648              1.807              1.939
 Vibration    13          0.671              1.738              1.633
 Vibration    14          0.684              1.699              1.496
 Vibration    15          0.718              1.600              1.222
 Vibration    16          0.735              1.552              1.117
 Vibration    17          0.765              1.473              0.968
 Vibration    18          0.779              1.436              0.907
 Vibration    19          0.806              1.369              0.807
 Vibration    20          0.827              1.316              0.737
 Vibration    21          0.843              1.278              0.690
 Vibration    22          0.875              1.205              0.610
 Vibration    23          0.880              1.194              0.597
 Vibration    24          0.893              1.166              0.570
 Vibration    25          0.913              1.123              0.529
 Vibration    26          0.957              1.035              0.452

 Optimization completed.
    -- Stationary point found.
 Normal termination of Gaussian 16 at Mon Dec 14 17:58:19 2020.

 ----------------------------------------------------------------------
 # B3LYP/6-311++G(d,p) empiricaldispersion=gd3bj scf=xqc pop=npa geom=c
 heck
 ----------------------------------------------------------------------

 ----------------------------------------
 CID_152720376_JID_10493_Energie_neutraal
 ----------------------------------------
 Structure from the checkpoint file:  "JID_10493.chk"
 Charge =  0 Multiplicity = 1

 SCF Done:  E(RB3LYP) =  -894.265886570     A.U. after   17 cycles
 Normal termination of Gaussian 16 at Mon Dec 14 18:04:24 2020.

 ----------------------------------------------------------------------
 # B3LYP/6-311++G(d,p) empiricaldispersion=gd3bj scf=xqc pop=npa geom=c
 heck
 ----------------------------------------------------------------------

 --------------------------------------
 CID_152720376_JID_10493_Energie_kation
 --------------------------------------
 Structure from the checkpoint file:  "JID_10493.chk"
 Charge =  1 Multiplicity = 2

 SCF Done:  E(UB3LYP) =  -893.974023516     A.U. after   33 cycles
 SCF Done:  E(UB3LYP) =  -893.974023516     a.u. after    1 cycles
 Normal termination of Gaussian 16 at Mon Dec 14 18:20:53 2020.
 Gaussian 16:  ES64L-G16RevA.03 25-Dec-2016

 ----------------------------------------------------------------------
 # B3LYP/6-311++G(d,p) empiricaldispersion=gd3bj scf=xqc pop=npa geom=c
 heck
 ----------------------------------------------------------------------

 -------------------------------------
 CID_152720376_JID_10493_Energie_anion
 -------------------------------------
 Structure from the checkpoint file:  "JID_10493.chk"
 Charge = -1 Multiplicity = 2

                         Standard orientation:
 ---------------------------------------------------------------------
 Center     Atomic      Atomic             Coordinates (Angstroms)
 Number     Number       Type             X           Y           Z
 ---------------------------------------------------------------------
      1          6           0       -0.890561   -2.195554   -1.444283
      2          6           0       -1.700843   -1.144825   -1.270165
      3          6           0       -1.297125    0.153062   -0.712599
      4          6           0       -2.241295    0.986812   -0.092317
      5          6           0       -1.868912    2.205745    0.476057
      6          6           0       -0.548488    2.625345    0.417808
      7          6           0        0.408646    1.814284   -0.211474
      8          6           0        0.032256    0.597290   -0.780122
      9          8           0        1.681221    2.312038   -0.223929
     10          6           0        2.700843    1.559603   -0.879669
     11          6           0        3.053795    0.266364   -0.176167
     12          6           0        3.006799    0.180486    1.218344
     13          6           0        3.341166   -1.010358    1.860949
     14          6           0        3.731562   -2.125472    1.116859
     15          6           0        3.783408   -2.044548   -0.275131
     16          6           0        3.441343   -0.853824   -0.917385
     17          8           0       -3.578904    0.623140   -0.060367
     18          7           0       -3.829041   -0.242640    1.131534
     19          7           0       -4.391873   -1.267716    0.695320
     20          7           0       -4.931521   -2.233951    0.409560
     21          1           0        0.156279   -2.177923   -1.151190
     22          1           0       -1.261282   -3.121765   -1.872266
     23          1           0       -2.750590   -1.234563   -1.538502
     24          1           0       -2.630045    2.810915    0.956904
     25          1           0       -0.234245    3.572586    0.842587
     26          1           0        0.758739   -0.027818   -1.279169
     27          1           0        2.415686    1.365383   -1.922515
     28          1           0        3.558178    2.239919   -0.891609
     29          1           0        2.689021    1.044964    1.792906
     30          1           0        3.293242   -1.069611    2.944589
     31          1           0        3.988664   -3.053648    1.619013
     32          1           0        4.080799   -2.909071   -0.861941
     33          1           0        3.468498   -0.797103   -2.003578
 ---------------------------------------------------------------------

 SCF Done:  E(UB3LYP) =  -894.293435400     A.U. after   27 cycles

 The electronic state is 2-A.
 Alpha  occ. eigenvalues --  -19.05181 -19.00038 -14.27728 -14.21693 -14.19205
 Alpha  occ. eigenvalues --  -10.14492 -10.11520 -10.10093 -10.09869 -10.09549
 Alpha  occ. eigenvalues --  -10.09478 -10.09466 -10.09203 -10.08467 -10.05369
 Alpha  occ. eigenvalues --  -10.05311 -10.05226 -10.05167 -10.04683 -10.03582
 Alpha  occ. eigenvalues --   -0.97031  -0.96870  -0.90048  -0.77990  -0.77111
 Alpha  occ. eigenvalues --   -0.72993  -0.69346  -0.66862  -0.66682  -0.62724
 Alpha  occ. eigenvalues --   -0.61116  -0.58011  -0.53021  -0.51828  -0.50893
 Alpha  occ. eigenvalues --   -0.47607  -0.44985  -0.43710  -0.42054  -0.41536
 Alpha  occ. eigenvalues --   -0.38906  -0.38749  -0.36790  -0.35414  -0.35269
 Alpha  occ. eigenvalues --   -0.34802  -0.34270  -0.33430  -0.33201  -0.31835
 Alpha  occ. eigenvalues --   -0.30982  -0.30024  -0.29321  -0.28457  -0.28403
 Alpha  occ. eigenvalues --   -0.27518  -0.26690  -0.26123  -0.25206  -0.23711
 Alpha  occ. eigenvalues --   -0.22191  -0.22081  -0.19204  -0.17779  -0.17275
 Alpha  occ. eigenvalues --   -0.16896  -0.14564  -0.12084  -0.09900  -0.07816
 Alpha  occ. eigenvalues --    0.03202
 Alpha virt. eigenvalues --    0.05732   0.06089   0.06246   0.07342   0.07909
 Alpha virt. eigenvalues --    0.08005   0.09402   0.09512   0.10015   0.10596
 Alpha virt. eigenvalues --    0.11639   0.11993   0.12591   0.12769   0.13363

  Beta  occ. eigenvalues --  -19.05171 -18.99648 -14.27431 -14.21532 -14.18436
  Beta  occ. eigenvalues --  -10.14492 -10.11476 -10.10068 -10.09878 -10.09523
  Beta  occ. eigenvalues --  -10.09447 -10.09430 -10.09212 -10.08396 -10.05371
  Beta  occ. eigenvalues --  -10.05292 -10.05228 -10.05040 -10.04688 -10.03439
  Beta  occ. eigenvalues --   -0.96840  -0.96124  -0.89171  -0.77941  -0.76405
  Beta  occ. eigenvalues --   -0.72759  -0.69263  -0.66807  -0.66525  -0.62626
  Beta  occ. eigenvalues --   -0.60996  -0.57809  -0.52979  -0.51725  -0.50719
  Beta  occ. eigenvalues --   -0.47341  -0.44895  -0.43593  -0.41616  -0.41004
  Beta  occ. eigenvalues --   -0.38836  -0.38687  -0.36732  -0.35241  -0.34811
  Beta  occ. eigenvalues --   -0.34650  -0.34238  -0.33246  -0.32480  -0.31490
  Beta  occ. eigenvalues --   -0.30515  -0.29906  -0.29171  -0.28331  -0.27461
  Beta  occ. eigenvalues --   -0.26890  -0.26426  -0.25872  -0.24967  -0.23536
  Beta  occ. eigenvalues --   -0.21975  -0.21702  -0.17960  -0.17635  -0.16990
  Beta  occ. eigenvalues --   -0.16585  -0.14146  -0.11766  -0.09236  -0.07338
  Beta virt. eigenvalues --    0.05941   0.06150   0.06269   0.07340   0.07879
  Beta virt. eigenvalues --    0.08409   0.09357   0.09521   0.09982   0.10407
  Beta virt. eigenvalues --    0.10637   0.11606   0.12276   0.12622   0.13324

 Mulliken charges and spin densities:
               1          2
     1  C   -0.824198   0.185436
     2  C    0.365228  -0.005354
     3  C    1.192370   0.129033
     4  C   -1.198285   0.035135
     5  C   -0.112723  -0.069981
     6  C   -0.037282   0.019322
     7  C   -0.502496  -0.004453
     8  C    0.095741  -0.013245
     9  O   -0.077960   0.001956
    10  C   -0.556030  -0.022969
    11  C    0.619467   0.009530
    12  C    0.166531  -0.005009
    13  C   -0.564985   0.019805
    14  C   -0.223527   0.021946
    15  C   -0.325609  -0.005859
    16  C   -0.251394   0.029672
    17  O   -0.064816   0.050144
    18  N   -0.445362   0.118877
    19  N    0.235008   0.055635
    20  N   -0.266192   0.405025
    21  H    0.050613  -0.002012
    22  H    0.126186  -0.004339
    23  H    0.195985  -0.006585
    24  H    0.141430   0.012696
    25  H    0.142232  -0.003831
    26  H   -0.012808   0.014822
    27  H    0.168929   0.017224
    28  H    0.186240   0.003430
    29  H    0.184565   0.001576
    30  H    0.156459  -0.001981
    31  H    0.140808  -0.001903
    32  H    0.155019   0.006125
    33  H    0.140857   0.010132
 Sum of Mulliken charges =  -1.00000   1.00000

 Dipole moment (field-independent basis, Debye):
    X=             12.5881    Y=              2.3107    Z=             -0.8476  Tot=             12.8265
 Quadrupole moment (field-independent basis, Debye-Ang):
   XX=           -190.2342   YY=           -137.5912   ZZ=           -124.6008
   XY=            -17.7657   XZ=              3.0734   YZ=              1.2197

 Summary of Natural Population Analysis:

                                       Natural Population
                Natural  -----------------------------------------------
    Atom  No    Charge         Core      Valence    Rydberg      Total
 -----------------------------------------------------------------------
      C    1   -0.16257      0.99959     2.15640    0.00658     3.16257
      C    2   -0.09750      0.99955     2.08810    0.00984     3.09750
      C    3   -0.01950      0.99945     2.00862    0.01143     3.01950
      C    4    0.16711      0.99933     1.81944    0.01411     2.83289
      C    5   -0.10975      0.99952     2.10149    0.00874     3.10975
      C    6   -0.12212      0.99954     2.11388    0.00870     3.12212
      C    7    0.15633      0.99939     1.83282    0.01147     2.84367
      C    8   -0.13912      0.99949     2.13093    0.00870     3.13912
      O    9   -0.28115      0.99986     3.27185    0.00943     4.28115
      C   10   -0.01451      0.99953     2.00396    0.01103     3.01451
      C   11   -0.02707      0.99950     2.01914    0.00844     3.02707
      C   12   -0.09696      0.99951     2.08900    0.00844     3.09696
      C   13   -0.09204      0.99958     2.08353    0.00893     3.09204
      C   14   -0.10226      0.99957     2.09357    0.00912     3.10226
      C   15   -0.10214      0.99958     2.09339    0.00918     3.10214
      C   16   -0.09736      0.99952     2.08944    0.00840     3.09736
      O   17   -0.20792      0.99987     3.19878    0.00926     4.20792
      N   18   -0.08007      0.99973     2.56495    0.01539     3.58007
      N   19    0.10760      0.99972     2.37644    0.01624     3.39240
      N   20    0.05321      0.99982     2.43362    0.01335     3.44679
      H   21    0.08554      0.00000     0.41332    0.00114     0.41446
      H   22    0.08803      0.00000     0.41098    0.00099     0.41197
      H   23    0.10554      0.00000     0.39265    0.00181     0.39446
      H   24    0.10349      0.00000     0.39551    0.00100     0.39651
      H   25    0.09809      0.00000     0.40053    0.00138     0.40191
      H   26    0.10297      0.00000     0.39533    0.00170     0.39703
      H   27    0.08819      0.00000     0.41050    0.00131     0.41181
      H   28    0.09536      0.00000     0.40366    0.00098     0.40464
      H   29    0.10764      0.00000     0.39099    0.00136     0.39236
      H   30    0.09851      0.00000     0.40056    0.00093     0.40149
      H   31    0.09769      0.00000     0.40139    0.00091     0.40231
      H   32    0.09815      0.00000     0.40088    0.00097     0.40185
      H   33    0.09857      0.00000     0.39998    0.00144     0.40143
 =======================================================================
   * Total *   -0.00000     19.99164    49.78563    0.22272    70.00000

 Normal termination of Gaussian 16 at Mon Dec 14 18:34:15 2020.
