 Gaussian 16, Revision A.03,

 -----------------------------------------------------------
 # opt freq B3LYP/6-31G(d) empiricaldispersion=gd3bj scf=xqc
 -----------------------------------------------------------

 ------------------------------
 CID_4328824_JID_10123_neutraal
 ------------------------------
 Symbolic Z-matrix:
 Charge =  0 Multiplicity = 1

 SCF Done:  E(RB3LYP) =  -864.561521726     A.U. after   15 cycles
 SCF Done:  E(RB3LYP) =  -864.569900986     A.U. after   14 cycles
 SCF Done:  E(RB3LYP) =  -864.568911527     A.U. after   13 cycles
 SCF Done:  E(RB3LYP) =  -864.571321018     A.U. after   13 cycles
 SCF Done:  E(RB3LYP) =  -864.571591861     A.U. after   12 cycles
 SCF Done:  E(RB3LYP) =  -864.571782453     A.U. after   13 cycles
 SCF Done:  E(RB3LYP) =  -864.571828958     A.U. after   12 cycles
 SCF Done:  E(RB3LYP) =  -864.571864810     A.U. after   12 cycles
 SCF Done:  E(RB3LYP) =  -864.571868850     A.U. after    9 cycles
 SCF Done:  E(RB3LYP) =  -864.571869594     A.U. after    8 cycles
 SCF Done:  E(RB3LYP) =  -864.571869965     A.U. after    8 cycles
 SCF Done:  E(RB3LYP) =  -864.571870433     A.U. after    9 cycles
 SCF Done:  E(RB3LYP) =  -864.571870786     A.U. after    8 cycles
 SCF Done:  E(RB3LYP) =  -864.571871028     A.U. after    8 cycles
 SCF Done:  E(RB3LYP) =  -864.571871056     A.U. after    7 cycles
 Optimization completed.
    -- Stationary point found.
 Normal termination of Gaussian 16 at Thu Dec 17 20:15:37 2020.

 --------------------------------------------------------------------
 #N Geom=AllCheck Guess=TCheck SCRF=Check GenChk RB3LYP/6-31G(d) Freq
 --------------------------------------------------------------------

 Structure from the checkpoint file:  "JID_10123.chk"
 ------------------------------
 CID_4328824_JID_10123_neutraal
 ------------------------------
 Charge =  0 Multiplicity = 1

 SCF Done:  E(RB3LYP) =  -864.571871056     A.U. after    1 cycles

  Exact polarizability: 282.500 -17.504 204.996  -3.191   3.063 106.998
 Approx polarizability: 393.291 -38.320 353.153  -9.520   7.520 158.825

                      1                      2                      3
                      A                      A                      A
 Frequencies --     11.8378                26.1952                31.5027
 Red. masses --      2.1177                 8.6032                 2.6990
 Frc consts  --      0.0002                 0.0035                 0.0016
 IR Inten    --      0.0500                 1.1866                 0.0892

                      4                      5                      6
                      A                      A                      A
 Frequencies --     37.9442                45.7951                80.3381
 Red. masses --      2.7212                 3.0658                 3.4206
 Frc consts  --      0.0023                 0.0038                 0.0130
 IR Inten    --      0.0295                 0.5000                 0.2231

                      7                      8                      9
                      A                      A                      A
 Frequencies --     95.8360               123.3153               166.8192
 Red. masses --      3.8419                 3.9982                 3.2059
 Frc consts  --      0.0208                 0.0358                 0.0526
 IR Inten    --      0.1477                 0.0548                 0.0703

                     10                     11                     12
                      A                      A                      A
 Frequencies --    189.1651               197.3807               209.2294
 Red. masses --      4.0970                 2.6560                 3.6711
 Frc consts  --      0.0864                 0.0610                 0.0947
 IR Inten    --      1.6806                 0.9604                 0.6210

                     13                     14                     15
                      A                      A                      A
 Frequencies --    228.8767               259.2335               307.5388
 Red. masses --      1.7830                 2.4210                 4.0389
 Frc consts  --      0.0550                 0.0959                 0.2251
 IR Inten    --      0.0672                 0.7080                 0.7059

                     16                     17                     18
                      A                      A                      A
 Frequencies --    322.8354               368.4124               394.6257
 Red. masses --      4.3396                 6.4641                 3.4779
 Frc consts  --      0.2665                 0.5169                 0.3191
 IR Inten    --      0.7608                 2.1016                 2.7101

                     19                     20                     21
                      A                      A                      A
 Frequencies --    424.9498               435.1910               463.3051
 Red. masses --      4.0997                 4.3835                 3.4397
 Frc consts  --      0.4362                 0.4891                 0.4350
 IR Inten    --      2.3110                 0.8603                 1.9673

                     22                     23                     24
                      A                      A                      A
 Frequencies --    511.6728               529.5061               553.2059
 Red. masses --      3.3442                 2.6946                 5.1207
 Frc consts  --      0.5159                 0.4451                 0.9233
 IR Inten    --      2.3111                 4.3389                 2.6377

                     25                     26                     27
                      A                      A                      A
 Frequencies --    612.1128               619.4348               626.4617
 Red. masses --      2.9124                 2.6564                 2.8371
 Frc consts  --      0.6429                 0.6005                 0.6560
 IR Inten    --     21.6196                32.3442                 3.2982

                     28                     29                     30
                      A                      A                      A
 Frequencies --    649.4397               665.9544               710.6787
 Red. masses --      4.9140                 1.8960                 4.2661
 Frc consts  --      1.2211                 0.4954                 1.2695
 IR Inten    --     68.3955                48.0687                 1.5181

                     31                     32                     33
                      A                      A                      A
 Frequencies --    721.3898               733.3466               781.1701
 Red. masses --      3.4545                 4.9575                 2.5860
 Frc consts  --      1.0592                 1.5708                 0.9297
 IR Inten    --      1.3042                 6.3632                18.1333

                     34                     35                     36
                      A                      A                      A
 Frequencies --    785.0305               801.6976               804.4655
 Red. masses --      1.7605                 1.2277                 3.3064
 Frc consts  --      0.6392                 0.4649                 1.2607
 IR Inten    --     11.0083                 1.7984                 8.6586

                     37                     38                     39
                      A                      A                      A
 Frequencies --    833.4318               857.7360               866.1488
 Red. masses --      1.7630                 1.6683                 3.4888
 Frc consts  --      0.7215                 0.7232                 1.5421
 IR Inten    --      0.6177                23.1490                 8.8158

                     40                     41                     42
                      A                      A                      A
 Frequencies --    883.6732               899.0884               913.0713
 Red. masses --      5.6336                 2.9394                 1.6048
 Frc consts  --      2.5919                 1.3999                 0.7883
 IR Inten    --      0.1552                 4.1646                 5.5733

                     43                     44                     45
                      A                      A                      A
 Frequencies --    915.6566               942.8511               967.5758
 Red. masses --      2.3924                 1.5664                 1.8585
 Frc consts  --      1.1818                 0.8204                 1.0251
 IR Inten    --      1.3605                 8.8707                 0.4168

                     46                     47                     48
                      A                      A                      A
 Frequencies --    984.1509               985.1658               987.2979
 Red. masses --      1.6411                 1.4635                 2.1374
 Frc consts  --      0.9365                 0.8369                 1.2275
 IR Inten    --      0.6937                 0.7085                 1.6378

                     49                     50                     51
                      A                      A                      A
 Frequencies --   1000.1849              1005.8502              1045.7330
 Red. masses --      1.3879                 3.3261                 3.0509
 Frc consts  --      0.8180                 1.9827                 1.9657
 IR Inten    --      0.7552                 2.1262                12.6034

                     52                     53                     54
                      A                      A                      A
 Frequencies --   1068.5981              1086.6590              1092.8362
 Red. masses --      2.2180                 1.8903                 3.4624
 Frc consts  --      1.4923                 1.3151                 2.4364
 IR Inten    --      2.7947                19.3903                 0.8869

                     55                     56                     57
                      A                      A                      A
 Frequencies --   1105.0761              1164.6459              1178.2455
 Red. masses --      1.5598                 1.5105                 2.4409
 Frc consts  --      1.1223                 1.2072                 1.9965
 IR Inten    --      0.3129                18.3810               163.8509

                     58                     59                     60
                      A                      A                      A
 Frequencies --   1192.1827              1205.7942              1219.9597
 Red. masses --      1.2998                 1.6795                 1.4756
 Frc consts  --      1.0884                 1.4387                 1.2939
 IR Inten    --      1.5528                60.7297                 0.4900

                     61                     62                     63
                      A                      A                      A
 Frequencies --   1234.4795              1245.4711              1267.7101
 Red. masses --      1.6311                 1.6784                 2.3603
 Frc consts  --      1.4646                 1.5339                 2.2349
 IR Inten    --     39.3459                 2.2284                48.4985

                     64                     65                     66
                      A                      A                      A
 Frequencies --   1279.7125              1291.7399              1298.8067
 Red. masses --      1.2585                 1.3534                 1.6385
 Frc consts  --      1.2143                 1.3305                 1.6285
 IR Inten    --      1.8768                 7.2297                 3.7590

                     67                     68                     69
                      A                      A                      A
 Frequencies --   1310.5771              1325.2724              1338.3744
 Red. masses --      1.2704                 2.0615                 1.4896
 Frc consts  --      1.2856                 2.1333                 1.5721
 IR Inten    --      0.5716                 6.9882                18.5559

                     70                     71                     72
                      A                      A                      A
 Frequencies --   1352.6497              1353.7020              1359.3022
 Red. masses --      1.4602                 1.3236                 1.3914
 Frc consts  --      1.5741                 1.4291                 1.5147
 IR Inten    --      0.6572                 0.8401                 2.5068

                     73                     74                     75
                      A                      A                      A
 Frequencies --   1369.0589              1374.0645              1394.7228
 Red. masses --      1.7035                 2.2334                 2.8181
 Frc consts  --      1.8812                 2.4844                 3.2298
 IR Inten    --      6.2254                17.0084                52.7263

                     76                     77                     78
                      A                      A                      A
 Frequencies --   1404.4757              1428.7633              1436.4867
 Red. masses --      2.5732                 2.9950                 1.2989
 Frc consts  --      2.9906                 3.6022                 1.5791
 IR Inten    --     33.1071                57.7039                 7.0223

                     79                     80                     81
                      A                      A                      A
 Frequencies --   1461.5232              1515.4595              1516.3360
 Red. masses --      2.4875                 3.4616                 1.0792
 Frc consts  --      3.1306                 4.6840                 1.4619
 IR Inten    --     36.9134                 2.0404                 0.4578

                     82                     83                     84
                      A                      A                      A
 Frequencies --   1517.1966              1525.5941              1526.2363
 Red. masses --      1.1036                 1.0923                 1.0415
 Frc consts  --      1.4967                 1.4978                 1.4294
 IR Inten    --      1.2956                 1.2047                 7.9520

                     85                     86                     87
                      A                      A                      A
 Frequencies --   1527.2560              1538.7305              1549.4885
 Red. masses --      1.0836                 1.1109                 1.2344
 Frc consts  --      1.4892                 1.5497                 1.7462
 IR Inten    --      3.1776                 2.0435                 1.4264

                     88                     89                     90
                      A                      A                      A
 Frequencies --   1554.3071              1607.7844              1642.7398
 Red. masses --      2.6058                 7.3427                 7.0197
 Frc consts  --      3.7090                11.1831                11.1611
 IR Inten    --     28.9600                10.4604                65.2084

                     91                     92                     93
                      A                      A                      A
 Frequencies --   1683.1980              1812.3731              3039.6283
 Red. masses --      6.0787                 9.6138                 1.0840
 Frc consts  --     10.1468                18.6054                 5.9008
 IR Inten    --      9.1225               287.6849                17.8188

                     94                     95                     96
                      A                      A                      A
 Frequencies --   3042.9452              3050.2969              3052.6131
 Red. masses --      1.0626                 1.0346                 1.0654
 Frc consts  --      5.7972                 5.6715                 5.8492
 IR Inten    --     34.2841                37.1539                26.5853

                     97                     98                     99
                      A                      A                      A
 Frequencies --   3062.9497              3064.6744              3074.5469
 Red. masses --      1.0605                 1.0604                 1.0623
 Frc consts  --      5.8619                 5.8679                 5.9165
 IR Inten    --     27.4948                49.6159                37.9184

                    100                    101                    102
                      A                      A                      A
 Frequencies --   3084.2127              3089.0411              3104.1675
 Red. masses --      1.1009                 1.1004                 1.1034
 Frc consts  --      6.1699                 6.1868                 6.2646
 IR Inten    --      8.2674                21.2438                13.3223

                    103                    104                    105
                      A                      A                      A
 Frequencies --   3111.7723              3120.5246              3122.9730
 Red. masses --      1.1066                 1.1027                 1.1058
 Frc consts  --      6.3135                 6.3263                 6.3544
 IR Inten    --     21.4730                50.7316                66.5479

                    106                    107                    108
                      A                      A                      A
 Frequencies --   3125.2287              3182.2223              3219.7225
 Red. masses --      1.1036                 1.0888                 1.0938
 Frc consts  --      6.3506                 6.4959                 6.6807
 IR Inten    --     33.4723                16.7176                 8.8250

                    109                    110                    111
                      A                      A                      A
 Frequencies --   3230.2935              3260.6180              3681.8724
 Red. masses --      1.0908                 1.0893                 1.0639
 Frc consts  --      6.7061                 6.8231                 8.4972
 IR Inten    --      1.2524                 5.6785                74.0586

 - Thermochemistry -
 -------------------
 Temperature   298.150 Kelvin.  Pressure   1.00000 Atm.
 Atom     1 has atomic number  6 and mass  12.00000

 Molecular mass:   269.14158 amu.
 Principal axes and moments of inertia in atomic units:
                           1         2         3
     Eigenvalues --  3329.464279327.19493**********
           X            0.99997  -0.00715   0.00234
           Y            0.00715   0.99997  -0.00326
           Z           -0.00232   0.00328   0.99999
 This molecule is an asymmetric top.
 Rotational symmetry number  1.
 Warning -- assumption of classical behavior for rotation
           may cause significant error
 Rotational temperatures (Kelvin)      0.02601     0.00929     0.00722
 Rotational constants (GHZ):           0.54205     0.19349     0.15054
 Zero-point vibrational energy     865446.8 (Joules/Mol)
                                  206.84674 (Kcal/Mol)
 Warning -- explicit consideration of  26 degrees of freedom as
           vibrations may cause significant error
 Vibrational temperatures:     17.03    37.69    45.33    54.59    65.89
          (Kelvin)            115.59   137.89   177.42   240.02   272.17
                              283.99   301.03   329.30   372.98   442.48
                              464.49   530.06   567.78   611.41   626.14
                              666.59   736.18   761.84   795.94   880.69
                              891.23   901.34   934.40   958.16  1022.51
                             1037.92  1055.12  1123.93  1129.48  1153.46
                             1157.45  1199.12  1234.09  1246.19  1271.41
                             1293.59  1313.71  1317.43  1356.55  1392.13
                             1415.97  1417.43  1420.50  1439.04  1447.19
                             1504.58  1537.47  1563.46  1572.35  1589.96
                             1675.67  1695.23  1715.29  1734.87  1755.25
                             1776.14  1791.96  1823.95  1841.22  1858.53
                             1868.69  1885.63  1906.77  1925.62  1946.16
                             1947.68  1955.73  1969.77  1976.97  2006.70
                             2020.73  2055.67  2066.78  2102.81  2180.41
                             2181.67  2182.91  2194.99  2195.91  2197.38
                             2213.89  2229.37  2236.30  2313.24  2363.54
                             2421.75  2607.60  4373.35  4378.12  4388.70
                             4392.03  4406.90  4409.38  4423.59  4437.49
                             4444.44  4466.20  4477.15  4489.74  4493.26
                             4496.51  4578.51  4632.46  4647.67  4691.30
                             5297.39

 Zero-point correction=                           0.329631 (Hartree/Particle)
 Thermal correction to Energy=                    0.347712
 Thermal correction to Enthalpy=                  0.348656
 Thermal correction to Gibbs Free Energy=         0.279635
 Sum of electronic and zero-point Energies=           -864.242240
 Sum of electronic and thermal Energies=              -864.224159
 Sum of electronic and thermal Enthalpies=            -864.223215
 Sum of electronic and thermal Free Energies=         -864.292236

                     E (Thermal)             CV                S
                      KCal/Mol        Cal/Mol-Kelvin    Cal/Mol-Kelvin
 Total                  218.193             68.748            145.267
 Electronic               0.000              0.000              0.000
 Translational            0.889              2.981             42.669
 Rotational               0.889              2.981             34.275
 Vibrational            216.415             62.786             68.322
 Vibration     1          0.593              1.987              7.676
 Vibration     2          0.593              1.985              6.099
 Vibration     3          0.594              1.983              5.732
 Vibration     4          0.594              1.982              5.364
 Vibration     5          0.595              1.979              4.991
 Vibration     6          0.600              1.963              3.883
 Vibration     7          0.603              1.952              3.537
 Vibration     8          0.610              1.930              3.048
 Vibration     9          0.624              1.883              2.471
 Vibration    10          0.633              1.855              2.236
 Vibration    11          0.637              1.844              2.157
 Vibration    12          0.642              1.827              2.050
 Vibration    13          0.652              1.797              1.888
 Vibration    14          0.668              1.747              1.667
 Vibration    15          0.697              1.659              1.376
 Vibration    16          0.708              1.630              1.296
 Vibration    17          0.741              1.537              1.086
 Vibration    18          0.762              1.482              0.983
 Vibration    19          0.787              1.416              0.875
 Vibration    20          0.796              1.394              0.842
 Vibration    21          0.821              1.331              0.757
 Vibration    22          0.867              1.224              0.630
 Vibration    23          0.884              1.185              0.588
 Vibration    24          0.909              1.133              0.538
 Vibration    25          0.971              1.006              0.429
 Vibration    26          0.979              0.991              0.417

                           ! Non-Optimized Parameters !
 Normal termination of Gaussian 16 at Thu Dec 17 20:34:53 2020.

 ----------------------------------------------------------------------
 # B3LYP/6-311++G(d,p) empiricaldispersion=gd3bj scf=xqc pop=npa geom=c
 heck
 ----------------------------------------------------------------------

 --------------------------------------
 CID_4328824_JID_10123_Energie_neutraal
 --------------------------------------
 Structure from the checkpoint file:  "JID_10123.chk"
 Charge =  0 Multiplicity = 1

 SCF Done:  E(RB3LYP) =  -864.803650867     A.U. after   16 cycles
 Normal termination of Gaussian 16 at Thu Dec 17 20:44:23 2020.

 ----------------------------------------------------------------------
 # B3LYP/6-311++G(d,p) empiricaldispersion=gd3bj scf=xqc pop=npa geom=c
 heck
 ----------------------------------------------------------------------

 ------------------------------------
 CID_4328824_JID_10123_Energie_kation
 ------------------------------------
 Structure from the checkpoint file:  "JID_10123.chk"
 Charge =  1 Multiplicity = 2

 SCF Done:  E(UB3LYP) =  -864.506895438     A.U. after   23 cycles
 Normal termination of Gaussian 16 at Thu Dec 17 21:03:56 2020.
 Gaussian 16:  ES64L-G16RevA.03 25-Dec-2016

 ----------------------------------------------------------------------
 # B3LYP/6-311++G(d,p) empiricaldispersion=gd3bj scf=xqc pop=npa geom=c
 heck
 ----------------------------------------------------------------------

 -----------------------------------
 CID_4328824_JID_10123_Energie_anion
 -----------------------------------
 Structure from the checkpoint file:  "JID_10123.chk"
 Charge = -1 Multiplicity = 2

                         Standard orientation:
 ---------------------------------------------------------------------
 Center     Atomic      Atomic             Coordinates (Angstroms)
 Number     Number       Type             X           Y           Z
 ---------------------------------------------------------------------
      1          6           0        5.295968   -1.648575    0.934223
      2          6           0        4.683269   -1.235138   -0.414285
      3          6           0        3.179391   -1.111098   -0.343761
      4          6           0        2.573251    0.125034   -0.244740
      5          6           0        1.163302    0.259774   -0.133675
      6          6           0        0.366810   -0.936882   -0.140567
      7          6           0        1.011298   -2.198503   -0.240075
      8          6           0        2.376482   -2.282834   -0.336771
      9          7           0       -0.989565   -0.940104   -0.062208
     10          6           0       -1.632068    0.212992    0.013689
     11          6           0       -0.942849    1.447446    0.023461
     12          6           0        0.437029    1.490589   -0.037147
     13          6           0        1.016897    2.868565    0.004202
     14          8           0        0.363610    3.881219   -0.149031
     15          8           0        2.346742    2.926762    0.262496
     16          6           0       -3.138529    0.163090    0.085932
     17          6           0       -3.797939   -0.528167   -1.124985
     18          6           0       -5.236909   -0.794627   -0.653002
     19          6           0       -5.127534   -1.052118    0.877391
     20          6           0       -3.679040   -0.667809    1.271762
     21          1           0        5.067853   -0.905372    1.705793
     22          1           0        6.384821   -1.743529    0.858111
     23          1           0        4.893632   -2.610638    1.270634
     24          1           0        5.115388   -0.280004   -0.734056
     25          1           0        4.955670   -1.976239   -1.177178
     26          1           0        3.187902    1.014208   -0.250593
     27          1           0        0.377397   -3.079035   -0.244161
     28          1           0        2.858130   -3.254414   -0.417545
     29          1           0       -1.492892    2.379505    0.083503
     30          1           0        2.563288    3.878440    0.269062
     31          1           0       -3.520812    1.189973    0.158082
     32          1           0       -3.745461    0.073748   -2.038643
     33          1           0       -3.264843   -1.467604   -1.311515
     34          1           0       -5.701896   -1.628239   -1.189152
     35          1           0       -5.857446    0.089636   -0.841209
     36          1           0       -5.332775   -2.098337    1.126229
     37          1           0       -5.861288   -0.450409    1.423930
     38          1           0       -3.053547   -1.561401    1.366201
     39          1           0       -3.621959   -0.123835    2.220337
 ---------------------------------------------------------------------

 SCF Done:  E(UB3LYP) =  -864.836964980     A.U. after   24 cycles

 The electronic state is 2-A.
 Alpha  occ. eigenvalues --  -19.03419 -18.95920 -14.13964 -10.14769 -10.06578
 Alpha  occ. eigenvalues --  -10.06555 -10.06495 -10.06387 -10.06196 -10.05614
 Alpha  occ. eigenvalues --  -10.05248 -10.05056 -10.05006 -10.04601 -10.04378
 Alpha  occ. eigenvalues --  -10.03832 -10.03061 -10.02995 -10.02802 -10.01812
 Alpha  occ. eigenvalues --   -0.97121  -0.87428  -0.79592  -0.72983  -0.71592
 Alpha  occ. eigenvalues --   -0.66946  -0.66188  -0.62404  -0.60092  -0.60017
 Alpha  occ. eigenvalues --   -0.58358  -0.53685  -0.51923  -0.49034  -0.47689
 Alpha  occ. eigenvalues --   -0.46260  -0.45159  -0.43294  -0.39978  -0.37785
 Alpha  occ. eigenvalues --   -0.37309  -0.37235  -0.34918  -0.34695  -0.33177
 Alpha  occ. eigenvalues --   -0.31936  -0.31611  -0.31115  -0.30773  -0.30534
 Alpha  occ. eigenvalues --   -0.29225  -0.28091  -0.27808  -0.27111  -0.26614
 Alpha  occ. eigenvalues --   -0.26081  -0.24342  -0.23732  -0.23645  -0.23139
 Alpha  occ. eigenvalues --   -0.22882  -0.21744  -0.21170  -0.20970  -0.20143
 Alpha  occ. eigenvalues --   -0.19533  -0.18601  -0.16302  -0.14167  -0.10969
 Alpha  occ. eigenvalues --   -0.10906  -0.09600   0.02253
 Alpha virt. eigenvalues --    0.07178   0.07271   0.08915   0.09191   0.09295
 Alpha virt. eigenvalues --    0.09555   0.09705   0.10655   0.11432   0.11750
 Alpha virt. eigenvalues --    0.12037   0.12143   0.12424   0.12438   0.12917

  Beta  occ. eigenvalues --  -19.03366 -18.95681 -14.13458 -10.14584 -10.06579
  Beta  occ. eigenvalues --  -10.06556 -10.06501 -10.06376 -10.06263 -10.05586
  Beta  occ. eigenvalues --  -10.05255 -10.05047 -10.04997 -10.04614 -10.04297
  Beta  occ. eigenvalues --  -10.03814 -10.02855 -10.02770 -10.02722 -10.01619
  Beta  occ. eigenvalues --   -0.96888  -0.87069  -0.78991  -0.72929  -0.71381
  Beta  occ. eigenvalues --   -0.66680  -0.65736  -0.62278  -0.60075  -0.59703
  Beta  occ. eigenvalues --   -0.58220  -0.53150  -0.51767  -0.48814  -0.47587
  Beta  occ. eigenvalues --   -0.46245  -0.45015  -0.43050  -0.39765  -0.37673
  Beta  occ. eigenvalues --   -0.37205  -0.37160  -0.34723  -0.34630  -0.33076
  Beta  occ. eigenvalues --   -0.31528  -0.31277  -0.30910  -0.30737  -0.30073
  Beta  occ. eigenvalues --   -0.29084  -0.27945  -0.27655  -0.26635  -0.26189
  Beta  occ. eigenvalues --   -0.25903  -0.24274  -0.23719  -0.23584  -0.22987
  Beta  occ. eigenvalues --   -0.22783  -0.21722  -0.21078  -0.20887  -0.19989
  Beta  occ. eigenvalues --   -0.18635  -0.17600  -0.14979  -0.13851  -0.10423
  Beta  occ. eigenvalues --   -0.09927  -0.08175
  Beta virt. eigenvalues --    0.07059   0.07259   0.08099   0.08897   0.09174
  Beta virt. eigenvalues --    0.09300   0.09536   0.09692   0.10647   0.11577
  Beta virt. eigenvalues --    0.11993   0.12128   0.12277   0.12436   0.12672

 Mulliken charges and spin densities:
               1          2
     1  C   -0.611413  -0.021075
     2  C   -0.368562   0.016451
     3  C    0.926208   0.018996
     4  C   -0.819924   0.067971
     5  C    0.207510   0.002450
     6  C   -0.712879  -0.039856
     7  C   -0.364645   0.101928
     8  C   -0.356762   0.007092
     9  N    0.189763   0.245183
    10  C   -0.359635   0.038549
    11  C   -0.348272   0.186793
    12  C    0.440700   0.137183
    13  C    0.482622   0.129323
    14  O   -0.373170   0.087194
    15  O   -0.225038   0.012635
    16  C    0.387905   0.012069
    17  C   -0.500631  -0.010681
    18  C   -0.393206  -0.001745
    19  C   -0.355471   0.001930
    20  C   -0.586829  -0.005060
    21  H    0.142358  -0.004319
    22  H    0.075940   0.019179
    23  H    0.128359   0.005831
    24  H    0.135828   0.008978
    25  H    0.124019  -0.002545
    26  H    0.170567  -0.003890
    27  H    0.116399  -0.008231
    28  H    0.124966  -0.000512
    29  H    0.201615  -0.013051
    30  H    0.273744  -0.000888
    31  H    0.173017  -0.000083
    32  H    0.131949   0.010350
    33  H    0.160827  -0.004127
    34  H    0.130427   0.000596
    35  H    0.114701  -0.000171
    36  H    0.116132   0.000250
    37  H    0.113555  -0.000233
    38  H    0.178377  -0.003065
    39  H    0.128948   0.008602
 Sum of Mulliken charges =  -1.00000   1.00000

 Dipole moment (field-independent basis, Debye):
    X=             -0.2422    Y=             -2.2967    Z=              0.4522  Tot=              2.3533
 Quadrupole moment (field-independent basis, Debye-Ang):
   XX=           -150.5099   YY=           -150.8148   ZZ=           -130.1808
   XY=              3.2661   XZ=             -0.5087   YZ=              1.7914

 Summary of Natural Population Analysis:

                                       Natural Population
                Natural  -----------------------------------------------
    Atom  No    Charge         Core      Valence    Rydberg      Total
 -----------------------------------------------------------------------
      C    1   -0.27981      0.99967     2.27618    0.00396     3.27981
      C    2   -0.19421      0.99962     2.18621    0.00838     3.19421
      C    3   -0.01853      0.99953     2.00836    0.01064     3.01853
      C    4   -0.06654      0.99949     2.06110    0.00596     3.06654
      C    5   -0.04066      0.99950     2.02848    0.01267     3.04066
      C    6    0.06996      0.99950     1.91851    0.01204     2.93004
      C    7   -0.06926      0.99954     2.05952    0.01020     3.06926
      C    8   -0.11220      0.99952     2.10377    0.00891     3.11220
      N    9   -0.17916      0.99964     2.66402    0.01550     3.67916
      C   10    0.10385      0.99956     1.88116    0.01544     2.89615
      C   11   -0.03534      0.99950     2.02971    0.00613     3.03534
      C   12   -0.03014      0.99946     2.01310    0.01759     3.03014
      C   13    0.44862      0.99969     1.52740    0.02429     2.55138
      O   14   -0.31485      0.99988     3.30421    0.01076     4.31485
      O   15   -0.35686      0.99988     3.34721    0.00977     4.35686
      C   16   -0.11790      0.99957     2.10704    0.01128     3.11790
      C   17   -0.18614      0.99963     2.17920    0.00732     3.18614
      C   18   -0.19233      0.99965     2.18629    0.00639     3.19233
      C   19   -0.19351      0.99966     2.18747    0.00639     3.19351
      C   20   -0.18746      0.99963     2.18065    0.00718     3.18746
      H   21    0.09786      0.00000     0.40116    0.00099     0.40214
      H   22    0.08861      0.00000     0.41022    0.00116     0.41139
      H   23    0.09539      0.00000     0.40358    0.00102     0.40461
      H   24    0.09563      0.00000     0.40349    0.00088     0.40437
      H   25    0.09175      0.00000     0.40690    0.00135     0.40825
      H   26    0.10256      0.00000     0.39588    0.00155     0.39744
      H   27    0.09937      0.00000     0.39970    0.00093     0.40063
      H   28    0.08859      0.00000     0.41004    0.00137     0.41141
      H   29    0.10263      0.00000     0.39624    0.00113     0.39737
      H   30    0.22986      0.00000     0.26579    0.00435     0.27014
      H   31    0.09217      0.00000     0.40586    0.00197     0.40783
      H   32    0.09711      0.00000     0.40191    0.00098     0.40289
      H   33    0.10419      0.00000     0.39465    0.00116     0.39581
      H   34    0.09271      0.00000     0.40621    0.00108     0.40729
      H   35    0.08959      0.00000     0.40918    0.00123     0.41041
      H   36    0.09240      0.00000     0.40654    0.00105     0.40760
      H   37    0.09054      0.00000     0.40834    0.00111     0.40946
      H   38    0.10659      0.00000     0.39226    0.00116     0.39341
      H   39    0.09572      0.00000     0.40331    0.00097     0.40428
 =======================================================================
   * Total *    0.00080     19.99210    51.77085    0.23625    71.99920

 Normal termination of Gaussian 16 at Thu Dec 17 21:24:21 2020.
