 Gaussian 16, Revision A.03,

 -----------------------------------------------------------
 # opt freq B3LYP/6-31G(d) empiricaldispersion=gd3bj scf=xqc
 -----------------------------------------------------------

 ------------------------------
 CID_92110852_JID_9718_neutraal
 ------------------------------
 Symbolic Z-matrix:
 Charge =  0 Multiplicity = 1

 SCF Done:  E(RB3LYP) =  -1273.11165756     A.U. after   15 cycles
 SCF Done:  E(RB3LYP) =  -1273.11976983     A.U. after   13 cycles
 SCF Done:  E(RB3LYP) =  -1273.12162610     A.U. after   13 cycles
 SCF Done:  E(RB3LYP) =  -1273.12257808     A.U. after   13 cycles
 SCF Done:  E(RB3LYP) =  -1273.12369818     A.U. after   13 cycles
 SCF Done:  E(RB3LYP) =  -1273.12460968     A.U. after   15 cycles
 SCF Done:  E(RB3LYP) =  -1273.12518680     A.U. after   13 cycles
 SCF Done:  E(RB3LYP) =  -1273.12552941     A.U. after   12 cycles
 SCF Done:  E(RB3LYP) =  -1273.12536431     A.U. after   13 cycles
 SCF Done:  E(RB3LYP) =  -1273.12575782     A.U. after   13 cycles
 SCF Done:  E(RB3LYP) =  -1273.12606603     A.U. after   10 cycles
 SCF Done:  E(RB3LYP) =  -1273.12607295     A.U. after   10 cycles
 SCF Done:  E(RB3LYP) =  -1273.12607579     A.U. after   10 cycles
 SCF Done:  E(RB3LYP) =  -1273.12607649     A.U. after    8 cycles
 SCF Done:  E(RB3LYP) =  -1273.12607657     A.U. after    7 cycles
 Optimization completed.
    -- Stationary point found.
 Normal termination of Gaussian 16 at Sun Dec 13 12:48:22 2020.

 --------------------------------------------------------------------
 #N Geom=AllCheck Guess=TCheck SCRF=Check GenChk RB3LYP/6-31G(d) Freq
 --------------------------------------------------------------------

 Structure from the checkpoint file:  "JID_9718.chk"
 ------------------------------
 CID_92110852_JID_9718_neutraal
 ------------------------------
 Charge =  0 Multiplicity = 1

 SCF Done:  E(RB3LYP) =  -1273.12607657     A.U. after    1 cycles

  Exact polarizability: 195.490  16.475 129.799  -0.956   0.368 137.001
 Approx polarizability: 290.735  20.969 191.967  -3.455   1.958 255.723

                      1                      2                      3
                      A                      A                      A
 Frequencies --     20.3988                42.8613                44.3199
 Red. masses --      5.5899                 6.2568                 8.0695
 Frc consts  --      0.0014                 0.0068                 0.0093
 IR Inten    --      1.1698                 1.6403                 0.0333

                      4                      5                      6
                      A                      A                      A
 Frequencies --     47.6105                67.3185                74.6562
 Red. masses --      5.0567                 6.2099                 6.8560
 Frc consts  --      0.0068                 0.0166                 0.0225
 IR Inten    --      0.1742                 1.1900                 0.2675

                      7                      8                      9
                      A                      A                      A
 Frequencies --     77.4311               118.9299               143.9163
 Red. masses --      8.5890                 6.3137                 6.0856
 Frc consts  --      0.0303                 0.0526                 0.0743
 IR Inten    --      4.7942                 0.2792                 1.5942

                     10                     11                     12
                      A                      A                      A
 Frequencies --    201.5879               211.9447               245.7074
 Red. masses --      6.8989                 1.1379                 6.9659
 Frc consts  --      0.1652                 0.0301                 0.2478
 IR Inten    --      0.8469                83.9447                 6.2927

                     13                     14                     15
                      A                      A                      A
 Frequencies --    256.6961               301.9762               308.0618
 Red. masses --      4.2743                 6.5824                 5.9089
 Frc consts  --      0.1659                 0.3537                 0.3304
 IR Inten    --      6.7047                15.5481                 7.7549

                     16                     17                     18
                      A                      A                      A
 Frequencies --    332.0311               345.5971               355.5479
 Red. masses --      4.4873                 1.3065                 4.0440
 Frc consts  --      0.2915                 0.0919                 0.3012
 IR Inten    --      5.2929               161.7016                 1.8045

                     19                     20                     21
                      A                      A                      A
 Frequencies --    383.9947               441.2289               468.0872
 Red. masses --      3.4673                 4.9653                 3.5548
 Frc consts  --      0.3012                 0.5695                 0.4589
 IR Inten    --     10.9700                 1.7826                78.2688

                     22                     23                     24
                      A                      A                      A
 Frequencies --    483.3759               524.2496               547.5427
 Red. masses --      6.4699                 5.8218                 4.5438
 Frc consts  --      0.8907                 0.9427                 0.8026
 IR Inten    --      5.3305                 5.6526                 9.0303

                     25                     26                     27
                      A                      A                      A
 Frequencies --    570.6177               610.8849               635.4460
 Red. masses --      3.5751                 3.4702                 5.0768
 Frc consts  --      0.6859                 0.7630                 1.2078
 IR Inten    --      1.6493                 3.2568                17.8632

                     28                     29                     30
                      A                      A                      A
 Frequencies --    643.8574               659.2950               683.0373
 Red. masses --      4.2903                 5.5994                 1.1740
 Frc consts  --      1.0479                 1.4340                 0.3227
 IR Inten    --     22.6924                 5.9467                11.5582

                     31                     32                     33
                      A                      A                      A
 Frequencies --    703.1143               712.2534               729.5107
 Red. masses --      3.2759                 1.1818                 1.4320
 Frc consts  --      0.9542                 0.3532                 0.4490
 IR Inten    --     30.8765                51.4580                 9.8747

                     34                     35                     36
                      A                      A                      A
 Frequencies --    742.4673               749.8937               754.5124
 Red. masses --      1.7626                 3.3587                 3.7941
 Frc consts  --      0.5725                 1.1128                 1.2726
 IR Inten    --    128.8103                29.0382                24.1394

                     37                     38                     39
                      A                      A                      A
 Frequencies --    770.6961               809.0768               828.8799
 Red. masses --      3.1308                 8.2138                 1.2532
 Frc consts  --      1.0957                 3.1679                 0.5073
 IR Inten    --     25.9934                 3.7119                19.4474

                     40                     41                     42
                      A                      A                      A
 Frequencies --    849.9648               867.1891               879.3866
 Red. masses --      1.3195                 4.0003                 1.3184
 Frc consts  --      0.5617                 1.7725                 0.6007
 IR Inten    --      7.0746                 6.7845                 2.1057

                     43                     44                     45
                      A                      A                      A
 Frequencies --    909.2722               916.8026               944.5088
 Red. masses --      6.0486                 1.3463                 3.8406
 Frc consts  --      2.9464                 0.6667                 2.0187
 IR Inten    --      5.1550                 0.3388                23.2966

                     46                     47                     48
                      A                      A                      A
 Frequencies --   1002.1616              1028.2622              1063.2150
 Red. masses --      2.4318                 1.5772                 3.0514
 Frc consts  --      1.4389                 0.9826                 2.0323
 IR Inten    --     17.9756                60.0477                48.3757

                     49                     50                     51
                      A                      A                      A
 Frequencies --   1076.4222              1081.9909              1110.1873
 Red. masses --      2.9360                 2.0446                 1.9856
 Frc consts  --      2.0043                 1.4103                 1.4419
 IR Inten    --     30.4121                27.5069                 1.6355

                     52                     53                     54
                      A                      A                      A
 Frequencies --   1117.3737              1118.0174              1136.0811
 Red. masses --      1.3919                 2.9115                 2.5029
 Frc consts  --      1.0239                 2.1442                 1.9033
 IR Inten    --      6.4845                 3.6106                15.9616

                     55                     56                     57
                      A                      A                      A
 Frequencies --   1177.1314              1185.5422              1240.4664
 Red. masses --      3.4144                 1.9106                 2.8180
 Frc consts  --      2.7875                 1.5822                 2.5548
 IR Inten    --     12.0919                27.6202                11.1607

                     58                     59                     60
                      A                      A                      A
 Frequencies --   1253.5717              1269.3379              1276.1896
 Red. masses --      1.7763                 1.3501                 1.4309
 Frc consts  --      1.6446                 1.2816                 1.3730
 IR Inten    --      9.9402                98.7679                62.8399

                     61                     62                     63
                      A                      A                      A
 Frequencies --   1334.1747              1377.1994              1394.4477
 Red. masses --      2.3380                 1.3990                 2.0848
 Frc consts  --      2.4521                 1.5634                 2.3885
 IR Inten    --     83.0927                10.3485                46.1117

                     64                     65                     66
                      A                      A                      A
 Frequencies --   1401.3493              1426.5576              1455.9326
 Red. masses --      2.1526                 2.4674                 2.3751
 Frc consts  --      2.4906                 2.9585                 2.9663
 IR Inten    --     46.5596                 7.0474                23.6898

                     67                     68                     69
                      A                      A                      A
 Frequencies --   1496.4845              1524.2867              1532.3331
 Red. masses --      6.4641                 2.0173                 1.0966
 Frc consts  --      8.5290                 2.7616                 1.5170
 IR Inten    --      7.5891                47.2198                10.2707

                     70                     71                     72
                      A                      A                      A
 Frequencies --   1557.9523              1596.9155              1599.9183
 Red. masses --      4.3857                 1.4830                 5.1232
 Frc consts  --      6.2719                 2.2281                 7.7266
 IR Inten    --      6.3605               230.7167                 3.8075

                     73                     74                     75
                      A                      A                      A
 Frequencies --   1656.5495              1759.6002              1802.1134
 Red. masses --      6.5342                 7.6061                 8.2477
 Frc consts  --     10.5646                13.8753                15.7814
 IR Inten    --      0.8797               550.2644                99.8994

                     76                     77                     78
                      A                      A                      A
 Frequencies --   3080.7205              3192.1578              3223.6714
 Red. masses --      1.0710                 1.0953                 1.0888
 Frc consts  --      5.9889                 6.5760                 6.6664
 IR Inten    --     33.3437                21.0382                 6.8229

                     79                     80                     81
                      A                      A                      A
 Frequencies --   3239.7508              3270.4749              3271.1708
 Red. masses --      1.0951                 1.0974                 1.0916
 Frc consts  --      6.7724                 6.9157                 6.8821
 IR Inten    --      3.1717                 1.1819                 3.4672

                     82                     83                     84
                      A                      A                      A
 Frequencies --   3300.4139              3308.1471              3574.9222
 Red. masses --      1.0968                 1.1053                 1.0747
 Frc consts  --      7.0392                 7.1272                 8.0926
 IR Inten    --      0.4070                 0.6626                73.3795

                     85                     86                     87
                      A                      A                      A
 Frequencies --   3580.2657              3720.7970              3745.6341
 Red. masses --      1.0447                 1.1052                 1.0664
 Frc consts  --      7.8903                 9.0152                 8.8151
 IR Inten    --     63.9810                75.1186                21.6213

 - Thermochemistry -
 -------------------
 Temperature   298.150 Kelvin.  Pressure   1.00000 Atm.
 Atom     1 has atomic number  6 and mass  12.00000

 Molecular mass:   280.05178 amu.
 Principal axes and moments of inertia in atomic units:
                           1         2         3
     Eigenvalues --  3576.426766386.859267758.08768
           X            0.99999   0.00537  -0.00095
           Y           -0.00539   0.99983  -0.01740
           Z            0.00086   0.01741   0.99985
 This molecule is an asymmetric top.
 Rotational symmetry number  1.
 Warning -- assumption of classical behavior for rotation
           may cause significant error
 Rotational temperatures (Kelvin)      0.02422     0.01356     0.01116
 Rotational constants (GHZ):           0.50462     0.28257     0.23263
 Zero-point vibrational energy     613538.5 (Joules/Mol)
                                  146.63922 (Kcal/Mol)
 Warning -- explicit consideration of  26 degrees of freedom as
           vibrations may cause significant error
 Vibrational temperatures:     29.35    61.67    63.77    68.50    96.86
          (Kelvin)            107.41   111.41   171.11   207.06   290.04
                              304.94   353.52   369.33   434.48   443.23
                              477.72   497.24   511.55   552.48   634.83
                              673.47   695.47   754.28   787.79   820.99
                              878.93   914.27   926.37   948.58   982.74
                             1011.62  1024.77  1049.60  1068.24  1078.93
                             1085.58  1108.86  1164.08  1192.57  1222.91
                             1247.69  1265.24  1308.24  1319.07  1358.94
                             1441.89  1479.44  1529.73  1548.73  1556.74
                             1597.31  1607.65  1608.58  1634.57  1693.63
                             1705.73  1784.75  1803.61  1826.29  1836.15
                             1919.58  1981.48  2006.30  2016.23  2052.50
                             2094.76  2153.11  2193.11  2204.69  2241.55
                             2297.61  2301.93  2383.41  2531.67  2592.84
                             4432.47  4592.80  4638.14  4661.28  4705.48
                             4706.49  4748.56  4759.69  5143.52  5151.20
                             5353.40  5389.13

 Zero-point correction=                           0.233684 (Hartree/Particle)
 Thermal correction to Energy=                    0.251587
 Thermal correction to Enthalpy=                  0.252531
 Thermal correction to Gibbs Free Energy=         0.185541
 Sum of electronic and zero-point Energies=          -1272.892392
 Sum of electronic and thermal Energies=             -1272.874489
 Sum of electronic and thermal Enthalpies=           -1272.873545
 Sum of electronic and thermal Free Energies=        -1272.940535

                     E (Thermal)             CV                S
                      KCal/Mol        Cal/Mol-Kelvin    Cal/Mol-Kelvin
 Total                  157.873             67.032            140.993
 Electronic               0.000              0.000              0.000
 Translational            0.889              2.981             42.788
 Rotational               0.889              2.981             33.538
 Vibrational            156.096             61.071             64.667
 Vibration     1          0.593              1.986              6.595
 Vibration     2          0.595              1.980              5.122
 Vibration     3          0.595              1.980              5.056
 Vibration     4          0.595              1.978              4.914
 Vibration     5          0.598              1.970              4.230
 Vibration     6          0.599              1.966              4.027
 Vibration     7          0.599              1.964              3.955
 Vibration     8          0.609              1.934              3.118
 Vibration     9          0.616              1.909              2.751
 Vibration    10          0.638              1.838              2.119
 Vibration    11          0.643              1.823              2.027
 Vibration    12          0.660              1.770              1.761
 Vibration    13          0.666              1.751              1.684
 Vibration    14          0.694              1.670              1.406
 Vibration    15          0.698              1.658              1.373
 Vibration    16          0.714              1.612              1.250
 Vibration    17          0.724              1.584              1.186
 Vibration    18          0.731              1.564              1.142
 Vibration    19          0.753              1.504              1.023
 Vibration    20          0.801              1.380              0.823
 Vibration    21          0.825              1.321              0.743
 Vibration    22          0.840              1.287              0.701
 Vibration    23          0.879              1.196              0.600
 Vibration    24          0.903              1.145              0.549
 Vibration    25          0.927              1.095              0.503
 Vibration    26          0.970              1.009              0.431

                           ! Non-Optimized Parameters !
 Normal termination of Gaussian 16 at Sun Dec 13 13:05:38 2020.

 ----------------------------------------------------------------------
 # B3LYP/6-311++G(d,p) empiricaldispersion=gd3bj scf=xqc pop=npa geom=c
 heck
 ----------------------------------------------------------------------

 --------------------------------------
 CID_92110852_JID_9718_Energie_neutraal
 --------------------------------------
 Structure from the checkpoint file:  "JID_9718.chk"
 Charge =  0 Multiplicity = 1

 SCF Done:  E(RB3LYP) =  -1273.41903070     A.U. after   17 cycles
 Normal termination of Gaussian 16 at Sun Dec 13 13:13:31 2020.

 ----------------------------------------------------------------------
 # B3LYP/6-311++G(d,p) empiricaldispersion=gd3bj scf=xqc pop=npa geom=c
 heck
 ----------------------------------------------------------------------

 ------------------------------------
 CID_92110852_JID_9718_Energie_kation
 ------------------------------------
 Structure from the checkpoint file:  "JID_9718.chk"
 Charge =  1 Multiplicity = 2

 SCF Done:  E(UB3LYP) =  -1273.11899477     A.U. after   29 cycles
 Normal termination of Gaussian 16 at Sun Dec 13 13:33:04 2020.
 Gaussian 16:  ES64L-G16RevA.03 25-Dec-2016

 ----------------------------------------------------------------------
 # B3LYP/6-311++G(d,p) empiricaldispersion=gd3bj scf=xqc pop=npa geom=c
 heck
 ----------------------------------------------------------------------

 -----------------------------------
 CID_92110852_JID_9718_Energie_anion
 -----------------------------------
 Structure from the checkpoint file:  "JID_9718.chk"
 Charge = -1 Multiplicity = 2

                         Standard orientation:
 ---------------------------------------------------------------------
 Center     Atomic      Atomic             Coordinates (Angstroms)
 Number     Number       Type             X           Y           Z
 ---------------------------------------------------------------------
      1          6           0       -4.288672   -1.057817   -0.318759
      2          6           0       -3.380421   -1.580084   -1.184380
      3          8           0       -2.112446   -1.218971   -0.810292
      4          6           0       -2.227931   -0.451074    0.322668
      5          6           0       -3.538645   -0.322368    0.662422
      6          6           0       -0.959704    0.081258    0.929244
      7          6           0        0.084023   -1.052103    1.143811
      8          7           0        0.630516   -1.579489   -0.096322
      9          6           0        1.884812   -1.521578   -0.600027
     10          8           0        2.143648   -1.872108   -1.752087
     11          6           0        3.050420   -1.054660    0.310427
     12          8           0        2.965734   -0.816347    1.510732
     13          7           0        4.184637   -0.953992   -0.414621
     14          6           0       -0.415728    1.217941    0.091351
     15          6           0       -1.061236    1.935984   -0.880525
     16          6           0       -0.283465    3.013227   -1.401635
     17          6           0        0.945580    3.109255   -0.811973
     18         16           0        1.188240    1.870123    0.376935
     19          8           0       -1.349587    0.536119    2.234018
     20          1           0       -5.361797   -1.178092   -0.364267
     21          1           0       -3.447387   -2.194056   -2.068719
     22          1           0       -3.914028    0.225423    1.512671
     23          1           0        0.904457   -0.682159    1.754136
     24          1           0       -0.416867   -1.850531    1.701075
     25          1           0       -0.049372   -1.886404   -0.784298
     26          1           0        4.160534   -1.260407   -1.378520
     27          1           0        5.051237   -0.729636    0.050242
     28          1           0       -2.066721    1.699633   -1.207687
     29          1           0       -0.626930    3.684235   -2.180955
     30          1           0        1.734696    3.820484   -1.015213
     31          1           0       -0.718727    1.226460    2.492477
 ---------------------------------------------------------------------

 SCF Done:  E(UB3LYP) =  -1273.41711030     A.U. after   33 cycles
 SCF Done:  E(UB3LYP) =  -1273.41711032     a.u. after    2 cycles

 The electronic state is 2-A.
 Alpha  occ. eigenvalues --  -88.73902 -19.09647 -19.01668 -18.93747 -18.93494
 Alpha  occ. eigenvalues --  -14.19177 -14.18674 -10.13853 -10.13256 -10.12969
 Alpha  occ. eigenvalues --  -10.11374 -10.11076 -10.08644 -10.07866 -10.07469
 Alpha  occ. eigenvalues --  -10.06371 -10.05863 -10.04513 -10.04258  -7.82502
 Alpha  occ. eigenvalues --   -5.78794  -5.78416  -5.78113  -1.01917  -0.92402
 Alpha  occ. eigenvalues --   -0.90110  -0.87671  -0.78685  -0.76079  -0.74748
 Alpha  occ. eigenvalues --   -0.71084  -0.68416  -0.62435  -0.60327  -0.58786
 Alpha  occ. eigenvalues --   -0.53368  -0.51574  -0.51135  -0.46573  -0.45498
 Alpha  occ. eigenvalues --   -0.44241  -0.43223  -0.42262  -0.40458  -0.39498
 Alpha  occ. eigenvalues --   -0.37186  -0.35663  -0.34776  -0.33871  -0.33231
 Alpha  occ. eigenvalues --   -0.32327  -0.31355  -0.30721  -0.30029  -0.29462
 Alpha  occ. eigenvalues --   -0.28396  -0.27407  -0.26341  -0.26039  -0.25369
 Alpha  occ. eigenvalues --   -0.24576  -0.23578  -0.22960  -0.20687  -0.19418
 Alpha  occ. eigenvalues --   -0.18595  -0.15470  -0.14018  -0.13749  -0.12622
 Alpha  occ. eigenvalues --   -0.11652  -0.11186  -0.09241   0.05693
 Alpha virt. eigenvalues --    0.06922   0.08570   0.08741   0.08894   0.09381
 Alpha virt. eigenvalues --    0.09567   0.09880   0.10515   0.11217   0.11588
 Alpha virt. eigenvalues --    0.12353   0.13270   0.13885   0.14260   0.14887

  Beta  occ. eigenvalues --  -88.73882 -19.09638 -19.01599 -18.93460 -18.93245
  Beta  occ. eigenvalues --  -14.19118 -14.18611 -10.13855 -10.13250 -10.12963
  Beta  occ. eigenvalues --  -10.11161 -10.10844 -10.08645 -10.07866 -10.07466
  Beta  occ. eigenvalues --  -10.06150 -10.05619 -10.04504 -10.04210  -7.82484
  Beta  occ. eigenvalues --   -5.78792  -5.78413  -5.78034  -1.01901  -0.92250
  Beta  occ. eigenvalues --   -0.89617  -0.87205  -0.78501  -0.75823  -0.74496
  Beta  occ. eigenvalues --   -0.71076  -0.68335  -0.62272  -0.60124  -0.58530
  Beta  occ. eigenvalues --   -0.53189  -0.51297  -0.50755  -0.46518  -0.45357
  Beta  occ. eigenvalues --   -0.43983  -0.43009  -0.42167  -0.40367  -0.39345
  Beta  occ. eigenvalues --   -0.37097  -0.35592  -0.34641  -0.33781  -0.33011
  Beta  occ. eigenvalues --   -0.32186  -0.30999  -0.30664  -0.29799  -0.29198
  Beta  occ. eigenvalues --   -0.27525  -0.27076  -0.26193  -0.25740  -0.25234
  Beta  occ. eigenvalues --   -0.24089  -0.23201  -0.21962  -0.20458  -0.19390
  Beta  occ. eigenvalues --   -0.18399  -0.15201  -0.13762  -0.12905  -0.12016
  Beta  occ. eigenvalues --   -0.10808  -0.09990  -0.08899
  Beta virt. eigenvalues --    0.06874   0.08504   0.08768   0.08875   0.09513
  Beta virt. eigenvalues --    0.09838   0.10467   0.10546   0.11168   0.11540
  Beta virt. eigenvalues --    0.12181   0.12387   0.13220   0.13905   0.14239

 Mulliken charges and spin densities:
               1          2
     1  C   -0.542046  -0.002168
     2  C    0.094869  -0.002995
     3  O   -0.010698   0.002603
     4  C   -0.409269  -0.015197
     5  C    0.121431  -0.008875
     6  C   -0.747146   0.030935
     7  C   -0.390213   0.000912
     8  N   -0.091573   0.017141
     9  C    0.001071   0.139417
    10  O   -0.440111   0.089236
    11  C   -0.103141   0.150339
    12  O   -0.427327   0.103794
    13  N   -0.262372   0.031903
    14  C    0.065030   0.053927
    15  C    0.900911   0.170401
    16  C   -0.627577  -0.074085
    17  C   -0.085047   0.241332
    18  S   -0.249982  -0.020169
    19  O   -0.149456   0.010959
    20  H    0.141971   0.000415
    21  H    0.147180   0.014456
    22  H    0.178852  -0.000412
    23  H    0.254449   0.005704
    24  H    0.172408   0.003111
    25  H    0.323664  -0.002245
    26  H    0.256388  -0.002537
    27  H    0.245612  -0.001751
    28  H    0.134581   0.011905
    29  H    0.098303   0.008852
    30  H    0.148067   0.043157
    31  H    0.251173  -0.000064
 Sum of Mulliken charges =  -1.00000   1.00000

 Dipole moment (field-independent basis, Debye):
    X=             -5.3713    Y=              0.7219    Z=             -0.1119  Tot=              5.4207
 Quadrupole moment (field-independent basis, Debye-Ang):
   XX=           -138.1046   YY=           -141.0304   ZZ=           -138.9365
   XY=             10.9287   XZ=              1.3912   YZ=             -0.1391

 Summary of Natural Population Analysis:

                                       Natural Population
                Natural  -----------------------------------------------
    Atom  No    Charge         Core      Valence    Rydberg      Total
 -----------------------------------------------------------------------
      C    1   -0.15361      0.99958     2.14599    0.00804     3.15361
      C    2    0.05104      0.99952     1.93585    0.01360     2.94896
      O    3   -0.23991      0.99985     3.23157    0.00849     4.23991
      C    4    0.16853      0.99941     1.81542    0.01665     2.83147
      C    5   -0.14938      0.99948     2.14229    0.00762     3.14938
      C    6    0.09189      0.99939     1.89242    0.01630     2.90811
      C    7   -0.09590      0.99957     2.08428    0.01205     3.09590
      N    8   -0.31238      0.99966     2.80073    0.01199     3.81238
      C    9    0.33851      0.99964     1.63841    0.02345     2.66149
      O   10   -0.32394      0.99988     3.31759    0.00647     4.32394
      C   11    0.32739      0.99970     1.64833    0.02458     2.67261
      O   12   -0.31208      0.99987     3.30533    0.00688     4.31208
      N   13   -0.39892      0.99970     2.89115    0.00807     3.89892
      C   14   -0.08110      0.99944     2.06614    0.01552     3.08110
      C   15   -0.11732      0.99947     2.10943    0.00842     3.11732
      C   16   -0.13519      0.99954     2.12617    0.00948     3.13519
      C   17   -0.15556      0.99955     2.14399    0.01202     3.15556
      S   18    0.21318      4.99942     2.76440    0.02301     7.78682
      O   19   -0.36840      0.99989     3.36219    0.00632     4.36840
      H   20    0.10424      0.00000     0.39494    0.00082     0.39576
      H   21    0.09450      0.00000     0.40458    0.00092     0.40550
      H   22    0.11582      0.00000     0.38337    0.00081     0.38418
      H   23    0.12926      0.00000     0.36952    0.00122     0.37074
      H   24    0.09196      0.00000     0.40693    0.00110     0.40804
      H   25    0.19473      0.00000     0.30327    0.00200     0.30527
      H   26    0.20373      0.00000     0.29409    0.00219     0.29627
      H   27    0.18356      0.00000     0.31364    0.00280     0.31644
      H   28    0.10322      0.00000     0.39544    0.00134     0.39678
      H   29    0.09743      0.00000     0.40150    0.00107     0.40257
      H   30    0.10046      0.00000     0.39837    0.00116     0.39954
      H   31    0.23424      0.00000     0.26339    0.00236     0.26576
 =======================================================================
   * Total *   -0.00000     22.99255    49.75071    0.25675    73.00000

 Normal termination of Gaussian 16 at Sun Dec 13 14:17:20 2020.
