 Gaussian 16, Revision A.03,

 -----------------------------------------------------------
 # opt freq B3LYP/6-31G(d) empiricaldispersion=gd3bj scf=xqc
 -----------------------------------------------------------

 -------------------------------
 CID_115680516_JID_8215_neutraal
 -------------------------------
 Symbolic Z-matrix:
 Charge =  0 Multiplicity = 1

 SCF Done:  E(RB3LYP) =  -807.996758772     A.U. after   15 cycles
 SCF Done:  E(RB3LYP) =  -808.002071009     A.U. after   12 cycles
 SCF Done:  E(RB3LYP) =  -808.002558451     A.U. after   11 cycles
 SCF Done:  E(RB3LYP) =  -808.002885261     A.U. after   12 cycles
 SCF Done:  E(RB3LYP) =  -808.002913576     A.U. after   10 cycles
 SCF Done:  E(RB3LYP) =  -808.002937899     A.U. after   10 cycles
 SCF Done:  E(RB3LYP) =  -808.002948491     A.U. after    9 cycles
 SCF Done:  E(RB3LYP) =  -808.002953358     A.U. after    9 cycles
 SCF Done:  E(RB3LYP) =  -808.002955123     A.U. after    8 cycles
 SCF Done:  E(RB3LYP) =  -808.002956121     A.U. after    8 cycles
 SCF Done:  E(RB3LYP) =  -808.002956578     A.U. after    8 cycles
 SCF Done:  E(RB3LYP) =  -808.002956767     A.U. after    7 cycles
 Optimization completed.
    -- Stationary point found.
 Normal termination of Gaussian 16 at Fri Dec 11 19:36:44 2020.

 --------------------------------------------------------------------
 #N Geom=AllCheck Guess=TCheck SCRF=Check GenChk RB3LYP/6-31G(d) Freq
 --------------------------------------------------------------------

 Structure from the checkpoint file:  "JID_8215.chk"
 -------------------------------
 CID_115680516_JID_8215_neutraal
 -------------------------------
 Charge =  0 Multiplicity = 1

 SCF Done:  E(RB3LYP) =  -808.002956767     A.U. after    1 cycles

  Exact polarizability: 178.737  -0.309 158.379   0.321   1.947 135.730
 Approx polarizability: 215.728  -1.316 249.926   3.150  14.313 206.486

                      1                      2                      3
                      A                      A                      A
 Frequencies --     24.4129                30.5941                50.0332
 Red. masses --      3.8971                 4.4292                 5.1142
 Frc consts  --      0.0014                 0.0024                 0.0075
 IR Inten    --      0.8834                 0.7501                 0.4571

                      4                      5                      6
                      A                      A                      A
 Frequencies --     59.2257                72.5444               113.7601
 Red. masses --      5.1273                 5.9342                 3.8610
 Frc consts  --      0.0106                 0.0184                 0.0294
 IR Inten    --      1.9630                 1.5249                 1.0540

                      7                      8                      9
                      A                      A                      A
 Frequencies --    139.9085               156.2566               199.9872
 Red. masses --      2.8214                 2.2887                 3.5671
 Frc consts  --      0.0325                 0.0329                 0.0841
 IR Inten    --      0.4105                 0.0342                 1.1946

                     10                     11                     12
                      A                      A                      A
 Frequencies --    223.2647               248.0012               269.0019
 Red. masses --      2.2486                 2.4284                 2.4648
 Frc consts  --      0.0660                 0.0880                 0.1051
 IR Inten    --      1.3347                 1.6290                 0.1497

                     13                     14                     15
                      A                      A                      A
 Frequencies --    296.2144               313.5040               341.0951
 Red. masses --      2.5317                 3.1395                 3.0657
 Frc consts  --      0.1309                 0.1818                 0.2102
 IR Inten    --      1.2788                 1.0270                 7.2517

                     16                     17                     18
                      A                      A                      A
 Frequencies --    346.8277               377.2350               380.4943
 Red. masses --      4.5199                 2.1910                 3.0660
 Frc consts  --      0.3203                 0.1837                 0.2615
 IR Inten    --      4.9517                 2.4410                 2.5561

                     19                     20                     21
                      A                      A                      A
 Frequencies --    409.0011               418.9239               457.0712
 Red. masses --      3.1932                 2.6550                 2.0767
 Frc consts  --      0.3147                 0.2745                 0.2556
 IR Inten    --      5.9353                 5.8788                 1.2335

                     22                     23                     24
                      A                      A                      A
 Frequencies --    497.1447               516.3392               526.9443
 Red. masses --      2.6109                 1.8488                 1.7762
 Frc consts  --      0.3802                 0.2904                 0.2906
 IR Inten    --      9.8435                 5.7976                 2.2842

                     25                     26                     27
                      A                      A                      A
 Frequencies --    574.7252               577.3690               600.6545
 Red. masses --      2.0363                 2.5707                 2.1665
 Frc consts  --      0.3963                 0.5049                 0.4605
 IR Inten    --     20.0139                 2.5623                34.6422

                     28                     29                     30
                      A                      A                      A
 Frequencies --    617.2537               654.3343               705.4938
 Red. masses --      2.6387                 2.4382                 4.0259
 Frc consts  --      0.5923                 0.6151                 1.1806
 IR Inten    --     35.8796                12.4543                12.1378

                     31                     32                     33
                      A                      A                      A
 Frequencies --    742.2209               757.0495               800.5027
 Red. masses --      2.8306                 1.3418                 2.7715
 Frc consts  --      0.9188                 0.4531                 1.0464
 IR Inten    --      2.5371                 0.9765                11.3296

                     34                     35                     36
                      A                      A                      A
 Frequencies --    811.3499               815.3819               848.0732
 Red. masses --      2.7567                 3.0703                 2.9655
 Frc consts  --      1.0692                 1.2027                 1.2566
 IR Inten    --      3.6092                 2.3937                 0.9160

                     37                     38                     39
                      A                      A                      A
 Frequencies --    876.0160               880.7346               898.6922
 Red. masses --      2.7243                 1.5959                 1.6865
 Frc consts  --      1.2318                 0.7294                 0.8025
 IR Inten    --      3.7779                 0.6435                 4.9843

                     40                     41                     42
                      A                      A                      A
 Frequencies --    925.3837               947.2427               961.5287
 Red. masses --      1.7045                 2.3048                 2.1390
 Frc consts  --      0.8600                 1.2184                 1.1651
 IR Inten    --      3.3864                 5.6179                 2.3972

                     43                     44                     45
                      A                      A                      A
 Frequencies --    969.1091               985.5837               993.6157
 Red. masses --      2.1798                 2.3484                 2.2495
 Frc consts  --      1.2062                 1.3440                 1.3085
 IR Inten    --      0.8660                20.7140                11.1513

                     46                     47                     48
                      A                      A                      A
 Frequencies --   1022.6186              1028.8365              1039.3866
 Red. masses --      2.4330                 2.0825                 2.0365
 Frc consts  --      1.4991                 1.2988                 1.2962
 IR Inten    --      1.4569                 0.3882                 1.0609

                     49                     50                     51
                      A                      A                      A
 Frequencies --   1049.8500              1082.3052              1106.5582
 Red. masses --      2.3607                 1.6891                 1.6919
 Frc consts  --      1.5330                 1.1658                 1.2206
 IR Inten    --      0.6358                 0.9403                 0.6979

                     52                     53                     54
                      A                      A                      A
 Frequencies --   1123.2246              1143.5231              1151.1519
 Red. masses --      2.0699                 2.0828                 2.2987
 Frc consts  --      1.5386                 1.6047                 1.7947
 IR Inten    --      3.8975                13.3778                46.0098

                     55                     56                     57
                      A                      A                      A
 Frequencies --   1163.2780              1193.7443              1216.0773
 Red. masses --      1.9626                 1.4000                 1.6706
 Frc consts  --      1.5648                 1.1754                 1.4556
 IR Inten    --      1.6423                27.0943                84.8513

                     58                     59                     60
                      A                      A                      A
 Frequencies --   1230.9100              1240.9712              1248.1533
 Red. masses --      1.6456                 1.2510                 1.2788
 Frc consts  --      1.4690                 1.1351                 1.1738
 IR Inten    --     32.7996                 0.1721                 4.5568

                     61                     62                     63
                      A                      A                      A
 Frequencies --   1252.2677              1257.7284              1283.7962
 Red. masses --      1.2388                 1.3968                 1.3345
 Frc consts  --      1.1446                 1.3018                 1.2958
 IR Inten    --     16.4389                45.9926                 3.8917

                     64                     65                     66
                      A                      A                      A
 Frequencies --   1310.5532              1315.8883              1326.6078
 Red. masses --      1.3342                 1.2747                 1.8094
 Frc consts  --      1.3501                 1.3004                 1.8762
 IR Inten    --      2.6835                19.5384                12.5149

                     67                     68                     69
                      A                      A                      A
 Frequencies --   1329.9335              1339.9507              1363.3176
 Red. masses --      1.1431                 1.3149                 1.4408
 Frc consts  --      1.1912                 1.3910                 1.5777
 IR Inten    --     16.2294                11.3900                41.0213

                     70                     71                     72
                      A                      A                      A
 Frequencies --   1379.0113              1380.5513              1385.9665
 Red. masses --      1.5561                 1.3394                 1.3960
 Frc consts  --      1.7435                 1.5040                 1.5799
 IR Inten    --     39.2596                 8.6585                 2.1224

                     73                     74                     75
                      A                      A                      A
 Frequencies --   1394.2624              1405.3487              1407.8100
 Red. masses --      1.4997                 1.4861                 1.4935
 Frc consts  --      1.7177                 1.7293                 1.7440
 IR Inten    --      3.0189                 2.6435                 2.9368

                     76                     77                     78
                      A                      A                      A
 Frequencies --   1409.8582              1416.5628              1420.8630
 Red. masses --      1.4708                 1.3654                 1.3749
 Frc consts  --      1.7225                 1.6142                 1.6354
 IR Inten    --     19.2291                 4.4958                31.4961

                     79                     80                     81
                      A                      A                      A
 Frequencies --   1424.6299              1430.3557              1435.9245
 Red. masses --      1.4059                 1.4374                 1.4280
 Frc consts  --      1.6811                 1.7327                 1.7347
 IR Inten    --      3.6255                 8.8845                 1.9899

                     82                     83                     84
                      A                      A                      A
 Frequencies --   1460.2834              1478.1326              1484.0172
 Red. masses --      1.7622                 1.3076                 1.4151
 Frc consts  --      2.2141                 1.6832                 1.8362
 IR Inten    --    143.0162                52.1544                40.0422

                     85                     86                     87
                      A                      A                      A
 Frequencies --   1493.1201              1502.7350              1512.9730
 Red. masses --      1.0976                 1.1575                 1.0860
 Frc consts  --      1.4417                 1.5401                 1.4647
 IR Inten    --     15.1152                 0.9177                 2.2039

                     88                     89                     90
                      A                      A                      A
 Frequencies --   1516.5165              1517.7795              1524.8467
 Red. masses --      1.0928                 1.0788                 1.1078
 Frc consts  --      1.4807                 1.4642                 1.5176
 IR Inten    --      3.2126                 1.0635                10.9313

                     91                     92                     93
                      A                      A                      A
 Frequencies --   1527.8354              1533.8989              1534.0125
 Red. masses --      1.0964                 1.0871                 1.0937
 Frc consts  --      1.5079                 1.5070                 1.5163
 IR Inten    --      2.6121                 3.9692                33.0394

                     94                     95                     96
                      A                      A                      A
 Frequencies --   1544.4129              1759.8124              1808.8862
 Red. masses --      1.0951                10.4638                 8.4837
 Frc consts  --      1.5389                19.0929                16.3553
 IR Inten    --      3.2408               157.3157               356.1676

                     97                     98                     99
                      A                      A                      A
 Frequencies --   3001.8695              3015.6956              3018.7608
 Red. masses --      1.0730                 1.0622                 1.0668
 Frc consts  --      5.6971                 5.6914                 5.7281
 IR Inten    --     40.5524                16.1833                17.1304

                    100                    101                    102
                      A                      A                      A
 Frequencies --   3020.7792              3027.7612              3029.8749
 Red. masses --      1.0668                 1.0646                 1.0701
 Frc consts  --      5.7354                 5.7501                 5.7878
 IR Inten    --     22.7119                 5.1905                30.7846

                    103                    104                    105
                      A                      A                      A
 Frequencies --   3036.0351              3040.0657              3043.8874
 Red. masses --      1.0645                 1.0736                 1.0731
 Frc consts  --      5.7808                 5.8460                 5.8582
 IR Inten    --     36.4217                 4.3794                18.4255

                    106                    107                    108
                      A                      A                      A
 Frequencies --   3047.2067              3051.4034              3055.8235
 Red. masses --      1.0619                 1.0966                 1.0956
 Frc consts  --      5.8093                 6.0158                 6.0280
 IR Inten    --     25.1455                55.8890                18.6641

                    109                    110                    111
                      A                      A                      A
 Frequencies --   3056.2655              3059.2164              3063.2358
 Red. masses --      1.0702                 1.0853                 1.0968
 Frc consts  --      5.8899                 5.9843                 6.0639
 IR Inten    --     35.0816                33.7721                50.4354

                    112                    113                    114
                      A                      A                      A
 Frequencies --   3069.2268              3077.1674              3097.8306
 Red. masses --      1.0997                 1.0986                 1.1010
 Frc consts  --      6.1034                 6.1292                 6.2253
 IR Inten    --     70.1981               150.0488                35.8375

                    115                    116                    117
                      A                      A                      A
 Frequencies --   3106.5508              3111.6765              3113.1823
 Red. masses --      1.0896                 1.0921                 1.0939
 Frc consts  --      6.1953                 6.2300                 6.2462
 IR Inten    --     27.0980                26.3567                19.0268

                    118                    119                    120
                      A                      A                      A
 Frequencies --   3145.6741              3182.2817              3589.6458
 Red. masses --      1.0913                 1.0938                 1.0761
 Frc consts  --      6.3627                 6.5264                 8.1697
 IR Inten    --     22.5238                 0.5921                20.3442

 - Thermochemistry -
 -------------------
 Temperature   298.150 Kelvin.  Pressure   1.00000 Atm.
 Atom     1 has atomic number  6 and mass  12.00000

 Molecular mass:   252.18378 amu.
 Principal axes and moments of inertia in atomic units:
                           1         2         3
     Eigenvalues --  2099.392148511.021179155.30299
           X            0.99992   0.01202   0.00253
           Y           -0.01195   0.99963  -0.02451
           Z           -0.00282   0.02448   0.99970
 This molecule is an asymmetric top.
 Rotational symmetry number  1.
 Warning -- assumption of classical behavior for rotation
           may cause significant error
 Rotational temperatures (Kelvin)      0.04126     0.01018     0.00946
 Rotational constants (GHZ):           0.85965     0.21205     0.19713
 Zero-point vibrational energy     995186.9 (Joules/Mol)
                                  237.85538 (Kcal/Mol)
 Warning -- explicit consideration of  28 degrees of freedom as
           vibrations may cause significant error
 Vibrational temperatures:     35.12    44.02    71.99    85.21   104.38
          (Kelvin)            163.68   201.30   224.82   287.74   321.23
                              356.82   387.03   426.19   451.06   490.76
                              499.01   542.76   547.45   588.46   602.74
                              657.62   715.28   742.90   758.16   826.90
                              830.71   864.21   888.09   941.44  1015.05
                             1067.89  1089.23  1151.74  1167.35  1173.15
                             1220.19  1260.39  1267.18  1293.02  1331.42
                             1362.87  1383.43  1394.33  1418.04  1429.59
                             1471.32  1480.27  1495.45  1510.50  1557.20
                             1592.09  1616.07  1645.27  1656.25  1673.70
                             1717.53  1749.66  1771.00  1785.48  1795.81
                             1801.73  1809.59  1847.10  1885.59  1893.27
                             1908.69  1913.48  1927.89  1961.51  1984.09
                             1986.31  1994.10  2006.03  2021.98  2025.52
                             2028.47  2038.12  2044.30  2049.72  2057.96
                             2065.98  2101.02  2126.70  2135.17  2148.27
                             2162.10  2176.83  2181.93  2183.75  2193.91
                             2198.21  2206.94  2207.10  2222.07  2531.98
                             2602.58  4319.02  4338.91  4343.32  4346.23
                             4356.27  4359.31  4368.18  4373.98  4379.47
                             4384.25  4390.29  4396.65  4397.28  4401.53
                             4407.31  4415.93  4427.36  4457.09  4469.63
                             4477.01  4479.17  4525.92  4578.59  5164.70

 Zero-point correction=                           0.379047 (Hartree/Particle)
 Thermal correction to Energy=                    0.396238
 Thermal correction to Enthalpy=                  0.397182
 Thermal correction to Gibbs Free Energy=         0.332830
 Sum of electronic and zero-point Energies=           -807.623910
 Sum of electronic and thermal Energies=              -807.606719
 Sum of electronic and thermal Enthalpies=            -807.605775
 Sum of electronic and thermal Free Energies=         -807.670126

                     E (Thermal)             CV                S
                      KCal/Mol        Cal/Mol-Kelvin    Cal/Mol-Kelvin
 Total                  248.643             67.515            135.439
 Electronic               0.000              0.000              0.000
 Translational            0.889              2.981             42.475
 Rotational               0.889              2.981             33.458
 Vibrational            246.866             61.554             59.506
 Vibration     1          0.593              1.985              6.238
 Vibration     2          0.594              1.984              5.791
 Vibration     3          0.595              1.978              4.816
 Vibration     4          0.597              1.974              4.483
 Vibration     5          0.599              1.967              4.083
 Vibration     6          0.607              1.938              3.204
 Vibration     7          0.615              1.913              2.805
 Vibration     8          0.620              1.896              2.595
 Vibration     9          0.638              1.840              2.133
 Vibration    10          0.649              1.806              1.932
 Vibration    11          0.662              1.766              1.745
 Vibration    12          0.673              1.730              1.603
 Vibration    13          0.690              1.681              1.438
 Vibration    14          0.701              1.648              1.344
 Vibration    15          0.721              1.593              1.207
 Vibration    16          0.725              1.582              1.181
 Vibration    17          0.748              1.519              1.050
 Vibration    18          0.750              1.512              1.037
 Vibration    19          0.773              1.451              0.930
 Vibration    20          0.782              1.429              0.896
 Vibration    21          0.815              1.345              0.775
 Vibration    22          0.853              1.256              0.665
 Vibration    23          0.871              1.214              0.619
 Vibration    24          0.882              1.190              0.594
 Vibration    25          0.931              1.086              0.495
 Vibration    26          0.934              1.080              0.490
 Vibration    27          0.959              1.030              0.449
 Vibration    28          0.977              0.995              0.421

                           ! Non-Optimized Parameters !
 Normal termination of Gaussian 16 at Fri Dec 11 19:57:13 2020.

 ----------------------------------------------------------------------
 # B3LYP/6-311++G(d,p) empiricaldispersion=gd3bj scf=xqc pop=npa geom=c
 heck
 ----------------------------------------------------------------------

 ---------------------------------------
 CID_115680516_JID_8215_Energie_neutraal
 ---------------------------------------
 Structure from the checkpoint file:  "JID_8215.chk"
 Charge =  0 Multiplicity = 1

 SCF Done:  E(RB3LYP) =  -808.231514052     A.U. after   14 cycles
 Normal termination of Gaussian 16 at Fri Dec 11 20:06:42 2020.

 ----------------------------------------------------------------------
 # B3LYP/6-311++G(d,p) empiricaldispersion=gd3bj scf=xqc pop=npa geom=c
 heck
 ----------------------------------------------------------------------

 -------------------------------------
 CID_115680516_JID_8215_Energie_kation
 -------------------------------------
 Structure from the checkpoint file:  "JID_8215.chk"
 Charge =  1 Multiplicity = 2

 SCF Done:  E(UB3LYP) =  -807.923924360     A.U. after   28 cycles
 Normal termination of Gaussian 16 at Fri Dec 11 20:34:03 2020.
 Gaussian 16:  ES64L-G16RevA.03 25-Dec-2016

 ----------------------------------------------------------------------
 # B3LYP/6-311++G(d,p) empiricaldispersion=gd3bj scf=xqc pop=npa geom=c
 heck
 ----------------------------------------------------------------------

 ------------------------------------
 CID_115680516_JID_8215_Energie_anion
 ------------------------------------
 Structure from the checkpoint file:  "JID_8215.chk"
 Charge = -1 Multiplicity = 2

                         Standard orientation:
 ---------------------------------------------------------------------
 Center     Atomic      Atomic             Coordinates (Angstroms)
 Number     Number       Type             X           Y           Z
 ---------------------------------------------------------------------
      1          6           0       -3.666971    0.092054    1.489808
      2          6           0       -4.545335    0.627145    0.347804
      3          6           0       -3.763735    1.371984   -0.747468
      4          6           0       -2.962888    0.493860   -1.718376
      5          6           0       -1.915638   -0.459208   -1.112616
      6          6           0       -2.559303   -1.562464   -0.246935
      7          6           0       -2.893416   -1.219330    1.215037
      8          6           0       -0.798921    0.306833   -0.390395
      9          6           0        0.407630   -0.571778   -0.069544
     10          8           0        0.518669   -1.710864   -0.507591
     11          7           0        1.377082   -0.037958    0.759160
     12          6           0        1.475698    1.379511    1.080434
     13          6           0        2.314281    2.169517    0.069763
     14          6           0        3.759454    1.674273   -0.038609
     15          7           0        3.910379    0.367420   -0.677314
     16          6           0        3.598386   -0.856249   -0.126803
     17          8           0        4.123578   -1.885616   -0.517721
     18          6           0        2.555587   -0.862053    0.998535
     19          1           0       -4.290824   -0.059289    2.379688
     20          1           0       -2.963299    0.890629    1.764419
     21          1           0       -5.133683   -0.186920   -0.098119
     22          1           0       -5.274008    1.326531    0.777827
     23          1           0       -3.096003    2.099527   -0.262825
     24          1           0       -4.468666    1.967094   -1.343102
     25          1           0       -2.464869    1.150116   -2.446715
     26          1           0       -3.670124   -0.117756   -2.295764
     27          1           0       -1.439461   -0.973396   -1.955914
     28          1           0       -1.884131   -2.422608   -0.235270
     29          1           0       -3.473467   -1.892466   -0.757691
     30          1           0       -1.965743   -1.207007    1.802325
     31          1           0       -3.473746   -2.062260    1.611188
     32          1           0       -0.460214    1.140428   -1.022924
     33          1           0       -1.176657    0.764794    0.528535
     34          1           0        0.474876    1.806845    1.152779
     35          1           0        1.927014    1.465113    2.077735
     36          1           0        2.331769    3.223313    0.377902
     37          1           0        1.844902    2.121647   -0.919854
     38          1           0        4.222860    1.680514    0.960801
     39          1           0        4.329414    2.379815   -0.649070
     40          1           0        4.648995    0.285822   -1.365642
     41          1           0        3.027806   -0.520026    1.928434
     42          1           0        2.248077   -1.899407    1.117018
 ---------------------------------------------------------------------

 SCF Done:  E(UB3LYP) =  -808.227321392     A.U. after   32 cycles

 The electronic state is 2-A.
 Alpha  occ. eigenvalues --  -18.99896 -18.99659 -14.25359 -14.24236 -10.18131
 Alpha  occ. eigenvalues --  -10.18066 -10.12125 -10.11940 -10.11839 -10.08733
 Alpha  occ. eigenvalues --  -10.08388 -10.08212 -10.08152 -10.07922 -10.07900
 Alpha  occ. eigenvalues --  -10.07893 -10.07828 -10.07166  -0.95391  -0.94662
 Alpha  occ. eigenvalues --   -0.85460  -0.82569  -0.74685  -0.69934  -0.69445
 Alpha  occ. eigenvalues --   -0.67516  -0.65447  -0.61788  -0.60570  -0.56371
 Alpha  occ. eigenvalues --   -0.55558  -0.53457  -0.48856  -0.47331  -0.46515
 Alpha  occ. eigenvalues --   -0.43772  -0.42514  -0.42020  -0.39897  -0.39690
 Alpha  occ. eigenvalues --   -0.38209  -0.37333  -0.36704  -0.35777  -0.35069
 Alpha  occ. eigenvalues --   -0.34285  -0.33706  -0.32937  -0.32577  -0.32292
 Alpha  occ. eigenvalues --   -0.31530  -0.30162  -0.29816  -0.29159  -0.28007
 Alpha  occ. eigenvalues --   -0.27776  -0.26966  -0.26441  -0.26228  -0.24773
 Alpha  occ. eigenvalues --   -0.24236  -0.23465  -0.22578  -0.21981  -0.21582
 Alpha  occ. eigenvalues --   -0.18440  -0.16929  -0.16628  -0.14571   0.03543
 Alpha virt. eigenvalues --    0.05403   0.06406   0.06763   0.07368   0.07691
 Alpha virt. eigenvalues --    0.08175   0.09183   0.09458   0.09543   0.09710
 Alpha virt. eigenvalues --    0.10185   0.10409   0.10724   0.11206   0.11342

  Beta  occ. eigenvalues --  -18.99890 -18.99652 -14.25361 -14.24225 -10.18129
  Beta  occ. eigenvalues --  -10.18063 -10.12113 -10.11897 -10.11812 -10.08717
  Beta  occ. eigenvalues --  -10.08388 -10.08178 -10.08144 -10.07914 -10.07889
  Beta  occ. eigenvalues --  -10.07879 -10.07823 -10.07165  -0.95380  -0.94651
  Beta  occ. eigenvalues --   -0.85447  -0.82541  -0.74671  -0.69890  -0.69414
  Beta  occ. eigenvalues --   -0.67499  -0.65424  -0.61747  -0.60519  -0.56352
  Beta  occ. eigenvalues --   -0.55530  -0.53395  -0.48806  -0.47295  -0.46482
  Beta  occ. eigenvalues --   -0.43745  -0.42462  -0.41994  -0.39848  -0.39665
  Beta  occ. eigenvalues --   -0.38185  -0.37309  -0.36687  -0.35744  -0.35040
  Beta  occ. eigenvalues --   -0.34236  -0.33688  -0.32918  -0.32538  -0.32264
  Beta  occ. eigenvalues --   -0.31508  -0.30142  -0.29787  -0.29134  -0.27971
  Beta  occ. eigenvalues --   -0.27748  -0.26932  -0.26390  -0.26182  -0.24754
  Beta  occ. eigenvalues --   -0.24221  -0.23448  -0.22560  -0.21964  -0.21570
  Beta  occ. eigenvalues --   -0.18424  -0.16901  -0.16614  -0.14556
  Beta virt. eigenvalues --    0.05500   0.06446   0.06765   0.07258   0.07803
  Beta virt. eigenvalues --    0.07970   0.08756   0.09493   0.09530   0.09605
  Beta virt. eigenvalues --    0.09883   0.10363   0.10746   0.10807   0.11508

 Mulliken charges and spin densities:
               1          2
     1  C    0.020294  -0.142901
     2  C   -0.234040  -0.276848
     3  C    0.057602  -0.262651
     4  C   -0.539191  -0.158291
     5  C    0.840445  -0.218766
     6  C   -0.261279  -0.246224
     7  C   -0.420570   0.008087
     8  C   -0.708435   0.556771
     9  C   -0.436571  -0.238784
    10  O   -0.258641   0.006279
    11  N    0.226347   0.060738
    12  C    0.591150  -0.758563
    13  C   -0.578395   0.435795
    14  C    1.697717  -2.204303
    15  N   -0.320690   0.101332
    16  C   -0.073292   0.307493
    17  O   -0.328734   0.008403
    18  C    0.207152  -0.609873
    19  H   -0.071421   0.233984
    20  H   -0.189541   0.352163
    21  H    0.089941   0.018752
    22  H   -0.030930   0.193373
    23  H   -0.266295   0.409910
    24  H    0.010126   0.160260
    25  H   -0.030988   0.156368
    26  H    0.105066   0.040006
    27  H    0.278673  -0.033110
    28  H    0.202870  -0.011427
    29  H    0.130743   0.006065
    30  H    0.032371   0.138951
    31  H    0.091798   0.060669
    32  H    0.100806   0.096209
    33  H    1.564578  -1.466554
    34  H   -0.959571   1.105747
    35  H   -0.326805   0.517494
    36  H   -0.553029   0.734315
    37  H   -0.056705   0.208953
    38  H   -0.073522   0.250535
    39  H   -0.924342   1.108521
    40  H    0.124702   0.203006
    41  H    0.000259   0.174292
    42  H    0.270347  -0.026173
 Sum of Mulliken charges =  -1.00000   1.00000

 Dipole moment (field-independent basis, Debye):
    X=             -6.3115    Y=             -4.4802    Z=             -0.3305  Tot=              7.7471
 Quadrupole moment (field-independent basis, Debye-Ang):
   XX=           -196.8843   YY=           -177.7460   ZZ=           -144.7686
   XY=             -2.0510   XZ=              9.0323   YZ=             -8.1332

 Summary of Natural Population Analysis:

                                       Natural Population
                Natural  -----------------------------------------------
    Atom  No    Charge         Core      Valence    Rydberg      Total
 -----------------------------------------------------------------------
      C    1   -0.19304      0.99963     2.18527    0.00815     3.19304
      C    2   -0.19251      0.99963     2.18411    0.00877     3.19251
      C    3   -0.19207      0.99962     2.18376    0.00869     3.19207
      C    4   -0.18406      0.99961     2.17467    0.00978     3.18406
      C    5   -0.11092      0.99959     2.10054    0.01078     3.11092
      C    6   -0.19253      0.99961     2.18536    0.00756     3.19253
      C    7   -0.19451      0.99963     2.18615    0.00874     3.19451
      C    8   -0.23937      0.99957     2.23160    0.00820     3.23937
      C    9    0.35363      0.99965     1.62383    0.02290     2.64637
      O   10   -0.32101      0.99988     3.31635    0.00478     4.32101
      N   11   -0.25897      0.99965     2.74843    0.01089     3.75897
      C   12   -0.08465      0.99960     2.07317    0.01189     3.08465
      C   13   -0.19908      0.99961     2.19042    0.00905     3.19908
      C   14   -0.09031      0.99961     2.07913    0.01158     3.09031
      N   15   -0.32467      0.99967     2.81510    0.00990     3.82467
      C   16    0.34210      0.99968     1.63503    0.02319     2.65790
      O   17   -0.31329      0.99987     3.30779    0.00562     4.31329
      C   18   -0.13106      0.99957     2.12074    0.01075     3.13106
      H   19    0.09748      0.00000     0.40164    0.00088     0.40252
      H   20    0.09434      0.00000     0.40419    0.00147     0.40566
      H   21    0.09131      0.00000     0.40773    0.00096     0.40869
      H   22    0.09901      0.00000     0.40008    0.00091     0.40099
      H   23    0.09586      0.00000     0.40272    0.00142     0.40414
      H   24    0.09686      0.00000     0.40231    0.00083     0.40314
      H   25    0.09837      0.00000     0.40077    0.00087     0.40163
      H   26    0.09249      0.00000     0.40651    0.00100     0.40751
      H   27    0.10744      0.00000     0.39110    0.00146     0.39256
      H   28    0.11266      0.00000     0.38637    0.00096     0.38734
      H   29    0.09111      0.00000     0.40777    0.00112     0.40889
      H   30    0.09823      0.00000     0.40068    0.00108     0.40177
      H   31    0.09558      0.00000     0.40357    0.00086     0.40442
      H   32    0.11282      0.00000     0.38576    0.00143     0.38718
      H   33    0.10916      0.00000     0.38896    0.00188     0.39084
      H   34    0.10710      0.00000     0.39098    0.00193     0.39290
      H   35    0.09691      0.00000     0.40144    0.00166     0.40309
      H   36    0.10949      0.00000     0.38625    0.00426     0.39051
      H   37    0.09875      0.00000     0.39948    0.00177     0.40125
      H   38    0.08952      0.00000     0.40859    0.00190     0.41048
      H   39    0.10819      0.00000     0.38840    0.00341     0.39181
      H   40    0.19539      0.00000     0.30233    0.00229     0.30461
      H   41    0.10498      0.00000     0.39388    0.00114     0.39502
      H   42    0.12327      0.00000     0.37561    0.00112     0.37673
 =======================================================================
   * Total *    0.00000     17.99366    50.77855    0.22779    69.00000

 Normal termination of Gaussian 16 at Fri Dec 11 21:04:55 2020.
