 Gaussian 16, Revision A.03,

 -----------------------------------------------------------
 # opt freq B3LYP/6-31G(d) empiricaldispersion=gd3bj scf=xqc
 -----------------------------------------------------------

 -------------------------------
 CID_67993681_JID_10340_neutraal
 -------------------------------
 Symbolic Z-matrix:
 Charge =  0 Multiplicity = 1

 SCF Done:  E(RB3LYP) =  -812.558231331     A.U. after   15 cycles
 SCF Done:  E(RB3LYP) =  -812.561621026     A.U. after   13 cycles
 SCF Done:  E(RB3LYP) =  -812.561579424     A.U. after   12 cycles
 SCF Done:  E(RB3LYP) =  -812.562775340     A.U. after   12 cycles
 SCF Done:  E(RB3LYP) =  -812.563758966     A.U. after   12 cycles
 SCF Done:  E(RB3LYP) =  -812.563832125     A.U. after   10 cycles
 SCF Done:  E(RB3LYP) =  -812.563838020     A.U. after   11 cycles
 SCF Done:  E(RB3LYP) =  -812.563876025     A.U. after    9 cycles
 SCF Done:  E(RB3LYP) =  -812.563891531     A.U. after   10 cycles
 SCF Done:  E(RB3LYP) =  -812.563902318     A.U. after   11 cycles
 SCF Done:  E(RB3LYP) =  -812.563916237     A.U. after   11 cycles
 SCF Done:  E(RB3LYP) =  -812.563917073     A.U. after   10 cycles
 SCF Done:  E(RB3LYP) =  -812.563917223     A.U. after    9 cycles
 SCF Done:  E(RB3LYP) =  -812.563917203     A.U. after    7 cycles
 SCF Done:  E(RB3LYP) =  -812.563917184     A.U. after    7 cycles
 SCF Done:  E(RB3LYP) =  -812.563917181     A.U. after    7 cycles
 Optimization completed.
    -- Stationary point found.
 Normal termination of Gaussian 16 at Mon Dec 14 13:50:38 2020.

 --------------------------------------------------------------------
 #N Geom=AllCheck Guess=TCheck SCRF=Check GenChk RB3LYP/6-31G(d) Freq
 --------------------------------------------------------------------

 Structure from the checkpoint file:  "JID_10340.chk"
 -------------------------------
 CID_67993681_JID_10340_neutraal
 -------------------------------
 Charge =  0 Multiplicity = 1

 SCF Done:  E(RB3LYP) =  -812.563917181     A.U. after    1 cycles

  Exact polarizability: 225.932   9.220 203.593   8.893   6.303 137.372
 Approx polarizability: 322.556  17.040 317.678  24.934  25.112 230.720

                      1                      2                      3
                      A                      A                      A
 Frequencies --     17.2936                26.1025                59.1947
 Red. masses --      3.8108                 3.3347                 4.8206
 Frc consts  --      0.0007                 0.0013                 0.0100
 IR Inten    --      1.6262                 0.2593                 1.3146

                      4                      5                      6
                      A                      A                      A
 Frequencies --     87.3354               103.8179               119.3166
 Red. masses --      3.4232                 3.0414                 2.8456
 Frc consts  --      0.0154                 0.0193                 0.0239
 IR Inten    --      0.0551                 1.1033                 0.3559

                      7                      8                      9
                      A                      A                      A
 Frequencies --    165.8342               186.0893               215.3247
 Red. masses --      2.5766                 3.1285                 2.2587
 Frc consts  --      0.0417                 0.0638                 0.0617
 IR Inten    --      0.6956                 0.5188                 0.7195

                     10                     11                     12
                      A                      A                      A
 Frequencies --    234.1025               262.3766               283.5103
 Red. masses --      2.3414                 1.6059                 3.7601
 Frc consts  --      0.0756                 0.0651                 0.1781
 IR Inten    --      0.9228                 0.3135                 1.0769

                     13                     14                     15
                      A                      A                      A
 Frequencies --    315.1815               326.4301               349.0494
 Red. masses --      3.6115                 4.1899                 3.3066
 Frc consts  --      0.2114                 0.2630                 0.2374
 IR Inten    --      0.5260                 2.6544                 1.3425

                     16                     17                     18
                      A                      A                      A
 Frequencies --    377.0239               398.9090               419.1449
 Red. masses --      2.3591                 2.6842                 2.6391
 Frc consts  --      0.1976                 0.2517                 0.2732
 IR Inten    --      0.1312                 1.3563                 2.1633

                     19                     20                     21
                      A                      A                      A
 Frequencies --    434.1792               457.0926               490.6143
 Red. masses --      3.6083                 3.7004                 3.0670
 Frc consts  --      0.4008                 0.4555                 0.4349
 IR Inten    --      1.5923                 1.4881                 1.5454

                     22                     23                     24
                      A                      A                      A
 Frequencies --    521.2735               546.7581               561.6925
 Red. masses --      1.8685                 3.8823                 2.8758
 Frc consts  --      0.2991                 0.6838                 0.5346
 IR Inten    --      1.1883                 5.3171                 6.3440

                     25                     26                     27
                      A                      A                      A
 Frequencies --    580.3418               631.9106               645.4292
 Red. masses --      2.8804                 3.9909                 3.8274
 Frc consts  --      0.5716                 0.9389                 0.9394
 IR Inten    --      1.0708                 7.9360                 1.6502

                     28                     29                     30
                      A                      A                      A
 Frequencies --    667.8351               696.9878               722.6459
 Red. masses --      4.3542                 2.8919                 4.6126
 Frc consts  --      1.1442                 0.8277                 1.4192
 IR Inten    --      0.5249                 2.2314                 0.4591

                     31                     32                     33
                      A                      A                      A
 Frequencies --    743.0805               769.2162               786.6974
 Red. masses --      1.6224                 2.9465                 3.4513
 Frc consts  --      0.5278                 1.0272                 1.2585
 IR Inten    --     34.9003                 2.2685                 1.9666

                     34                     35                     36
                      A                      A                      A
 Frequencies --    790.9011               806.7957               836.4713
 Red. masses --      2.8792                 1.4733                 3.4848
 Frc consts  --      1.0611                 0.5650                 1.4366
 IR Inten    --      6.3915                15.4904                 7.4327

                     37                     38                     39
                      A                      A                      A
 Frequencies --    854.6351               863.2206               877.8697
 Red. masses --      1.8197                 2.1019                 1.7920
 Frc consts  --      0.7831                 0.9228                 0.8137
 IR Inten    --      9.0358                 6.9278                 3.7654

                     40                     41                     42
                      A                      A                      A
 Frequencies --    893.4810               897.0911               909.4741
 Red. masses --      1.7771                 2.3765                 1.5663
 Frc consts  --      0.8359                 1.1268                 0.7633
 IR Inten    --      3.0824                 4.0206                 1.2724

                     43                     44                     45
                      A                      A                      A
 Frequencies --    913.0798               924.4058               942.3837
 Red. masses --      2.0199                 2.1944                 2.4927
 Frc consts  --      0.9922                 1.1048                 1.3043
 IR Inten    --      2.2472                 2.2754                 1.2322

                     46                     47                     48
                      A                      A                      A
 Frequencies --    946.9213               960.4074               971.4182
 Red. masses --      1.7690                 2.0988                 1.6766
 Frc consts  --      0.9346                 1.1406                 0.9322
 IR Inten    --      4.6804                 3.3763                 2.8320

                     49                     50                     51
                      A                      A                      A
 Frequencies --    984.2469               990.6060              1017.8057
 Red. masses --      1.9724                 1.4025                 2.5486
 Frc consts  --      1.1258                 0.8109                 1.5555
 IR Inten    --      1.1803                 0.5547                 2.7584

                     52                     53                     54
                      A                      A                      A
 Frequencies --   1026.8413              1056.8554              1057.9538
 Red. masses --      2.0417                 1.8510                 1.8125
 Frc consts  --      1.2684                 1.2181                 1.1953
 IR Inten    --     14.7845                 0.2223                 0.9277

                     55                     56                     57
                      A                      A                      A
 Frequencies --   1069.6887              1086.3292              1097.9259
 Red. masses --      3.7885                 2.0830                 1.7145
 Frc consts  --      2.5541                 1.4483                 1.2177
 IR Inten    --      5.4155                 0.3796                 3.2962

                     58                     59                     60
                      A                      A                      A
 Frequencies --   1117.7469              1124.8439              1134.6188
 Red. masses --      1.8931                 1.8831                 1.2657
 Frc consts  --      1.3935                 1.4038                 0.9600
 IR Inten    --      1.9862                 5.9201                 1.2058

                     61                     62                     63
                      A                      A                      A
 Frequencies --   1144.3079              1166.5174              1178.6760
 Red. masses --      1.3141                 1.4361                 1.3572
 Frc consts  --      1.0138                 1.1514                 1.1109
 IR Inten    --      4.1739                12.5995                 2.2560

                     64                     65                     66
                      A                      A                      A
 Frequencies --   1190.3405              1215.5915              1230.4538
 Red. masses --      1.6135                 1.4433                 1.4641
 Frc consts  --      1.3470                 1.2566                 1.3060
 IR Inten    --      1.5574                 2.8718                 2.1801

                     67                     68                     69
                      A                      A                      A
 Frequencies --   1246.9595              1253.0893              1259.4138
 Red. masses --      2.0438                 1.4891                 1.4659
 Frc consts  --      1.8723                 1.3777                 1.3699
 IR Inten    --     41.0332                 3.0243                 2.0112

                     70                     71                     72
                      A                      A                      A
 Frequencies --   1277.4394              1298.4429              1299.8329
 Red. masses --      2.1303                 1.4057                 1.4734
 Frc consts  --      2.0482                 1.3964                 1.4668
 IR Inten    --     33.1796                 3.8733                 1.5112

                     73                     74                     75
                      A                      A                      A
 Frequencies --   1304.4777              1309.0767              1320.7852
 Red. masses --      1.2749                 1.8719                 1.5566
 Frc consts  --      1.2782                 1.8900                 1.5999
 IR Inten    --      6.1696                37.6624                42.3798

                     76                     77                     78
                      A                      A                      A
 Frequencies --   1335.7584              1338.7567              1357.2581
 Red. masses --      1.6813                 1.5386                 4.4405
 Frc consts  --      1.7674                 1.6247                 4.8196
 IR Inten    --      8.9505                 2.0658                 6.0765

                     79                     80                     81
                      A                      A                      A
 Frequencies --   1372.4976              1382.0337              1385.3709
 Red. masses --      1.5095                 1.5981                 1.5665
 Frc consts  --      1.6754                 1.7984                 1.7714
 IR Inten    --      6.5717                 1.8873                 5.2477

                     82                     83                     84
                      A                      A                      A
 Frequencies --   1390.6574              1394.9700              1444.2068
 Red. masses --      1.4386                 1.4891                 1.2653
 Frc consts  --      1.6392                 1.7072                 1.5550
 IR Inten    --     21.7126                 2.8154                 6.2781

                     85                     86                     87
                      A                      A                      A
 Frequencies --   1469.5368              1487.9193              1515.1157
 Red. masses --      3.1155                 1.0854                 1.1031
 Frc consts  --      3.9640                 1.4157                 1.4920
 IR Inten    --     33.4458                 3.6179                 4.9081

                     88                     89                     90
                      A                      A                      A
 Frequencies --   1519.1381              1519.5621              1522.5496
 Red. masses --      1.1466                 1.0821                 1.0984
 Frc consts  --      1.5590                 1.4721                 1.5002
 IR Inten    --      3.4479                 1.0447                 1.5619

                     91                     92                     93
                      A                      A                      A
 Frequencies --   1527.6033              1531.4918              1537.8037
 Red. masses --      2.2060                 1.0813                 1.0722
 Frc consts  --      3.0331                 1.4943                 1.4939
 IR Inten    --      7.1427                 3.0916                 2.7064

                     94                     95                     96
                      A                      A                      A
 Frequencies --   1545.0536              1618.3324              1663.6192
 Red. masses --      1.1076                 6.4753                 5.9183
 Frc consts  --      1.5579                 9.9918                 9.6506
 IR Inten    --      7.2154                 3.4531               104.8071

                     97                     98                     99
                      A                      A                      A
 Frequencies --   1665.4559              1773.1475              3035.6680
 Red. masses --      5.6800                12.2329                 1.0606
 Frc consts  --      9.2825                22.6606                 5.7586
 IR Inten    --      1.6505               220.3153                17.9930

                    100                    101                    102
                      A                      A                      A
 Frequencies --   3041.0452              3047.3713              3048.9712
 Red. masses --      1.0611                 1.0380                 1.0703
 Frc consts  --      5.7815                 5.6793                 5.8620
 IR Inten    --     37.0112                20.9101                15.3085

                    103                    104                    105
                      A                      A                      A
 Frequencies --   3055.8179              3070.3837              3082.0528
 Red. masses --      1.0631                 1.1011                 1.0610
 Frc consts  --      5.8490                 6.1157                 5.9379
 IR Inten    --     10.9438                31.6922                27.0752

                    106                    107                    108
                      A                      A                      A
 Frequencies --   3083.4631              3087.5669              3097.8471
 Red. masses --      1.1027                 1.0637                 1.0960
 Frc consts  --      6.1772                 5.9743                 6.1971
 IR Inten    --     38.3609                12.5786                21.6859

                    109                    110                    111
                      A                      A                      A
 Frequencies --   3111.9981              3115.1313              3116.8152
 Red. masses --      1.1013                 1.0940                 1.0865
 Frc consts  --      6.2839                 6.2548                 6.2187
 IR Inten    --     38.1411                38.2033                55.1062

                    112                    113                    114
                      A                      A                      A
 Frequencies --   3121.4808              3125.4781              3129.5604
 Red. masses --      1.0877                 1.1023                 1.1052
 Frc consts  --      6.2444                 6.3442                 6.3774
 IR Inten    --     45.6782                48.8437                22.4123

                    115                    116                    117
                      A                      A                      A
 Frequencies --   3141.1137              3187.7089              3208.9925
 Red. masses --      1.1052                 1.0893                 1.0861
 Frc consts  --      6.4249                 6.5217                 6.5894
 IR Inten    --     36.5980                16.7008                10.1204

                    118                    119                    120
                      A                      A                      A
 Frequencies --   3221.2286              3233.3004              3275.4934
 Red. masses --      1.0922                 1.1057                 1.0863
 Frc consts  --      6.6775                 6.8104                 6.8665
 IR Inten    --      5.5758                14.7924                 6.6484

 - Thermochemistry -
 -------------------
 Temperature   298.150 Kelvin.  Pressure   1.00000 Atm.
 Atom     1 has atomic number  6 and mass  12.00000

 Molecular mass:   266.16707 amu.
 Principal axes and moments of inertia in atomic units:
                           1         2         3
     Eigenvalues --  4090.290475669.112088577.53952
           X            0.99976   0.02048  -0.00747
           Y           -0.02052   0.99977  -0.00600
           Z            0.00734   0.00615   0.99995
 This molecule is an asymmetric top.
 Rotational symmetry number  1.
 Warning -- assumption of classical behavior for rotation
           may cause significant error
 Rotational temperatures (Kelvin)      0.02118     0.01528     0.01010
 Rotational constants (GHZ):           0.44123     0.31835     0.21040
 Zero-point vibrational energy     962919.3 (Joules/Mol)
                                  230.14325 (Kcal/Mol)
 Warning -- explicit consideration of  25 degrees of freedom as
           vibrations may cause significant error
 Vibrational temperatures:     24.88    37.56    85.17   125.66   149.37
          (Kelvin)            171.67   238.60   267.74   309.80   336.82
                              377.50   407.91   453.48   469.66   502.20
                              542.45   573.94   603.06   624.69   657.65
                              705.88   750.00   786.66   808.15   834.98
                              909.18   928.63   960.87  1002.81  1039.73
                             1069.13  1106.73  1131.88  1137.93  1160.80
                             1203.50  1229.63  1241.98  1263.06  1285.52
                             1290.71  1308.53  1313.72  1330.01  1355.88
                             1362.41  1381.81  1397.65  1416.11  1425.26
                             1464.40  1477.40  1520.58  1522.16  1539.04
                             1562.99  1579.67  1608.19  1618.40  1632.46
                             1646.40  1678.36  1695.85  1712.63  1748.97
                             1770.35  1794.10  1802.92  1812.02  1837.95
                             1868.17  1870.17  1876.85  1883.47  1900.32
                             1921.86  1926.17  1952.79  1974.72  1988.44
                             1993.24  2000.85  2007.05  2077.89  2114.34
                             2140.78  2179.91  2185.70  2186.31  2190.61
                             2197.88  2203.48  2212.56  2222.99  2328.42
                             2393.58  2396.22  2551.16  4367.65  4375.39
                             4384.49  4386.79  4396.64  4417.60  4434.39
                             4436.42  4442.32  4457.11  4477.47  4481.98
                             4484.40  4491.11  4496.87  4502.74  4519.36
                             4586.40  4617.02  4634.63  4652.00  4712.70

 Zero-point correction=                           0.366757 (Hartree/Particle)
 Thermal correction to Energy=                    0.383577
 Thermal correction to Enthalpy=                  0.384521
 Thermal correction to Gibbs Free Energy=         0.321198
 Sum of electronic and zero-point Energies=           -812.197161
 Sum of electronic and thermal Energies=              -812.180341
 Sum of electronic and thermal Enthalpies=            -812.179396
 Sum of electronic and thermal Free Energies=         -812.242719

                     E (Thermal)             CV                S
                      KCal/Mol        Cal/Mol-Kelvin    Cal/Mol-Kelvin
 Total                  240.698             68.975            133.273
 Electronic               0.000              0.000              0.000
 Translational            0.889              2.981             42.636
 Rotational               0.889              2.981             33.653
 Vibrational            238.920             63.014             56.985
 Vibration     1          0.593              1.986              6.923
 Vibration     2          0.593              1.985              6.106
 Vibration     3          0.597              1.974              4.484
 Vibration     4          0.601              1.958              3.719
 Vibration     5          0.605              1.946              3.381
 Vibration     6          0.609              1.933              3.111
 Vibration     7          0.624              1.884              2.482
 Vibration     8          0.632              1.859              2.266
 Vibration     9          0.645              1.818              1.998
 Vibration    10          0.654              1.789              1.847
 Vibration    11          0.670              1.742              1.646
 Vibration    12          0.682              1.704              1.512
 Vibration    13          0.703              1.645              1.335
 Vibration    14          0.710              1.623              1.278
 Vibration    15          0.726              1.577              1.170
 Vibration    16          0.748              1.519              1.051
 Vibration    17          0.765              1.472              0.967
 Vibration    18          0.782              1.429              0.895
 Vibration    19          0.795              1.396              0.845
 Vibration    20          0.815              1.345              0.775
 Vibration    21          0.846              1.271              0.682
 Vibration    22          0.876              1.203              0.607
 Vibration    23          0.902              1.147              0.551
 Vibration    24          0.917              1.114              0.520
 Vibration    25          0.937              1.074              0.485

 Optimization completed.
    -- Stationary point found.
 Normal termination of Gaussian 16 at Mon Dec 14 14:15:06 2020.

 ----------------------------------------------------------------------
 # B3LYP/6-311++G(d,p) empiricaldispersion=gd3bj scf=xqc pop=npa geom=c
 heck
 ----------------------------------------------------------------------

 ---------------------------------------
 CID_67993681_JID_10340_Energie_neutraal
 ---------------------------------------
 Structure from the checkpoint file:  "JID_10340.chk"
 Charge =  0 Multiplicity = 1

 SCF Done:  E(RB3LYP) =  -812.772055499     A.U. after   15 cycles
 Normal termination of Gaussian 16 at Mon Dec 14 14:24:55 2020.

 ----------------------------------------------------------------------
 # B3LYP/6-311++G(d,p) empiricaldispersion=gd3bj scf=xqc pop=npa geom=c
 heck
 ----------------------------------------------------------------------

 -------------------------------------
 CID_67993681_JID_10340_Energie_kation
 -------------------------------------
 Structure from the checkpoint file:  "JID_10340.chk"
 Charge =  1 Multiplicity = 2

 SCF Done:  E(UB3LYP) =  -812.473418938     A.U. after   29 cycles
 Normal termination of Gaussian 16 at Mon Dec 14 14:51:12 2020.
 Gaussian 16:  ES64L-G16RevA.03 25-Dec-2016

 ----------------------------------------------------------------------
 # B3LYP/6-311++G(d,p) empiricaldispersion=gd3bj scf=xqc pop=npa geom=c
 heck
 ----------------------------------------------------------------------

 ------------------------------------
 CID_67993681_JID_10340_Energie_anion
 ------------------------------------
 Structure from the checkpoint file:  "JID_10340.chk"
 Charge = -1 Multiplicity = 2

                         Standard orientation:
 ---------------------------------------------------------------------
 Center     Atomic      Atomic             Coordinates (Angstroms)
 Number     Number       Type             X           Y           Z
 ---------------------------------------------------------------------
      1          6           0       -4.267524   -0.874862    1.394580
      2          6           0       -3.897226   -1.510923    0.053597
      3          6           0       -3.537741   -0.476004   -1.032903
      4          6           0       -2.321992    0.346239   -0.675841
      5          6           0       -1.054510   -0.249730   -0.700500
      6          6           0        0.108539    0.430727   -0.338270
      7          6           0       -0.027828    1.796657    0.017196
      8          6           0       -1.292908    2.396540    0.060275
      9          6           0       -2.433480    1.681083   -0.274084
     10          6           0        1.143785    2.669567    0.294011
     11          8           0        1.022037    3.792199    0.764370
     12          6           0        2.516054    2.128741   -0.071550
     13          6           0        2.471473    0.833055   -0.882181
     14          6           0        1.495296   -0.212189   -0.280808
     15          6           0        1.895279   -0.610093    1.195375
     16          6           0        2.356186   -2.097280    1.077014
     17          6           0        3.001032   -2.092451   -0.327616
     18          6           0        1.700749   -1.600601   -1.022710
     19          6           0        0.743465   -2.655422   -0.469149
     20          6           0        1.122628   -2.935237    0.783272
     21          1           0       -3.435717   -0.286491    1.795912
     22          1           0       -4.530312   -1.638347    2.134839
     23          1           0       -5.127746   -0.202635    1.286735
     24          1           0       -3.046520   -2.191357    0.192079
     25          1           0       -4.731595   -2.123990   -0.310799
     26          1           0       -3.358730   -1.003098   -1.979103
     27          1           0       -4.396160    0.187183   -1.197073
     28          1           0       -0.996469   -1.282649   -1.008022
     29          1           0       -1.344085    3.441185    0.349259
     30          1           0       -3.410731    2.155312   -0.238357
     31          1           0        3.048177    2.921541   -0.608883
     32          1           0        3.066648    1.986431    0.867068
     33          1           0        2.138948    1.052654   -1.904951
     34          1           0        3.482923    0.427253   -0.962981
     35          1           0        2.715388    0.012056    1.565771
     36          1           0        1.058021   -0.497214    1.888054
     37          1           0        2.976633   -2.435413    1.910148
     38          1           0        3.289887   -3.092564   -0.661116
     39          1           0        3.858524   -1.420664   -0.418819
     40          1           0        1.722804   -1.502085   -2.110777
     41          1           0       -0.106896   -3.069359   -0.998531
     42          1           0        0.623042   -3.582245    1.496337
 ---------------------------------------------------------------------

 SCF Done:  E(UB3LYP) =  -812.780503006     A.U. after   29 cycles

 The electronic state is 2-A.
 Alpha  occ. eigenvalues --  -18.92368 -10.08209 -10.08087 -10.07782 -10.07290
 Alpha  occ. eigenvalues --  -10.07111 -10.06931 -10.06901 -10.05980 -10.05847
 Alpha  occ. eigenvalues --  -10.05356 -10.05234 -10.05102 -10.04141 -10.03693
 Alpha  occ. eigenvalues --  -10.02833 -10.02760 -10.02691 -10.01799 -10.01580
 Alpha  occ. eigenvalues --   -0.86388  -0.78697  -0.72441  -0.69407  -0.67007
 Alpha  occ. eigenvalues --   -0.63099  -0.62175  -0.61565  -0.60908  -0.58027
 Alpha  occ. eigenvalues --   -0.56174  -0.52683  -0.49409  -0.48048  -0.46951
 Alpha  occ. eigenvalues --   -0.44777  -0.43907  -0.42196  -0.41906  -0.38734
 Alpha  occ. eigenvalues --   -0.37606  -0.35193  -0.34462  -0.34370  -0.33285
 Alpha  occ. eigenvalues --   -0.31650  -0.31406  -0.30588  -0.29132  -0.28662
 Alpha  occ. eigenvalues --   -0.28532  -0.27518  -0.26998  -0.25940  -0.25807
 Alpha  occ. eigenvalues --   -0.25316  -0.24988  -0.24672  -0.24206  -0.23930
 Alpha  occ. eigenvalues --   -0.23625  -0.22534  -0.22305  -0.20931  -0.20201
 Alpha  occ. eigenvalues --   -0.19269  -0.19182  -0.18241  -0.14456  -0.11152
 Alpha  occ. eigenvalues --   -0.10608  -0.08490   0.04240
 Alpha virt. eigenvalues --    0.06606   0.07324   0.08411   0.08623   0.09050
 Alpha virt. eigenvalues --    0.09222   0.09570   0.09877   0.10791   0.11021
 Alpha virt. eigenvalues --    0.11504   0.12025   0.12158   0.12256   0.12652

  Beta  occ. eigenvalues --  -18.91927 -10.08210 -10.08085 -10.07792 -10.07288
  Beta  occ. eigenvalues --  -10.07111 -10.06898 -10.06628 -10.05970 -10.05803
  Beta  occ. eigenvalues --  -10.05353 -10.05225 -10.05127 -10.04013 -10.03725
  Beta  occ. eigenvalues --  -10.02905 -10.02757 -10.02414 -10.01611 -10.01488
  Beta  occ. eigenvalues --   -0.85571  -0.78682  -0.72155  -0.69244  -0.66918
  Beta  occ. eigenvalues --   -0.63057  -0.61971  -0.61352  -0.60775  -0.57903
  Beta  occ. eigenvalues --   -0.56031  -0.52524  -0.49174  -0.47954  -0.46922
  Beta  occ. eigenvalues --   -0.44387  -0.43856  -0.42076  -0.41824  -0.38664
  Beta  occ. eigenvalues --   -0.37384  -0.35054  -0.34345  -0.34258  -0.33148
  Beta  occ. eigenvalues --   -0.31533  -0.31181  -0.30505  -0.29012  -0.28578
  Beta  occ. eigenvalues --   -0.28359  -0.27446  -0.26766  -0.25697  -0.25587
  Beta  occ. eigenvalues --   -0.25164  -0.24928  -0.24429  -0.23947  -0.23692
  Beta  occ. eigenvalues --   -0.23568  -0.22442  -0.21989  -0.20797  -0.19952
  Beta  occ. eigenvalues --   -0.19115  -0.18201  -0.17551  -0.14375  -0.10541
  Beta  occ. eigenvalues --   -0.09111  -0.08042
  Beta virt. eigenvalues --    0.06594   0.07222   0.08259   0.08529   0.09037
  Beta virt. eigenvalues --    0.09202   0.09522   0.09808   0.10163   0.10702
  Beta virt. eigenvalues --    0.11153   0.11479   0.11978   0.12105   0.12369

 Mulliken charges and spin densities:
               1          2
     1  C   -0.617573  -0.046933
     2  C    0.237336  -0.312610
     3  C   -0.477985   0.039527
     4  C    1.074491   0.208032
     5  C   -0.247336   0.004899
     6  C   -0.126425   0.110670
     7  C    0.709707   0.044016
     8  C   -0.421776   0.142840
     9  C   -0.679151  -0.137104
    10  C   -0.812500   0.143961
    11  O   -0.387684   0.165227
    12  C   -0.099798  -0.041319
    13  C   -0.480387  -0.006752
    14  C    0.827482   0.055331
    15  C   -0.933699  -0.037769
    16  C    0.308105   0.045592
    17  C   -0.628271  -0.025388
    18  C    0.298688  -0.039736
    19  C   -0.412282  -0.035300
    20  C   -0.458631  -0.005556
    21  H    0.153593   0.004992
    22  H    0.081640   0.031447
    23  H    0.120488   0.000621
    24  H    0.124959  -0.011580
    25  H   -0.190063   0.321901
    26  H   -0.006639   0.158798
    27  H    0.070913   0.072637
    28  H    0.041736  -0.070729
    29  H    0.185901  -0.011741
    30  H    0.090677   0.012506
    31  H    0.158607   0.017714
    32  H    0.089827   0.075295
    33  H    0.138754  -0.002890
    34  H    0.098641  -0.001166
    35  H    0.119655   0.010200
    36  H    0.171689   0.002294
    37  H    0.204947   0.017515
    38  H    0.151929  -0.000679
    39  H    0.097975   0.006346
    40  H    0.206168   0.032905
    41  H    0.089970   0.060351
    42  H    0.126320   0.001636
 Sum of Mulliken charges =  -1.00000   1.00000

 Dipole moment (field-independent basis, Debye):
    X=              2.7079    Y=             -7.0328    Z=             -0.4782  Tot=              7.5513
 Quadrupole moment (field-independent basis, Debye-Ang):
   XX=           -158.8446   YY=           -174.9985   ZZ=           -135.1494
   XY=            -12.7256   XZ=             -5.1735   YZ=             -8.5913

 Summary of Natural Population Analysis:

                                       Natural Population
                Natural  -----------------------------------------------
    Atom  No    Charge         Core      Valence    Rydberg      Total
 -----------------------------------------------------------------------
      C    1   -0.28974      0.99967     2.28385    0.00622     3.28974
      C    2   -0.18276      0.99964     2.17525    0.00788     3.18276
      C    3   -0.19766      0.99961     2.18764    0.01042     3.19766
      C    4    0.04608      0.99951     1.94340    0.01102     2.95392
      C    5   -0.12760      0.99947     2.11996    0.00817     3.12760
      C    6    0.02746      0.99946     1.96180    0.01129     2.97254
      C    7   -0.06206      0.99944     2.05180    0.01082     3.06206
      C    8   -0.03559      0.99954     2.02735    0.00871     3.03559
      C    9   -0.13022      0.99952     2.12312    0.00759     3.13022
      C   10    0.31266      0.99961     1.66843    0.01930     2.68734
      O   11   -0.26758      0.99988     3.26121    0.00650     4.26758
      C   12   -0.23177      0.99960     2.22138    0.01079     3.23177
      C   13   -0.18228      0.99960     2.17394    0.00875     3.18228
      C   14   -0.03206      0.99955     2.01942    0.01310     3.03206
      C   15   -0.18121      0.99960     2.17217    0.00944     3.18121
      C   16   -0.12801      0.99961     2.11851    0.00990     3.12801
      C   17   -0.17777      0.99964     2.17073    0.00741     3.17777
      C   18   -0.12159      0.99958     2.10964    0.01237     3.12159
      C   19   -0.09602      0.99953     2.08383    0.01265     3.09602
      C   20   -0.09891      0.99952     2.09043    0.00896     3.09891
      H   21    0.10592      0.00000     0.39319    0.00089     0.39408
      H   22    0.09238      0.00000     0.40696    0.00066     0.40762
      H   23    0.09217      0.00000     0.40702    0.00081     0.40783
      H   24    0.09310      0.00000     0.40574    0.00116     0.40690
      H   25    0.08927      0.00000     0.40900    0.00173     0.41073
      H   26    0.10055      0.00000     0.39843    0.00102     0.39945
      H   27    0.09382      0.00000     0.40524    0.00095     0.40618
      H   28    0.09313      0.00000     0.40514    0.00173     0.40687
      H   29    0.10455      0.00000     0.39400    0.00145     0.39545
      H   30    0.09097      0.00000     0.40814    0.00088     0.40903
      H   31    0.10614      0.00000     0.39295    0.00091     0.39386
      H   32    0.10260      0.00000     0.39599    0.00140     0.39740
      H   33    0.09867      0.00000     0.40046    0.00087     0.40133
      H   34    0.09104      0.00000     0.40790    0.00106     0.40896
      H   35    0.10007      0.00000     0.39875    0.00117     0.39993
      H   36    0.10680      0.00000     0.39254    0.00066     0.39320
      H   37    0.09676      0.00000     0.40162    0.00162     0.40324
      H   38    0.09767      0.00000     0.40143    0.00090     0.40233
      H   39    0.09607      0.00000     0.40296    0.00097     0.40393
      H   40    0.10441      0.00000     0.39450    0.00109     0.39559
      H   41    0.10176      0.00000     0.39709    0.00114     0.39824
      H   42    0.09877      0.00000     0.40039    0.00084     0.40123
 =======================================================================
   * Total *    0.00000     19.99154    51.78329    0.22516    72.00000

 Normal termination of Gaussian 16 at Mon Dec 14 15:17:00 2020.
