 Gaussian 16, Revision A.03,

 -----------------------------------------------------------
 # opt freq B3LYP/6-31G(d) empiricaldispersion=gd3bj scf=xqc
 -----------------------------------------------------------

 -------------------------------
 CID_106895274_JID_2136_neutraal
 -------------------------------
 Symbolic Z-matrix:
 Charge =  0 Multiplicity = 1

 SCF Done:  E(RB3LYP) =  -532.259297271     A.U. after   14 cycles
 SCF Done:  E(RB3LYP) =  -532.263352510     A.U. after   12 cycles
 SCF Done:  E(RB3LYP) =  -532.263759890     A.U. after   12 cycles
 SCF Done:  E(RB3LYP) =  -532.263934078     A.U. after   12 cycles
 SCF Done:  E(RB3LYP) =  -532.263961290     A.U. after   11 cycles
 SCF Done:  E(RB3LYP) =  -532.263982732     A.U. after   11 cycles
 SCF Done:  E(RB3LYP) =  -532.263986141     A.U. after    9 cycles
 SCF Done:  E(RB3LYP) =  -532.263991890     A.U. after   10 cycles
 SCF Done:  E(RB3LYP) =  -532.263994307     A.U. after   10 cycles
 SCF Done:  E(RB3LYP) =  -532.263994876     A.U. after    9 cycles
 SCF Done:  E(RB3LYP) =  -532.263994937     A.U. after    8 cycles
 SCF Done:  E(RB3LYP) =  -532.263994980     A.U. after    9 cycles
 SCF Done:  E(RB3LYP) =  -532.263994986     A.U. after    8 cycles
 Optimization completed.
    -- Stationary point found.

 1\1\GINC-NODE300\FOpt\RB3LYP\6-31G(d)\C8H14N4\VSC10255\09-Dec-2020\0\\
 # opt freq B3LYP/6-31G(d) empiricaldispersion=gd3bj scf=xqc\\CID_10689
 5274_JID_2136_neutraal\\0,1\C,1.1842098268,-0.7769482178,-0.1630295944
 \C,1.2588652046,0.5972871645,-0.2913097779\C,0.2572844767,1.3641430846
 ,0.3219806025\N,-0.7371913484,0.8123174048,1.0305613368\N,-0.807113006
 1,-0.5131001916,1.1643152531\C,0.115221378,-1.2829835567,0.5821131828\
 C,0.2378405227,2.8665445061,0.1931021532\N,-0.3058960299,3.2513463029,
 -1.1108696085\C,-0.4080784766,4.6968473924,-1.3195474106\C,0.902723904

 Normal termination of Gaussian 16 at Wed Dec  9 16:50:26 2020.

 --------------------------------------------------------------------
 #N Geom=AllCheck Guess=TCheck SCRF=Check GenChk RB3LYP/6-31G(d) Freq
 --------------------------------------------------------------------

 Structure from the checkpoint file:  "JID_2136.chk"
 -------------------------------
 CID_106895274_JID_2136_neutraal
 -------------------------------
 Charge =  0 Multiplicity = 1

 SCF Done:  E(RB3LYP) =  -532.263994986     A.U. after    1 cycles

  Exact polarizability: 139.224   5.056 107.232  -6.992   0.808  72.528
 Approx polarizability: 185.271   2.343 179.366 -14.570   4.320 111.385

                      1                      2                      3
                      A                      A                      A
 Frequencies --     22.0235                27.1229                53.4575
 Red. masses --      4.5137                 4.5652                 3.4885
 Frc consts  --      0.0013                 0.0020                 0.0059
 IR Inten    --      2.0232                 1.4476                 0.4334

                      4                      5                      6
                      A                      A                      A
 Frequencies --     93.0103               107.1132               183.6756
 Red. masses --      3.1911                 3.2895                 3.1429
 Frc consts  --      0.0163                 0.0222                 0.0625
 IR Inten    --      1.3469                 4.8234                 8.8933

                      7                      8                      9
                      A                      A                      A
 Frequencies --    218.7652               270.1024               291.3434
 Red. masses --      1.4469                 3.7082                 1.5713
 Frc consts  --      0.0408                 0.1594                 0.0786
 IR Inten    --     30.8337                 3.2895                18.6419

                     10                     11                     12
                      A                      A                      A
 Frequencies --    339.6853               349.9814               379.4851
 Red. masses --      2.3841                 2.6010                 4.1219
 Frc consts  --      0.1621                 0.1877                 0.3497
 IR Inten    --      4.0384                 7.7852                 0.2512

                     13                     14                     15
                      A                      A                      A
 Frequencies --    439.2796               517.3735               539.6139
 Red. masses --      1.9040                 4.0429                 2.6258
 Frc consts  --      0.2165                 0.6376                 0.4505
 IR Inten    --      5.7541                 7.3383                 8.3674

                     16                     17                     18
                      A                      A                      A
 Frequencies --    643.9179               658.1277               726.4420
 Red. masses --      7.0023                 5.0275                 1.2631
 Frc consts  --      1.7106                 1.2830                 0.3927
 IR Inten    --      0.3167                 1.7943                83.1441

                     19                     20                     21
                      A                      A                      A
 Frequencies --    768.0894               781.1530               820.7486
 Red. masses --      2.8220                 1.4881                 2.0230
 Frc consts  --      0.9809                 0.5350                 0.8029
 IR Inten    --      1.0762                31.8070                 7.9037

                     22                     23                     24
                      A                      A                      A
 Frequencies --    841.2526               857.4707               870.7276
 Red. masses --      2.3351                 1.7796                 2.1020
 Frc consts  --      0.9737                 0.7709                 0.9390
 IR Inten    --     24.4348                62.5332                93.6550

                     25                     26                     27
                      A                      A                      A
 Frequencies --    954.3909               962.0048               976.7580
 Red. masses --      1.5011                 1.6980                 1.8425
 Frc consts  --      0.8056                 0.9259                 1.0357
 IR Inten    --      1.3182                 1.8489                 2.9477

                     28                     29                     30
                      A                      A                      A
 Frequencies --    998.9735              1003.0373              1044.4592
 Red. masses --      1.6494                 1.3236                 7.0624
 Frc consts  --      0.9698                 0.7846                 4.5392
 IR Inten    --     11.7600                 0.4380                 2.4016

                     31                     32                     33
                      A                      A                      A
 Frequencies --   1065.1015              1079.7366              1086.6592
 Red. masses --      2.3132                 2.4418                 1.8908
 Frc consts  --      1.5461                 1.6772                 1.3155
 IR Inten    --      3.1613                 0.9383                 4.4856

                     34                     35                     36
                      A                      A                      A
 Frequencies --   1127.1218              1132.9338              1156.0755
 Red. masses --      2.2041                 2.2002                 3.0608
 Frc consts  --      1.6497                 1.6639                 2.4102
 IR Inten    --     15.6101                 0.3098                78.9851

                     37                     38                     39
                      A                      A                      A
 Frequencies --   1170.9040              1194.2458              1222.1149
 Red. masses --      1.4900                 1.4320                 1.8089
 Frc consts  --      1.2036                 1.2033                 1.5918
 IR Inten    --      1.4996                 0.7675                 0.9761

                     40                     41                     42
                      A                      A                      A
 Frequencies --   1245.4207              1271.6312              1286.2722
 Red. masses --      1.5303                 1.4586                 1.7907
 Frc consts  --      1.3985                 1.3897                 1.7455
 IR Inten    --      2.6971                 3.2152                 2.5687

                     43                     44                     45
                      A                      A                      A
 Frequencies --   1326.7145              1359.9001              1392.4863
 Red. masses --      1.2477                 1.1685                 1.3493
 Frc consts  --      1.2940                 1.2732                 1.5414
 IR Inten    --      2.5643                 5.5922                24.8162

                     46                     47                     48
                      A                      A                      A
 Frequencies --   1403.3639              1413.9545              1444.9435
 Red. masses --      1.3731                 1.3747                 2.4325
 Frc consts  --      1.5932                 1.6193                 2.9923
 IR Inten    --      7.7958                10.7617                 9.4510

                     49                     50                     51
                      A                      A                      A
 Frequencies --   1449.3178              1482.8471              1504.6837
 Red. masses --      1.4906                 2.2143                 1.0924
 Frc consts  --      1.8447                 2.8686                 1.4573
 IR Inten    --     10.3795                20.1077                 6.1367

                     52                     53                     54
                      A                      A                      A
 Frequencies --   1511.0945              1523.3014              1534.5248
 Red. masses --      1.1224                 1.1773                 1.0854
 Frc consts  --      1.5100                 1.6096                 1.5058
 IR Inten    --     12.5171                11.9959                 4.7767

                     55                     56                     57
                      A                      A                      A
 Frequencies --   1541.6809              1610.8290              1637.9603
 Red. masses --      1.0848                 5.2978                 5.3881
 Frc consts  --      1.5191                 8.0992                 8.5171
 IR Inten    --      6.3133                 2.2715                10.7760

                     58                     59                     60
                      A                      A                      A
 Frequencies --   1700.3587              2920.6985              2951.1177
 Red. masses --      1.0890                 1.0744                 1.0722
 Frc consts  --      1.8551                 5.3997                 5.5015
 IR Inten    --     28.8309               125.4495                55.9892

                     61                     62                     63
                      A                      A                      A
 Frequencies --   3047.3516              3050.1307              3079.2298
 Red. masses --      1.0605                 1.0638                 1.0880
 Frc consts  --      5.8021                 5.8311                 6.0781
 IR Inten    --     24.9829                24.4708                39.4204

                     64                     65                     66
                      A                      A                      A
 Frequencies --   3085.4819              3096.5078              3106.4930
 Red. masses --      1.0994                 1.1041                 1.0885
 Frc consts  --      6.1669                 6.2376                 6.1891
 IR Inten    --     32.5715                62.3025                10.1864

                     67                     68                     69
                      A                      A                      A
 Frequencies --   3185.2793              3196.4249              3215.3901
 Red. masses --      1.0886                 1.0905                 1.0980
 Frc consts  --      6.5073                 6.5647                 6.6885
 IR Inten    --      5.7657                17.3283                16.6662

                     70                     71                     72
                      A                      A                      A
 Frequencies --   3472.5420              3481.6421              3555.6586
 Red. masses --      1.0498                 1.0734                 1.0923
 Frc consts  --      7.4585                 7.6662                 8.1366
 IR Inten    --      1.6742                 2.5112                 0.7044

 - Thermochemistry -
 -------------------
 Temperature   298.150 Kelvin.  Pressure   1.00000 Atm.
 Atom     1 has atomic number  6 and mass  12.00000

 Molecular mass:   166.12185 amu.
 Principal axes and moments of inertia in atomic units:
                           1         2         3
     Eigenvalues --   794.491034575.320115040.76906
           X            0.99997   0.00710  -0.00176
           Y           -0.00712   0.99991  -0.01156
           Z            0.00168   0.01157   0.99993
 This molecule is an asymmetric top.
 Rotational symmetry number  1.
 Warning -- assumption of classical behavior for rotation
           may cause significant error
 Rotational temperatures (Kelvin)      0.10902     0.01893     0.01718
 Rotational constants (GHZ):           2.27157     0.39445     0.35803
 Zero-point vibrational energy     592508.7 (Joules/Mol)
                                  141.61297 (Kcal/Mol)
 Warning -- explicit consideration of  15 degrees of freedom as
           vibrations may cause significant error
 Vibrational temperatures:     31.69    39.02    76.91   133.82   154.11
          (Kelvin)            264.27   314.75   388.62   419.18   488.73
                              503.55   545.99   632.03   744.39   776.38
                              926.45   946.90  1045.19  1105.11  1123.90
                             1180.87  1210.37  1233.71  1252.78  1373.16
                             1384.11  1405.34  1437.30  1443.15  1502.74
                             1532.44  1553.50  1563.46  1621.68  1630.04
                             1663.33  1684.67  1718.25  1758.35  1791.88
                             1829.59  1850.66  1908.85  1956.59  2003.48
                             2019.13  2034.37  2078.95  2085.25  2133.49
                             2164.90  2174.13  2191.69  2207.84  2218.13
                             2317.62  2356.66  2446.44  4202.23  4246.00
                             4384.46  4388.46  4430.32  4439.32  4455.18
                             4469.55  4582.91  4598.94  4626.23  4996.21
                             5009.31  5115.80

 Zero-point correction=                           0.225675 (Hartree/Particle)
 Thermal correction to Energy=                    0.237698
 Thermal correction to Enthalpy=                  0.238642
 Thermal correction to Gibbs Free Energy=         0.185003
 Sum of electronic and zero-point Energies=           -532.038320
 Sum of electronic and thermal Energies=              -532.026297
 Sum of electronic and thermal Enthalpies=            -532.025353
 Sum of electronic and thermal Free Energies=         -532.078992

                     E (Thermal)             CV                S
                      KCal/Mol        Cal/Mol-Kelvin    Cal/Mol-Kelvin
 Total                  149.158             44.078            112.893
 Electronic               0.000              0.000              0.000
 Translational            0.889              2.981             41.231
 Rotational               0.889              2.981             31.283
 Vibrational            147.380             38.116             40.379
 Vibration     1          0.593              1.985              6.443
 Vibration     2          0.593              1.984              6.029
 Vibration     3          0.596              1.976              4.685
 Vibration     4          0.602              1.954              3.596
 Vibration     5          0.606              1.944              3.321
 Vibration     6          0.631              1.862              2.291
 Vibration     7          0.647              1.812              1.969
 Vibration     8          0.674              1.728              1.596
 Vibration     9          0.687              1.690              1.466
 Vibration    10          0.720              1.596              1.214
 Vibration    11          0.727              1.575              1.166
 Vibration    12          0.749              1.514              1.041
 Vibration    13          0.799              1.385              0.829
 Vibration    14          0.872              1.212              0.616
 Vibration    15          0.895              1.162              0.566

 Optimization completed.
    -- Stationary point found.

 1\1\GINC-NODE300\Freq\RB3LYP\6-31G(d)\C8H14N4\VSC10255\09-Dec-2020\0\\
 #N Geom=AllCheck Guess=TCheck SCRF=Check GenChk RB3LYP/6-31G(d) Freq\\
 CID_106895274_JID_2136_neutraal\\0,1\C,1.1842098268,-0.7769482178,-0.1
 630295944\C,1.2588652046,0.5972871645,-0.2913097779\C,0.2572844767,1.3
 641430846,0.3219806025\N,-0.7371913484,0.8123174048,1.0305613368\N,-0.
 8071130061,-0.5131001916,1.1643152531\C,0.115221378,-1.2829835567,0.58
 21131828\C,0.2378405227,2.8665445061,0.1931021532\N,-0.3058960299,3.25
 13463029,-1.1108696085\C,-0.4080784766,4.6968473924,-1.3195474106\C,0.

 Normal termination of Gaussian 16 at Wed Dec  9 16:55:35 2020.

 ----------------------------------------------------------------------
 # B3LYP/6-311++G(d,p) empiricaldispersion=gd3bj scf=xqc pop=npa geom=c
 heck
 ----------------------------------------------------------------------

 ---------------------------------------
 CID_106895274_JID_2136_Energie_neutraal
 ---------------------------------------
 Structure from the checkpoint file:  "JID_2136.chk"
 Charge =  0 Multiplicity = 1

 SCF Done:  E(RB3LYP) =  -532.420815822     A.U. after   14 cycles
 Normal termination of Gaussian 16 at Wed Dec  9 16:57:33 2020.

 ----------------------------------------------------------------------
 # B3LYP/6-311++G(d,p) empiricaldispersion=gd3bj scf=xqc pop=npa geom=c
 heck
 ----------------------------------------------------------------------

 -------------------------------------
 CID_106895274_JID_2136_Energie_kation
 -------------------------------------
 Structure from the checkpoint file:  "JID_2136.chk"
 Charge =  1 Multiplicity = 2

 SCF Done:  E(UB3LYP) =  -532.115495241     A.U. after   33 cycles
 SCF Done:  E(UB3LYP) =  -532.115495243     a.u. after    2 cycles
 Normal termination of Gaussian 16 at Wed Dec  9 17:08:39 2020.
 Gaussian 16:  ES64L-G16RevA.03 25-Dec-2016

 ------------------------------------
 CID_106895274_JID_2136_Energie_anion
 ------------------------------------
 Structure from the checkpoint file:  "JID_2136.chk"
 Charge = -1 Multiplicity = 2

                         Standard orientation:
 ---------------------------------------------------------------------
 Center     Atomic      Atomic             Coordinates (Angstroms)
 Number     Number       Type             X           Y           Z
 ---------------------------------------------------------------------
      1          6           0        2.918026    1.541140    0.070273
      2          6           0        1.642732    1.093089    0.359110
      3          6           0        1.406446   -0.287814    0.291061
      4          7           0        2.368859   -1.166707   -0.020209
      5          7           0        3.603072   -0.738654   -0.290391
      6          6           0        3.868625    0.569251   -0.255056
      7          6           0        0.033319   -0.856631    0.546342
      8          7           0       -0.809950   -0.682920   -0.638050
      9          6           0       -2.156316   -1.243120   -0.507913
     10          6           0       -3.049527   -0.666985    0.608377
     11          6           0       -3.237702    0.849468    0.529982
     12          7           0       -3.936422    1.232962   -0.701372
     13          1           0        3.181982    2.593945    0.100520
     14          1           0        0.843885    1.775977    0.637356
     15          1           0        4.894940    0.837528   -0.491927
     16          1           0        0.136524   -1.929557    0.734017
     17          1           0       -0.380080   -0.394032    1.461222
     18          1           0       -0.864615    0.307388   -0.871446
     19          1           0       -2.655243   -1.118460   -1.476731
     20          1           0       -2.047458   -2.324547   -0.359084
     21          1           0       -4.034003   -1.145955    0.545936
     22          1           0       -2.630768   -0.919612    1.590812
     23          1           0       -3.855675    1.174526    1.374632
     24          1           0       -2.254942    1.344011    0.660538
     25          1           0       -4.123420    2.233809   -0.697109
     26          1           0       -3.343657    1.061819   -1.511636
 ---------------------------------------------------------------------

 SCF Done:  E(UB3LYP) =  -532.423042147     A.U. after   33 cycles
 SCF Done:  E(UB3LYP) =  -532.423042147     a.u. after    1 cycles

 The electronic state is 2-A.
 Alpha  occ. eigenvalues --  -14.19048 -14.18664 -14.18302 -14.18211 -10.09066
 Alpha  occ. eigenvalues --  -10.08877 -10.07951 -10.07745 -10.07194 -10.06419
 Alpha  occ. eigenvalues --  -10.04729 -10.04571  -0.86520  -0.80002  -0.77805
 Alpha  occ. eigenvalues --   -0.69176  -0.67659  -0.64923  -0.58528  -0.54214
 Alpha  occ. eigenvalues --   -0.51901  -0.48744  -0.46894  -0.40548  -0.38713
 Alpha  occ. eigenvalues --   -0.37843  -0.37596  -0.35854  -0.34041  -0.32877
 Alpha  occ. eigenvalues --   -0.31138  -0.30041  -0.28535  -0.28019  -0.27562
 Alpha  occ. eigenvalues --   -0.26356  -0.24626  -0.24306  -0.23634  -0.16970
 Alpha  occ. eigenvalues --   -0.16754  -0.14970  -0.14322  -0.11653  -0.09017
 Alpha  occ. eigenvalues --    0.04422
 Alpha virt. eigenvalues --    0.06222   0.08163   0.08408   0.08980   0.10054
 Alpha virt. eigenvalues --    0.10506   0.10908   0.11180   0.11614   0.12313
 Alpha virt. eigenvalues --    0.12989   0.13834   0.15306   0.15530   0.15705

  Beta  occ. eigenvalues --  -14.19001 -14.18639 -14.17912 -14.17843 -10.09045
  Beta  occ. eigenvalues --  -10.08872 -10.07949 -10.07826 -10.07277 -10.06419
  Beta  occ. eigenvalues --  -10.04503 -10.04352  -0.85871  -0.79949  -0.77727
  Beta  occ. eigenvalues --   -0.68869  -0.67149  -0.64819  -0.58412  -0.54141
  Beta  occ. eigenvalues --   -0.51271  -0.48613  -0.46841  -0.40478  -0.38621
  Beta  occ. eigenvalues --   -0.37749  -0.37435  -0.35736  -0.33954  -0.32829
  Beta  occ. eigenvalues --   -0.30966  -0.29965  -0.28424  -0.27497  -0.26932
  Beta  occ. eigenvalues --   -0.26130  -0.24581  -0.24221  -0.23601  -0.16406
  Beta  occ. eigenvalues --   -0.14977  -0.14274  -0.14078  -0.11603  -0.08496
  Beta virt. eigenvalues --    0.07065   0.08282   0.08501   0.09041   0.09985
  Beta virt. eigenvalues --    0.10204   0.10710   0.10942   0.11537   0.11693
  Beta virt. eigenvalues --    0.12517   0.13045   0.13797   0.15440   0.15619

 Mulliken charges and spin densities:
               1          2
     1  C    0.030940  -0.232230
     2  C   -0.112197   0.576840
     3  C    0.082954   0.012311
     4  N   -0.011405   0.165574
     5  N   -0.174512   0.177751
     6  C   -0.332619  -0.013276
     7  C   -0.714895  -0.374103
     8  N    0.024120  -0.020453
     9  C   -0.171640  -0.221200
    10  C   -0.115397   0.087579
    11  C    0.359010  -0.873911
    12  N   -0.295841  -0.065923
    13  H    0.066664   0.054357
    14  H   -0.164113   0.277422
    15  H    0.134756   0.009700
    16  H    0.127341   0.032716
    17  H    0.131499  -0.043204
    18  H    0.097053   0.127897
    19  H    0.078741   0.095355
    20  H    0.152808  -0.023386
    21  H    0.141537   0.006321
    22  H    0.137623  -0.005914
    23  H   -0.216385   0.357864
    24  H    0.010491   0.164427
    25  H   -0.310919   0.558373
    26  H    0.044389   0.169113
 Sum of Mulliken charges =  -1.00000   1.00000

 Dipole moment (field-independent basis, Debye):
    X=             -0.9424    Y=             -0.9702    Z=              2.3744  Tot=              2.7326
 Quadrupole moment (field-independent basis, Debye-Ang):
   XX=           -146.0883   YY=           -102.0064   ZZ=            -88.9175
   XY=             24.6714   XZ=             -4.0055   YZ=             -0.5158

 Summary of Natural Population Analysis:

                                       Natural Population
                Natural  -----------------------------------------------
    Atom  No    Charge         Core      Valence    Rydberg      Total
 -----------------------------------------------------------------------
      C    1   -0.07317      0.99956     2.06460    0.00901     3.07317
      C    2   -0.07713      0.99950     2.06707    0.01056     3.07713
      C    3    0.06766      0.99954     1.91361    0.01919     2.93234
      N    4   -0.08681      0.99968     2.57271    0.01441     3.58681
      N    5   -0.08203      0.99973     2.56638    0.01592     3.58203
      C    6   -0.01865      0.99961     2.00306    0.01598     3.01865
      C    7   -0.10213      0.99958     2.08930    0.01325     3.10213
      N    8   -0.33314      0.99975     2.82255    0.01084     3.83314
      C    9   -0.08974      0.99963     2.07804    0.01206     3.08974
      C   10   -0.20433      0.99962     2.19647    0.00824     3.20433
      C   11   -0.09426      0.99964     2.08160    0.01303     3.09426
      N   12   -0.42651      0.99977     2.91504    0.01170     3.92651
      H   13    0.09378      0.00000     0.40522    0.00101     0.40622
      H   14    0.09605      0.00000     0.40245    0.00149     0.40395
      H   15    0.08464      0.00000     0.41385    0.00151     0.41536
      H   16    0.10006      0.00000     0.39840    0.00154     0.39994
      H   17    0.07748      0.00000     0.42093    0.00159     0.42252
      H   18    0.17248      0.00000     0.32405    0.00347     0.32752
      H   19    0.09194      0.00000     0.40709    0.00097     0.40806
      H   20    0.08995      0.00000     0.40894    0.00112     0.41005
      H   21    0.09821      0.00000     0.40064    0.00116     0.40179
      H   22    0.09487      0.00000     0.40422    0.00091     0.40513
      H   23    0.08996      0.00000     0.40891    0.00113     0.41004
      H   24    0.07938      0.00000     0.41843    0.00219     0.42062
      H   25    0.17917      0.00000     0.31650    0.00433     0.32083
      H   26    0.17228      0.00000     0.32566    0.00206     0.32772
 =======================================================================
   * Total *    0.00000     11.99563    32.82571    0.17866    45.00000

 Normal termination of Gaussian 16 at Wed Dec  9 17:16:12 2020.
