 Gaussian 16, Revision A.03,

 -----------------------------------------------------------
 # opt freq B3LYP/6-31G(d) empiricaldispersion=gd3bj scf=xqc
 -----------------------------------------------------------

 -------------------------------
 CID_128995193_JID_9037_neutraal
 -------------------------------
 Symbolic Z-matrix:
 Charge =  0 Multiplicity = 1

 SCF Done:  E(RB3LYP) =  -842.417138848     A.U. after   14 cycles
 SCF Done:  E(RB3LYP) =  -842.422272039     A.U. after   13 cycles
 SCF Done:  E(RB3LYP) =  -842.423323618     A.U. after   12 cycles
 SCF Done:  E(RB3LYP) =  -842.424056210     A.U. after   13 cycles
 SCF Done:  E(RB3LYP) =  -842.424638457     A.U. after   13 cycles
 SCF Done:  E(RB3LYP) =  -842.424934618     A.U. after   12 cycles
 SCF Done:  E(RB3LYP) =  -842.425149902     A.U. after   12 cycles
 SCF Done:  E(RB3LYP) =  -842.425288738     A.U. after   12 cycles
 SCF Done:  E(RB3LYP) =  -842.425814660     A.U. after   14 cycles
 SCF Done:  E(RB3LYP) =  -842.425919040     A.U. after   14 cycles
 SCF Done:  E(RB3LYP) =  -842.428449756     A.U. after    8 cycles
 SCF Done:  E(RB3LYP) =  -842.428452685     A.U. after   10 cycles
 SCF Done:  E(RB3LYP) =  -842.428452924     A.U. after    8 cycles
 SCF Done:  E(RB3LYP) =  -842.428453378     A.U. after    8 cycles
 SCF Done:  E(RB3LYP) =  -842.428453450     A.U. after    8 cycles
 Optimization completed.
    -- Stationary point found.
 Normal termination of Gaussian 16 at Sat Dec 12 09:52:53 2020.

 --------------------------------------------------------------------
 #N Geom=AllCheck Guess=TCheck SCRF=Check GenChk RB3LYP/6-31G(d) Freq
 --------------------------------------------------------------------

 Structure from the checkpoint file:  "JID_9037.chk"
 -------------------------------
 CID_128995193_JID_9037_neutraal
 -------------------------------
 Charge =  0 Multiplicity = 1

 SCF Done:  E(RB3LYP) =  -842.428453450     A.U. after    1 cycles

  Exact polarizability: 170.017  16.107 167.874 -20.803  11.470 135.818
 Approx polarizability: 244.529  31.669 252.623 -35.580  21.152 240.882

                      1                      2                      3
                      A                      A                      A
 Frequencies --     16.5668                25.6115                33.8331
 Red. masses --      4.3616                 3.7214                 5.4717
 Frc consts  --      0.0007                 0.0014                 0.0037
 IR Inten    --      0.2244                 0.3550                 0.1956

                      4                      5                      6
                      A                      A                      A
 Frequencies --     53.9729                64.3658                89.1848
 Red. masses --      5.0805                 4.0877                 3.5799
 Frc consts  --      0.0087                 0.0100                 0.0168
 IR Inten    --      0.6889                 0.0114                 0.5371

                      7                      8                      9
                      A                      A                      A
 Frequencies --    115.0298               131.9099               174.0651
 Red. masses --      4.7726                 3.4732                 3.9581
 Frc consts  --      0.0372                 0.0356                 0.0707
 IR Inten    --      0.1822                 0.6793                 1.9453

                     10                     11                     12
                      A                      A                      A
 Frequencies --    219.5359               249.6394               279.2725
 Red. masses --      3.9676                 1.0951                 3.6240
 Frc consts  --      0.1127                 0.0402                 0.1665
 IR Inten    --      0.5014                 0.1202                 0.5040

                     13                     14                     15
                      A                      A                      A
 Frequencies --    312.1503               344.2259               357.2441
 Red. masses --      3.1274                 2.7663                 2.2420
 Frc consts  --      0.1795                 0.1931                 0.1686
 IR Inten    --      1.4695                 3.6498                 0.6340

                     16                     17                     18
                      A                      A                      A
 Frequencies --    365.7992               418.4178               442.3997
 Red. masses --      2.5982                 2.9839                 5.4109
 Frc consts  --      0.2048                 0.3078                 0.6240
 IR Inten    --      2.4788                 0.0078                 1.3029

                     19                     20                     21
                      A                      A                      A
 Frequencies --    455.9356               474.4257               505.6767
 Red. masses --      2.8807                 4.1364                 4.0101
 Frc consts  --      0.3528                 0.5485                 0.6042
 IR Inten    --      3.2704                 0.7504                 5.8939

                     22                     23                     24
                      A                      A                      A
 Frequencies --    574.5956               601.9389               631.6464
 Red. masses --      3.4218                 2.7448                 3.1163
 Frc consts  --      0.6656                 0.5860                 0.7326
 IR Inten    --     10.7506                 4.3480                 1.1088

                     25                     26                     27
                      A                      A                      A
 Frequencies --    638.3183               671.8866               706.5868
 Red. masses --      6.3271                 6.9235                 4.6200
 Frc consts  --      1.5189                 1.8415                 1.3590
 IR Inten    --      0.0490                 2.5799                 6.6176

                     28                     29                     30
                      A                      A                      A
 Frequencies --    713.9369               740.5296               766.4396
 Red. masses --      1.9222                 2.8443                 1.9343
 Frc consts  --      0.5773                 0.9190                 0.6695
 IR Inten    --     26.0528                18.5834                20.7538

                     31                     32                     33
                      A                      A                      A
 Frequencies --    786.3052               812.0117               849.2202
 Red. masses --      3.6105                 3.1538                 4.2108
 Frc consts  --      1.3152                 1.2252                 1.7892
 IR Inten    --      1.1049                 8.5866                 9.3164

                     34                     35                     36
                      A                      A                      A
 Frequencies --    859.4911               875.7729               904.2595
 Red. masses --      1.2515                 1.9804                 2.4317
 Frc consts  --      0.5447                 0.8949                 1.1715
 IR Inten    --      1.0660                 9.1187                 7.0755

                     37                     38                     39
                      A                      A                      A
 Frequencies --    915.2648               916.6431               950.0530
 Red. masses --      2.3720                 2.2679                 2.5946
 Frc consts  --      1.1707                 1.1227                 1.3798
 IR Inten    --     14.9837                 2.2703                 7.5778

                     40                     41                     42
                      A                      A                      A
 Frequencies --    956.7214               969.3623               974.4851
 Red. masses --      2.3117                 1.3779                 2.3517
 Frc consts  --      1.2467                 0.7629                 1.3158
 IR Inten    --      6.4940                 0.3999                 3.6448

                     43                     44                     45
                      A                      A                      A
 Frequencies --    990.9117               993.8429              1009.1653
 Red. masses --      1.3651                 1.2650                 3.1047
 Frc consts  --      0.7898                 0.7362                 1.8629
 IR Inten    --      1.9192                 0.4064                 4.6450

                     46                     47                     48
                      A                      A                      A
 Frequencies --   1020.7207              1023.5915              1040.9708
 Red. masses --      2.2512                 4.8326                 3.9282
 Frc consts  --      1.3819                 2.9832                 2.5080
 IR Inten    --      5.5917                 0.5215                 8.4337

                     49                     50                     51
                      A                      A                      A
 Frequencies --   1045.8641              1059.2738              1062.6966
 Red. masses --      3.1363                 2.8054                 2.1920
 Frc consts  --      2.0212                 1.8547                 1.4585
 IR Inten    --      6.5215                 4.0631                 1.3361

                     52                     53                     54
                      A                      A                      A
 Frequencies --   1104.3270              1115.4443              1146.8187
 Red. masses --      2.5143                 1.6011                 2.5421
 Frc consts  --      1.8066                 1.1737                 1.9698
 IR Inten    --     66.1000                 9.1710                58.2308

                     55                     56                     57
                      A                      A                      A
 Frequencies --   1152.3224              1186.8594              1193.8245
 Red. masses --      2.0248                 1.2533                 1.0949
 Frc consts  --      1.5841                 1.0401                 0.9194
 IR Inten    --     11.0855                 4.4314                 0.1849

                     58                     59                     60
                      A                      A                      A
 Frequencies --   1216.5139              1219.8731              1234.6116
 Red. masses --      1.1476                 1.6190                 1.6546
 Frc consts  --      1.0006                 1.4195                 1.4859
 IR Inten    --      0.4407                13.6628                 7.7672

                     61                     62                     63
                      A                      A                      A
 Frequencies --   1235.9216              1248.8250              1277.5734
 Red. masses --      1.9325                 1.3092                 2.2398
 Frc consts  --      1.7392                 1.2030                 2.1539
 IR Inten    --      2.7794                 0.4780                 7.5004

                     64                     65                     66
                      A                      A                      A
 Frequencies --   1315.9385              1337.8510              1348.3330
 Red. masses --      1.6963                 1.6069                 2.0033
 Frc consts  --      1.7307                 1.6946                 2.1458
 IR Inten    --      7.3054                 0.8047                 2.5321

                     67                     68                     69
                      A                      A                      A
 Frequencies --   1355.8731              1362.8221              1368.2752
 Red. masses --      1.2531                 1.6702                 2.3790
 Frc consts  --      1.3573                 1.8277                 2.6241
 IR Inten    --      0.5858                55.9695                 2.7086

                     70                     71                     72
                      A                      A                      A
 Frequencies --   1380.0934              1385.1702              1387.4060
 Red. masses --      1.4345                 1.3585                 1.4307
 Frc consts  --      1.6098                 1.5357                 1.6226
 IR Inten    --      1.8181                11.8173                 9.1316

                     73                     74                     75
                      A                      A                      A
 Frequencies --   1404.8992              1420.2071              1442.5692
 Red. masses --      1.3702                 3.0766                 1.2911
 Frc consts  --      1.5934                 3.6562                 1.5830
 IR Inten    --      8.5768                29.0144                 5.7084

                     76                     77                     78
                      A                      A                      A
 Frequencies --   1501.5635              1503.1640              1510.5010
 Red. masses --      1.2216                 1.7017                 1.0957
 Frc consts  --      1.6228                 2.2654                 1.4729
 IR Inten    --      3.3565                 8.4037                 4.9238

                     79                     80                     81
                      A                      A                      A
 Frequencies --   1514.3153              1519.4015              1525.9797
 Red. masses --      1.0546                 1.1911                 1.0530
 Frc consts  --      1.4249                 1.6201                 1.4447
 IR Inten    --      5.8455                 3.4067                 4.0097

                     82                     83                     84
                      A                      A                      A
 Frequencies --   1534.2045              1550.0323              1568.6380
 Red. masses --      1.1049                 2.2333                 7.2674
 Frc consts  --      1.5322                 3.1614                10.5360
 IR Inten    --      3.2237                 8.2038                 2.9653

                     85                     86                     87
                      A                      A                      A
 Frequencies --   1620.6957              1647.8340              1669.1762
 Red. masses --      9.5075                 5.5097                 5.6021
 Frc consts  --     14.7137                 8.8146                 9.1962
 IR Inten    --     57.1963                 0.7919                 2.7241

                     88                     89                     90
                      A                      A                      A
 Frequencies --   3042.7049              3053.6847              3055.6594
 Red. masses --      1.0856                 1.0382                 1.0637
 Frc consts  --      5.9215                 5.7040                 5.8519
 IR Inten    --     50.9422                16.0349                13.5117

                     91                     92                     93
                      A                      A                      A
 Frequencies --   3064.7147              3068.9587              3084.4776
 Red. masses --      1.0640                 1.0826                 1.0604
 Frc consts  --      5.8883                 6.0077                 5.9442
 IR Inten    --     43.2382                15.9876                 8.8891

                     94                     95                     96
                      A                      A                      A
 Frequencies --   3087.4993              3105.4236              3122.2885
 Red. masses --      1.0685                 1.1010                 1.0996
 Frc consts  --      6.0010                 6.2559                 6.3160
 IR Inten    --     34.6224                 4.6628                17.0623

                     97                     98                     99
                      A                      A                      A
 Frequencies --   3124.9555              3130.0217              3142.1354
 Red. masses --      1.0993                 1.1041                 1.1036
 Frc consts  --      6.3247                 6.3730                 6.4195
 IR Inten    --     17.0700                28.3218                33.7466

                    100                    101                    102
                      A                      A                      A
 Frequencies --   3155.7410              3175.1299              3182.1947
 Red. masses --      1.1021                 1.0867                 1.0860
 Frc consts  --      6.4666                 6.4549                 6.4795
 IR Inten    --     13.8801                 9.1023                 0.1325

                    103                    104                    105
                      A                      A                      A
 Frequencies --   3193.3046              3200.3905              3211.0936
 Red. masses --      1.0901                 1.0939                 1.0979
 Frc consts  --      6.5496                 6.6011                 6.6699
 IR Inten    --     11.4719                41.4474                15.3429

 - Thermochemistry -
 -------------------
 Temperature   298.150 Kelvin.  Pressure   1.00000 Atm.
 Atom     1 has atomic number  6 and mass  12.00000

 Molecular mass:   258.13683 amu.
 Principal axes and moments of inertia in atomic units:
                           1         2         3
     Eigenvalues --  3213.802665627.588757113.97766
           X            0.99940   0.03274  -0.01095
           Y           -0.03241   0.99903   0.02982
           Z            0.01191  -0.02945   0.99950
 This molecule is an asymmetric top.
 Rotational symmetry number  1.
 Warning -- assumption of classical behavior for rotation
           may cause significant error
 Rotational temperatures (Kelvin)      0.02695     0.01539     0.01218
 Rotational constants (GHZ):           0.56156     0.32070     0.25369
 Zero-point vibrational energy     818843.9 (Joules/Mol)
                                  195.70838 (Kcal/Mol)
 Warning -- explicit consideration of  23 degrees of freedom as
           vibrations may cause significant error
 Vibrational temperatures:     23.84    36.85    48.68    77.65    92.61
          (Kelvin)            128.32   165.50   189.79   250.44   315.86
                              359.18   401.81   449.11   495.26   513.99
                              526.30   602.01   636.51   655.99   682.59
                              727.56   826.71   866.06   908.80   918.40
                              966.69  1016.62  1027.20  1065.46  1102.74
                             1131.32  1168.30  1221.84  1236.62  1260.04
                             1301.03  1316.86  1318.84  1366.91  1376.51
                             1394.70  1402.07  1425.70  1429.92  1451.96
                             1468.59  1472.72  1497.72  1504.77  1524.06
                             1528.98  1588.88  1604.88  1650.02  1657.93
                             1707.63  1717.65  1750.29  1755.13  1776.33
                             1778.22  1796.78  1838.14  1893.34  1924.87
                             1939.95  1950.80  1960.80  1968.64  1985.65
                             1992.95  1996.17  2021.34  2043.36  2075.54
                             2160.41  2162.72  2173.27  2178.76  2186.08
                             2195.54  2207.38  2230.15  2256.92  2331.82
                             2370.87  2401.57  4377.77  4393.57  4396.41
                             4409.44  4415.55  4437.88  4442.22  4468.01
                             4492.28  4496.11  4503.40  4520.83  4540.41
                             4568.30  4578.47  4594.45  4604.65  4620.05

 Zero-point correction=                           0.311881 (Hartree/Particle)
 Thermal correction to Energy=                    0.328439
 Thermal correction to Enthalpy=                  0.329383
 Thermal correction to Gibbs Free Energy=         0.264736
 Sum of electronic and zero-point Energies=           -842.116572
 Sum of electronic and thermal Energies=              -842.100014
 Sum of electronic and thermal Enthalpies=            -842.099070
 Sum of electronic and thermal Free Energies=         -842.163717

                     E (Thermal)             CV                S
                      KCal/Mol        Cal/Mol-Kelvin    Cal/Mol-Kelvin
 Total                  206.099             63.791            136.062
 Electronic               0.000              0.000              0.000
 Translational            0.889              2.981             42.545
 Rotational               0.889              2.981             33.220
 Vibrational            204.321             57.829             60.297
 Vibration     1          0.593              1.986              7.008
 Vibration     2          0.593              1.985              6.143
 Vibration     3          0.594              1.983              5.591
 Vibration     4          0.596              1.976              4.666
 Vibration     5          0.597              1.971              4.319
 Vibration     6          0.602              1.957              3.678
 Vibration     7          0.608              1.937              3.182
 Vibration     8          0.612              1.921              2.918
 Vibration     9          0.627              1.874              2.391
 Vibration    10          0.647              1.811              1.963
 Vibration    11          0.662              1.763              1.733
 Vibration    12          0.680              1.712              1.538
 Vibration    13          0.700              1.651              1.351
 Vibration    14          0.723              1.587              1.192
 Vibration    15          0.732              1.560              1.134
 Vibration    16          0.739              1.543              1.097
 Vibration    17          0.781              1.430              0.897
 Vibration    18          0.802              1.378              0.819
 Vibration    19          0.814              1.348              0.778
 Vibration    20          0.831              1.307              0.725
 Vibration    21          0.861              1.237              0.644
 Vibration    22          0.931              1.086              0.495
 Vibration    23          0.960              1.028              0.446

 Optimization completed.
    -- Stationary point found.
 Normal termination of Gaussian 16 at Sat Dec 12 10:11:39 2020.

 ----------------------------------------------------------------------
 # B3LYP/6-311++G(d,p) empiricaldispersion=gd3bj scf=xqc pop=npa geom=c
 heck
 ----------------------------------------------------------------------

 ---------------------------------------
 CID_128995193_JID_9037_Energie_neutraal
 ---------------------------------------
 Structure from the checkpoint file:  "JID_9037.chk"
 Charge =  0 Multiplicity = 1

 SCF Done:  E(RB3LYP) =  -842.649608363     A.U. after   16 cycles
 Normal termination of Gaussian 16 at Sat Dec 12 10:18:48 2020.

 ----------------------------------------------------------------------
 # B3LYP/6-311++G(d,p) empiricaldispersion=gd3bj scf=xqc pop=npa geom=c
 heck
 ----------------------------------------------------------------------

 -------------------------------------
 CID_128995193_JID_9037_Energie_kation
 -------------------------------------
 Structure from the checkpoint file:  "JID_9037.chk"
 Charge =  1 Multiplicity = 2

 SCF Done:  E(UB3LYP) =  -842.333848381     A.U. after   29 cycles
 Normal termination of Gaussian 16 at Sat Dec 12 10:36:27 2020.
 Gaussian 16:  ES64L-G16RevA.03 25-Dec-2016

 ----------------------------------------------------------------------
 # B3LYP/6-311++G(d,p) empiricaldispersion=gd3bj scf=xqc pop=npa geom=c
 heck
 ----------------------------------------------------------------------

 ------------------------------------
 CID_128995193_JID_9037_Energie_anion
 ------------------------------------
 Structure from the checkpoint file:  "JID_9037.chk"
 Charge = -1 Multiplicity = 2

                         Standard orientation:
 ---------------------------------------------------------------------
 Center     Atomic      Atomic             Coordinates (Angstroms)
 Number     Number       Type             X           Y           Z
 ---------------------------------------------------------------------
      1          6           0       -1.846573   -2.170726   -1.090196
      2          6           0       -2.846819   -1.472440   -0.179530
      3          6           0       -2.314632   -1.188056    1.241513
      4          6           0       -2.809914    0.234150    1.539284
      5          6           0       -2.788452    0.849384    0.135419
      6          8           0       -3.211286   -0.183865   -0.738729
      7          6           0       -1.403681    1.329822   -0.232084
      8          7           0       -0.447562    1.725401    0.560125
      9          6           0        0.574910    2.015286   -0.325577
     10          7           0        0.272369    1.814948   -1.583447
     11          8           0       -1.062639    1.359650   -1.528725
     12          6           0        1.936634    2.447241    0.109113
     13          6           0        2.544073    1.461578    1.135230
     14          6           0        2.529390    0.033312    0.640360
     15          6           0        1.632696   -0.896181    1.178556
     16          6           0        1.570051   -2.200046    0.684956
     17          6           0        2.405244   -2.592185   -0.361179
     18          6           0        3.307303   -1.674546   -0.903053
     19          6           0        3.367731   -0.374218   -0.404317
     20          1           0       -1.612199   -3.169648   -0.702787
     21          1           0       -0.914177   -1.600818   -1.153217
     22          1           0       -2.255209   -2.278155   -2.099457
     23          1           0       -3.777506   -2.052265   -0.135183
     24          1           0       -2.666215   -1.924987    1.968831
     25          1           0       -1.220183   -1.208984    1.240800
     26          1           0       -2.180382    0.776115    2.247270
     27          1           0       -3.841105    0.226470    1.906073
     28          1           0       -3.489415    1.684386    0.020154
     29          1           0        2.569212    2.517617   -0.780566
     30          1           0        1.880170    3.446831    0.557278
     31          1           0        3.568904    1.785334    1.353777
     32          1           0        1.975415    1.532148    2.067471
     33          1           0        0.974687   -0.587692    1.986090
     34          1           0        0.867432   -2.907602    1.116732
     35          1           0        2.356180   -3.605111   -0.750409
     36          1           0        3.963729   -1.972004   -1.716056
     37          1           0        4.070652    0.335397   -0.834890
 ---------------------------------------------------------------------

 SCF Done:  E(UB3LYP) =  -842.640466413     A.U. after   33 cycles
 SCF Done:  E(UB3LYP) =  -842.640466413     a.u. after    1 cycles

 The electronic state is 2-A.
 Alpha  occ. eigenvalues --  -19.09115 -19.01806 -14.24105 -14.20229 -10.14813
 Alpha  occ. eigenvalues --  -10.13373 -10.12212 -10.11832 -10.08497 -10.08282
 Alpha  occ. eigenvalues --  -10.08153 -10.07938 -10.07848 -10.07725 -10.07556
 Alpha  occ. eigenvalues --  -10.07484 -10.07012 -10.06773 -10.05769  -1.04237
 Alpha  occ. eigenvalues --   -0.93835  -0.82244  -0.76562  -0.75808  -0.69679
 Alpha  occ. eigenvalues --   -0.68762  -0.67101  -0.65121  -0.63876  -0.59014
 Alpha  occ. eigenvalues --   -0.56111  -0.52546  -0.51288  -0.49794  -0.48972
 Alpha  occ. eigenvalues --   -0.47650  -0.46059  -0.42365  -0.41622  -0.40019
 Alpha  occ. eigenvalues --   -0.37830  -0.37069  -0.36550  -0.35316  -0.34398
 Alpha  occ. eigenvalues --   -0.33550  -0.33052  -0.32771  -0.32325  -0.31555
 Alpha  occ. eigenvalues --   -0.30582  -0.29479  -0.28151  -0.27210  -0.26518
 Alpha  occ. eigenvalues --   -0.26245  -0.25795  -0.24511  -0.24281  -0.24176
 Alpha  occ. eigenvalues --   -0.23894  -0.22438  -0.21709  -0.20991  -0.18504
 Alpha  occ. eigenvalues --   -0.17393  -0.16065  -0.15714  -0.15271   0.04393
 Alpha virt. eigenvalues --    0.05775   0.07169   0.07309   0.07879   0.08164
 Alpha virt. eigenvalues --    0.08627   0.08790   0.08847   0.09621   0.10153
 Alpha virt. eigenvalues --    0.10412   0.10880   0.11658   0.12033   0.12628

  Beta  occ. eigenvalues --  -19.08957 -19.01787 -14.23931 -14.20247 -10.14626
  Beta  occ. eigenvalues --  -10.13387 -10.12188 -10.11817 -10.08492 -10.08248
  Beta  occ. eigenvalues --  -10.08160 -10.07926 -10.07818 -10.07678 -10.07566
  Beta  occ. eigenvalues --  -10.07434 -10.06987 -10.06755 -10.05763  -1.03976
  Beta  occ. eigenvalues --   -0.93787  -0.82123  -0.76457  -0.75584  -0.69598
  Beta  occ. eigenvalues --   -0.68714  -0.67042  -0.65054  -0.63793  -0.58926
  Beta  occ. eigenvalues --   -0.56041  -0.52389  -0.51223  -0.49686  -0.48898
  Beta  occ. eigenvalues --   -0.47570  -0.45964  -0.42268  -0.41517  -0.39905
  Beta  occ. eigenvalues --   -0.37568  -0.36974  -0.36353  -0.35226  -0.34288
  Beta  occ. eigenvalues --   -0.33495  -0.33011  -0.32652  -0.32262  -0.31480
  Beta  occ. eigenvalues --   -0.30493  -0.29442  -0.28046  -0.27177  -0.26490
  Beta  occ. eigenvalues --   -0.26107  -0.25693  -0.24471  -0.24206  -0.24115
  Beta  occ. eigenvalues --   -0.23801  -0.22306  -0.21654  -0.20582  -0.18409
  Beta  occ. eigenvalues --   -0.16638  -0.15822  -0.15587  -0.15012
  Beta virt. eigenvalues --    0.06499   0.06980   0.07395   0.07968   0.08147
  Beta virt. eigenvalues --    0.08699   0.08882   0.09087   0.09780   0.09893
  Beta virt. eigenvalues --    0.10459   0.10538   0.11067   0.11936   0.12090

 Mulliken charges and spin densities:
               1          2
     1  C   -0.488944  -0.047075
     2  C    0.351707  -0.482385
     3  C    0.075607  -0.180843
     4  C    0.204884  -1.049801
     5  C   -1.302858   1.214805
     6  O   -0.015558  -0.050998
     7  C    0.558963  -1.027552
     8  N    0.011828   0.029184
     9  C    0.916726  -0.201798
    10  N   -0.308733   0.095206
    11  O    0.192389   0.056269
    12  C   -0.543453   0.182904
    13  C    0.337379  -0.974396
    14  C    0.614432   0.463942
    15  C   -0.170437   0.005961
    16  C   -0.298132  -0.005410
    17  C   -0.447417   0.063263
    18  C   -0.283541  -0.023521
    19  C   -0.141633  -0.204839
    20  H    0.049777   0.060893
    21  H    0.150773   0.043751
    22  H    0.146143   0.014722
    23  H   -0.357050   0.551289
    24  H   -0.437782   0.628270
    25  H    0.267205  -0.316378
    26  H    0.154995   0.000874
    27  H   -0.549216   0.741244
    28  H   -0.091112   0.345907
    29  H    0.158042   0.008308
    30  H    0.034544   0.134518
    31  H   -0.516375   0.716950
    32  H    0.232134  -0.069837
    33  H    0.175750   0.001847
    34  H    0.117215   0.054123
    35  H    0.121983   0.006417
    36  H    0.132955   0.020282
    37  H   -0.053192   0.193904
 Sum of Mulliken charges =  -1.00000   1.00000

 Dipole moment (field-independent basis, Debye):
    X=              3.7373    Y=             -1.4106    Z=             -0.8205  Tot=              4.0780
 Quadrupole moment (field-independent basis, Debye-Ang):
   XX=           -193.7187   YY=           -145.5378   ZZ=           -144.6773
   XY=            -13.6585   XZ=              2.2956   YZ=              6.1104

 Summary of Natural Population Analysis:

                                       Natural Population
                Natural  -----------------------------------------------
    Atom  No    Charge         Core      Valence    Rydberg      Total
 -----------------------------------------------------------------------
      C    1   -0.29298      0.99964     2.28735    0.00600     3.29298
      C    2    0.06352      0.99957     1.92178    0.01513     2.93648
      C    3   -0.20743      0.99962     2.19893    0.00887     3.20743
      C    4   -0.19701      0.99963     2.18854    0.00884     3.19701
      C    5    0.03945      0.99952     1.94478    0.01625     2.96055
      O    6   -0.29911      0.99989     3.29087    0.00835     4.29911
      C    7    0.30308      0.99960     1.67681    0.02051     2.69692
      N    8   -0.28660      0.99967     2.77954    0.00740     3.78660
      C    9    0.17267      0.99964     1.80834    0.01935     2.82733
      N   10   -0.07373      0.99966     2.56248    0.01159     3.57373
      O   11   -0.15310      0.99985     3.14566    0.00759     4.15310
      C   12   -0.20346      0.99957     2.19445    0.00943     3.20346
      C   13   -0.19346      0.99960     2.18428    0.00958     3.19346
      C   14   -0.00992      0.99950     2.00011    0.01032     3.00992
      C   15   -0.10239      0.99951     2.09410    0.00878     3.10239
      C   16   -0.09459      0.99957     2.08561    0.00941     3.09459
      C   17   -0.10440      0.99957     2.09585    0.00898     3.10440
      C   18   -0.10178      0.99957     2.09331    0.00891     3.10178
      C   19   -0.09237      0.99951     2.08336    0.00950     3.09237
      H   20    0.09619      0.00000     0.40302    0.00079     0.40381
      H   21    0.10668      0.00000     0.39228    0.00103     0.39332
      H   22    0.10057      0.00000     0.39866    0.00077     0.39943
      H   23    0.08526      0.00000     0.41294    0.00180     0.41474
      H   24    0.10621      0.00000     0.39186    0.00193     0.39379
      H   25    0.10109      0.00000     0.39690    0.00201     0.39891
      H   26    0.11124      0.00000     0.38769    0.00107     0.38876
      H   27    0.10285      0.00000     0.39494    0.00221     0.39715
      H   28    0.10547      0.00000     0.39305    0.00148     0.39453
      H   29    0.10787      0.00000     0.39097    0.00116     0.39213
      H   30    0.10741      0.00000     0.39159    0.00100     0.39259
      H   31    0.10572      0.00000     0.39179    0.00248     0.39428
      H   32    0.10344      0.00000     0.39539    0.00117     0.39656
      H   33    0.10325      0.00000     0.39573    0.00102     0.39675
      H   34    0.09927      0.00000     0.39992    0.00081     0.40073
      H   35    0.09650      0.00000     0.40272    0.00078     0.40350
      H   36    0.09580      0.00000     0.40312    0.00107     0.40420
      H   37    0.09878      0.00000     0.40025    0.00097     0.40122
 =======================================================================
   * Total *   -0.00000     18.99266    49.77897    0.22837    69.00000

 Normal termination of Gaussian 16 at Sat Dec 12 10:56:42 2020.
