 Gaussian 16, Revision A.03,

 -----------------------------------------------------------
 # opt freq B3LYP/6-31G(d) empiricaldispersion=gd3bj scf=xqc
 -----------------------------------------------------------

 -------------------------------
 CID_112299113_JID_9459_neutraal
 -------------------------------
 Symbolic Z-matrix:
 Charge =  0 Multiplicity = 1

 SCF Done:  E(RB3LYP) =  -1219.77596294     A.U. after   15 cycles
 SCF Done:  E(RB3LYP) =  -1219.77383062     A.U. after   13 cycles
 SCF Done:  E(RB3LYP) =  -1219.78131833     A.U. after   12 cycles
 SCF Done:  E(RB3LYP) =  -1219.78215638     A.U. after   12 cycles
 SCF Done:  E(RB3LYP) =  -1219.78261659     A.U. after   12 cycles
 SCF Done:  E(RB3LYP) =  -1219.78275616     A.U. after   11 cycles
 SCF Done:  E(RB3LYP) =  -1219.78287369     A.U. after   11 cycles
 SCF Done:  E(RB3LYP) =  -1219.78291468     A.U. after   12 cycles
 SCF Done:  E(RB3LYP) =  -1219.78297981     A.U. after   11 cycles
 SCF Done:  E(RB3LYP) =  -1219.78301209     A.U. after   11 cycles
 SCF Done:  E(RB3LYP) =  -1219.78303460     A.U. after    8 cycles
 SCF Done:  E(RB3LYP) =  -1219.78303639     A.U. after    8 cycles
 SCF Done:  E(RB3LYP) =  -1219.78303755     A.U. after    8 cycles
 SCF Done:  E(RB3LYP) =  -1219.78303804     A.U. after    8 cycles
 SCF Done:  E(RB3LYP) =  -1219.78303816     A.U. after    7 cycles
 Optimization completed.
    -- Stationary point found.
 Normal termination of Gaussian 16 at Sat Dec 12 09:43:14 2020.

 --------------------------------------------------------------------
 #N Geom=AllCheck Guess=TCheck SCRF=Check GenChk RB3LYP/6-31G(d) Freq
 --------------------------------------------------------------------

 Structure from the checkpoint file:  "JID_9459.chk"
 -------------------------------
 CID_112299113_JID_9459_neutraal
 -------------------------------
 Charge =  0 Multiplicity = 1

 SCF Done:  E(RB3LYP) =  -1219.78303816     A.U. after    1 cycles

  Exact polarizability: 165.742 -22.796 192.678   9.587   9.336 147.342
 Approx polarizability: 221.566 -45.664 300.525  19.081  27.951 263.066

                      1                      2                      3
                      A                      A                      A
 Frequencies --     26.4367                37.5367                46.8147
 Red. masses --      4.6476                 3.8113                 5.4789
 Frc consts  --      0.0019                 0.0032                 0.0071
 IR Inten    --      0.0688                 0.6626                 2.1664

                      4                      5                      6
                      A                      A                      A
 Frequencies --     63.5699                79.6776                83.9876
 Red. masses --      6.2903                 5.1039                 5.4981
 Frc consts  --      0.0150                 0.0191                 0.0229
 IR Inten    --      3.5722                 2.0823                 0.2782

                      7                      8                      9
                      A                      A                      A
 Frequencies --    104.3325               155.3405               191.9869
 Red. masses --      4.5625                 5.3678                 6.4882
 Frc consts  --      0.0293                 0.0763                 0.1409
 IR Inten    --      1.1467                 1.6811                 3.5114

                     10                     11                     12
                      A                      A                      A
 Frequencies --    224.9196               239.3472               250.4824
 Red. masses --      1.1473                 2.1347                 2.9190
 Frc consts  --      0.0342                 0.0721                 0.1079
 IR Inten    --      0.7337                 4.1060                 1.9922

                     13                     14                     15
                      A                      A                      A
 Frequencies --    259.0739               268.9053               280.2635
 Red. masses --      4.5338                 2.0046                 2.0273
 Frc consts  --      0.1793                 0.0854                 0.0938
 IR Inten    --      0.7125                 2.0761                17.2809

                     16                     17                     18
                      A                      A                      A
 Frequencies --    294.2023               322.4633               337.8606
 Red. masses --      2.7011                 1.2879                 2.0008
 Frc consts  --      0.1377                 0.0789                 0.1346
 IR Inten    --      6.6692                 1.9543                62.0681

                     19                     20                     21
                      A                      A                      A
 Frequencies --    352.9234               360.5108               389.9614
 Red. masses --      2.6936                 2.0307                 1.9722
 Frc consts  --      0.1977                 0.1555                 0.1767
 IR Inten    --     16.2881                 5.3610                19.0319

                     22                     23                     24
                      A                      A                      A
 Frequencies --    397.4874               445.4364               452.1044
 Red. masses --      2.0519                 3.0700                 2.2566
 Frc consts  --      0.1910                 0.3589                 0.2718
 IR Inten    --     13.5609                 0.4638                 4.6119

                     25                     26                     27
                      A                      A                      A
 Frequencies --    468.7896               492.0201               518.7265
 Red. masses --      5.4850                 3.8201                 3.2511
 Frc consts  --      0.7102                 0.5449                 0.5154
 IR Inten    --      0.6754                 3.7593                 2.5376

                     28                     29                     30
                      A                      A                      A
 Frequencies --    528.9447               566.1762               575.8543
 Red. masses --      2.8941                 5.1954                 5.8078
 Frc consts  --      0.4771                 0.9812                 1.1347
 IR Inten    --      3.8456                17.9211                19.4884

                     31                     32                     33
                      A                      A                      A
 Frequencies --    634.7541               650.5713               671.9762
 Red. masses --      2.6193                 1.7151                 2.5064
 Frc consts  --      0.6218                 0.4277                 0.6668
 IR Inten    --     20.3985                78.0677                 2.9590

                     34                     35                     36
                      A                      A                      A
 Frequencies --    678.5809               691.2717               705.1645
 Red. masses --      1.6445                 2.0626                 2.3823
 Frc consts  --      0.4462                 0.5807                 0.6979
 IR Inten    --     26.2778                27.7902                54.4563

                     37                     38                     39
                      A                      A                      A
 Frequencies --    718.9169               745.6953               776.4294
 Red. masses --      3.2663                 4.6502                 4.5232
 Frc consts  --      0.9946                 1.5235                 1.6066
 IR Inten    --      7.5853                 3.2384                15.5192

                     40                     41                     42
                      A                      A                      A
 Frequencies --    834.8867               842.3985               854.1288
 Red. masses --      3.8677                 1.2520                 4.0531
 Frc consts  --      1.5884                 0.5235                 1.7421
 IR Inten    --      7.2053                 0.3690                 5.5256

                     43                     44                     45
                      A                      A                      A
 Frequencies --    866.1392               872.5931               927.6789
 Red. masses --      2.5528                 4.4266                 2.5171
 Frc consts  --      1.1284                 1.9859                 1.2763
 IR Inten    --      1.0387                 7.3390                 8.9306

                     46                     47                     48
                      A                      A                      A
 Frequencies --    949.3694               951.1470               958.6029
 Red. masses --      1.6952                 1.7033                 2.1181
 Frc consts  --      0.9002                 0.9079                 1.1468
 IR Inten    --      0.2758                 4.9308                12.8989

                     49                     50                     51
                      A                      A                      A
 Frequencies --    972.9631              1011.8012              1027.8909
 Red. masses --      1.2088                 5.4548                 1.6929
 Frc consts  --      0.6742                 3.2902                 1.0538
 IR Inten    --      0.1721                 5.4662                 5.7580

                     52                     53                     54
                      A                      A                      A
 Frequencies --   1051.8614              1063.7969              1093.1456
 Red. masses --      1.4726                 1.7756                 1.6235
 Frc consts  --      0.9600                 1.1839                 1.1430
 IR Inten    --     10.4851                60.0853                 2.1585

                     55                     56                     57
                      A                      A                      A
 Frequencies --   1102.2818              1138.0991              1146.7338
 Red. masses --      2.4223                 2.6939                 1.7544
 Frc consts  --      1.7340                 2.0559                 1.3593
 IR Inten    --     41.3058                29.3738                 5.4860

                     58                     59                     60
                      A                      A                      A
 Frequencies --   1174.6345              1188.0338              1237.9968
 Red. masses --      1.5957                 1.5839                 1.7902
 Frc consts  --      1.2972                 1.3172                 1.6166
 IR Inten    --      9.3126                17.3522                43.8016

                     61                     62                     63
                      A                      A                      A
 Frequencies --   1248.5235              1267.3765              1282.6754
 Red. masses --      1.6611                 2.2417                 2.3499
 Frc consts  --      1.5256                 2.1215                 2.2779
 IR Inten    --      5.1552                12.8511                 9.6406

                     64                     65                     66
                      A                      A                      A
 Frequencies --   1284.1917              1311.2543              1331.5982
 Red. masses --      2.2694                 1.5965                 1.6567
 Frc consts  --      2.2051                 1.6173                 1.7308
 IR Inten    --      4.7581                24.5134                25.1945

                     67                     68                     69
                      A                      A                      A
 Frequencies --   1357.9713              1365.9690              1380.1920
 Red. masses --      2.5982                 2.8693                 1.9556
 Frc consts  --      2.8230                 3.1543                 2.1949
 IR Inten    --     69.2573                41.0381               103.0785

                     70                     71                     72
                      A                      A                      A
 Frequencies --   1398.2820              1407.3261              1422.0879
 Red. masses --      1.3521                 1.4423                 1.2654
 Frc consts  --      1.5576                 1.6830                 1.5077
 IR Inten    --      1.3859                20.6291                 7.2803

                     73                     74                     75
                      A                      A                      A
 Frequencies --   1428.4501              1439.3761              1449.3398
 Red. masses --      1.2553                 1.3390                 5.8770
 Frc consts  --      1.5091                 1.6344                 7.2735
 IR Inten    --      9.9855                28.3921                 7.6874

                     76                     77                     78
                      A                      A                      A
 Frequencies --   1458.4180              1494.1986              1502.0222
 Red. masses --      1.2360                 1.5857                 1.1239
 Frc consts  --      1.5490                 2.0859                 1.4940
 IR Inten    --      9.4228                87.4707                27.7458

                     79                     80                     81
                      A                      A                      A
 Frequencies --   1513.7528              1518.1614              1519.6929
 Red. masses --      1.0579                 1.4956                 1.9719
 Frc consts  --      1.4283                 2.0309                 2.6832
 IR Inten    --      1.8428                45.6199                75.7904

                     82                     83                     84
                      A                      A                      A
 Frequencies --   1524.6219              1532.1810              1541.4268
 Red. masses --      1.0706                 1.1530                 1.0686
 Frc consts  --      1.4663                 1.5947                 1.4960
 IR Inten    --      2.2557                 6.9269                 2.4695

                     85                     86                     87
                      A                      A                      A
 Frequencies --   1548.3877              1554.6434              1571.8747
 Red. masses --      1.0881                 1.0669                 5.9038
 Frc consts  --      1.5371                 1.5192                 8.5944
 IR Inten    --     20.9412                11.2191                 2.1454

                     88                     89                     90
                      A                      A                      A
 Frequencies --   1621.7035              1790.1294              3032.1313
 Red. masses --      5.9723                 7.9975                 1.0829
 Frc consts  --      9.2541                15.0998                 5.8658
 IR Inten    --     39.3350               408.6451                21.8066

                     91                     92                     93
                      A                      A                      A
 Frequencies --   3037.6177              3041.3399              3049.4670
 Red. masses --      1.0372                 1.0368                 1.0404
 Frc consts  --      5.6386                 5.6506                 5.7004
 IR Inten    --     34.2337                23.2501                17.8935

                     94                     95                     96
                      A                      A                      A
 Frequencies --   3079.9851              3084.8981              3098.3342
 Red. masses --      1.0716                 1.0611                 1.0990
 Frc consts  --      5.9892                 5.9498                 6.2158
 IR Inten    --     46.1333                 9.7669                19.1094

                     97                     98                     99
                      A                      A                      A
 Frequencies --   3103.3272              3109.3146              3112.5893
 Red. masses --      1.1017                 1.1009                 1.0995
 Frc consts  --      6.2512                 6.2708                 6.2763
 IR Inten    --      9.7393                57.3903                58.6673

                    100                    101                    102
                      A                      A                      A
 Frequencies --   3121.8668              3137.2636              3148.0358
 Red. masses --      1.1020                 1.1032                 1.0988
 Frc consts  --      6.3282                 6.3972                 6.4159
 IR Inten    --     27.0674                 5.9033                18.7644

                    103                    104                    105
                      A                      A                      A
 Frequencies --   3178.3162              3271.0544              3296.0878
 Red. masses --      1.0944                 1.0905                 1.0990
 Frc consts  --      6.5138                 6.8748                 7.0346
 IR Inten    --      0.0988                 4.2334                 1.1529

                    106                    107                    108
                      A                      A                      A
 Frequencies --   3296.6480              3595.1576              3681.7229
 Red. masses --      1.1001                 1.0749                 1.0650
 Frc consts  --      7.0439                 8.1859                 8.5059
 IR Inten    --      1.1755                22.1765                71.0420

 - Thermochemistry -
 -------------------
 Temperature   298.150 Kelvin.  Pressure   1.00000 Atm.
 Atom     1 has atomic number  6 and mass  12.00000

 Molecular mass:   281.11980 amu.
 Principal axes and moments of inertia in atomic units:
                           1         2         3
     Eigenvalues --  4096.099366453.981838984.49570
           X            0.99815   0.06000   0.01027
           Y           -0.05986   0.99812  -0.01340
           Z           -0.01105   0.01276   0.99986
 This molecule is an asymmetric top.
 Rotational symmetry number  1.
 Warning -- assumption of classical behavior for rotation
           may cause significant error
 Rotational temperatures (Kelvin)      0.02115     0.01342     0.00964
 Rotational constants (GHZ):           0.44060     0.27963     0.20087
 Zero-point vibrational energy     830786.6 (Joules/Mol)
                                  198.56275 (Kcal/Mol)
 Warning -- explicit consideration of  30 degrees of freedom as
           vibrations may cause significant error
 Vibrational temperatures:     38.04    54.01    67.36    91.46   114.64
          (Kelvin)            120.84   150.11   223.50   276.23   323.61
                              344.37   360.39   372.75   386.89   403.24
                              423.29   463.95   486.11   507.78   518.69
                              561.07   571.90   640.88   650.48   674.48
                              707.91   746.33   761.03   814.60   828.53
                              913.27   936.03   966.82   976.33   994.59
                             1014.57  1034.36  1072.89  1117.11  1201.22
                             1212.02  1228.90  1246.18  1255.47  1334.72
                             1365.93  1368.49  1379.22  1399.88  1455.76
                             1478.91  1513.39  1530.57  1572.79  1585.94
                             1637.47  1649.89  1690.04  1709.32  1781.20
                             1796.35  1823.47  1845.48  1847.67  1886.60
                             1915.87  1953.82  1965.32  1985.79  2011.82
                             2024.83  2046.07  2055.22  2070.94  2085.28
                             2098.34  2149.82  2161.07  2177.95  2184.30
                             2186.50  2193.59  2204.47  2217.77  2227.78
                             2236.79  2261.58  2333.27  2575.60  4362.56
                             4370.45  4375.81  4387.50  4431.41  4438.48
                             4457.81  4465.00  4473.61  4478.32  4491.67
                             4513.82  4529.32  4572.89  4706.32  4742.34
                             4743.14  5172.63  5297.18

 Zero-point correction=                           0.316430 (Hartree/Particle)
 Thermal correction to Energy=                    0.335374
 Thermal correction to Enthalpy=                  0.336319
 Thermal correction to Gibbs Free Energy=         0.268688
 Sum of electronic and zero-point Energies=          -1219.466608
 Sum of electronic and thermal Energies=             -1219.447664
 Sum of electronic and thermal Enthalpies=           -1219.446719
 Sum of electronic and thermal Free Energies=        -1219.514350

                     E (Thermal)             CV                S
                      KCal/Mol        Cal/Mol-Kelvin    Cal/Mol-Kelvin
 Total                  210.451             73.257            142.340
 Electronic               0.000              0.000              0.000
 Translational            0.889              2.981             42.799
 Rotational               0.889              2.981             33.829
 Vibrational            208.673             67.296             65.712
 Vibration     1          0.593              1.985              6.080
 Vibration     2          0.594              1.982              5.385
 Vibration     3          0.595              1.979              4.948
 Vibration     4          0.597              1.972              4.343
 Vibration     5          0.600              1.963              3.899
 Vibration     6          0.601              1.960              3.795
 Vibration     7          0.605              1.946              3.372
 Vibration     8          0.620              1.897              2.606
 Vibration     9          0.634              1.851              2.209
 Vibration    10          0.650              1.803              1.919
 Vibration    11          0.657              1.780              1.808
 Vibration    12          0.663              1.762              1.727
 Vibration    13          0.668              1.747              1.668
 Vibration    14          0.673              1.730              1.603
 Vibration    15          0.680              1.710              1.532
 Vibration    16          0.689              1.685              1.450
 Vibration    17          0.707              1.630              1.298
 Vibration    18          0.718              1.600              1.222
 Vibration    19          0.729              1.569              1.153
 Vibration    20          0.735              1.554              1.120
 Vibration    21          0.758              1.492              1.000
 Vibration    22          0.764              1.476              0.972
 Vibration    23          0.805              1.371              0.810
 Vibration    24          0.811              1.356              0.789
 Vibration    25          0.826              1.319              0.741
 Vibration    26          0.848              1.268              0.678
 Vibration    27          0.874              1.209              0.613
 Vibration    28          0.884              1.186              0.590
 Vibration    29          0.922              1.104              0.512
 Vibration    30          0.932              1.083              0.493

                           ! Non-Optimized Parameters !
 Normal termination of Gaussian 16 at Sat Dec 12 10:06:45 2020.

 ----------------------------------------------------------------------
 # B3LYP/6-311++G(d,p) empiricaldispersion=gd3bj scf=xqc pop=npa geom=c
 heck
 ----------------------------------------------------------------------

 ---------------------------------------
 CID_112299113_JID_9459_Energie_neutraal
 ---------------------------------------
 Structure from the checkpoint file:  "JID_9459.chk"
 Charge =  0 Multiplicity = 1

 SCF Done:  E(RB3LYP) =  -1220.04748805     A.U. after   16 cycles
 Normal termination of Gaussian 16 at Sat Dec 12 10:18:01 2020.

 ----------------------------------------------------------------------
 # B3LYP/6-311++G(d,p) empiricaldispersion=gd3bj scf=xqc pop=npa geom=c
 heck
 ----------------------------------------------------------------------

 -------------------------------------
 CID_112299113_JID_9459_Energie_kation
 -------------------------------------
 Structure from the checkpoint file:  "JID_9459.chk"
 Charge =  1 Multiplicity = 2

 SCF Done:  E(UB3LYP) =  -1219.75547023     A.U. after   30 cycles
 Normal termination of Gaussian 16 at Sat Dec 12 10:46:38 2020.
 Gaussian 16:  ES64L-G16RevA.03 25-Dec-2016

 ----------------------------------------------------------------------
 # B3LYP/6-311++G(d,p) empiricaldispersion=gd3bj scf=xqc pop=npa geom=c
 heck
 ----------------------------------------------------------------------

 ------------------------------------
 CID_112299113_JID_9459_Energie_anion
 ------------------------------------
 Structure from the checkpoint file:  "JID_9459.chk"
 Charge = -1 Multiplicity = 2

                         Standard orientation:
 ---------------------------------------------------------------------
 Center     Atomic      Atomic             Coordinates (Angstroms)
 Number     Number       Type             X           Y           Z
 ---------------------------------------------------------------------
      1          6           0       -3.556674   -0.643178    1.128245
      2          6           0       -2.794424   -1.493641    0.098788
      3          6           0       -2.404749   -2.834462    0.747040
      4          6           0       -3.696677   -1.775824   -1.114281
      5          6           0       -1.481623   -0.799204   -0.365891
      6          6           0       -1.643037    0.592197   -1.029228
      7          7           0       -1.710589    1.674983   -0.050384
      8          6           0       -0.921693    2.800187    0.051168
      9          8           0       -1.235762    3.713058    0.802424
     10          6           0        0.386446    2.835892   -0.747425
     11          6           0        1.302505    1.702885   -0.388761
     12          6           0        1.877797    1.441217    0.838862
     13          7           0        2.513005    0.218910    0.683357
     14          6           0        3.234816   -0.689330    1.445974
     15          6           0        3.567779   -1.792661    0.741619
     16         16           0        2.984161   -1.747351   -0.922712
     17          6           0        2.275401   -0.179701   -0.615929
     18          7           0        1.560676    0.687202   -1.295991
     19          8           0       -0.540736   -0.721427    0.697828
     20          1           0       -4.382204   -1.216750    1.564515
     21          1           0       -4.000999    0.251041    0.672790
     22          1           0       -2.897008   -0.333653    1.945780
     23          1           0       -3.299147   -3.375814    1.077019
     24          1           0       -1.868644   -3.472317    0.033566
     25          1           0       -1.752098   -2.673273    1.608232
     26          1           0       -4.076334   -0.857688   -1.576420
     27          1           0       -3.159715   -2.344311   -1.883639
     28          1           0       -4.566541   -2.369292   -0.810359
     29          1           0       -1.034115   -1.454352   -1.125794
     30          1           0       -0.773112    0.759385   -1.661428
     31          1           0       -2.530936    0.614687   -1.669571
     32          1           0       -2.564720    1.766317    0.486242
     33          1           0        0.187136    2.792254   -1.822952
     34          1           0        0.832917    3.808112   -0.526403
     35          1           0        1.895087    1.993034    1.765552
     36          1           0        3.465049   -0.471804    2.479205
     37          1           0        4.126731   -2.645562    1.096536
     38          1           0       -0.552791    0.200628    1.008555
 ---------------------------------------------------------------------

 SCF Done:  E(UB3LYP) =  -1220.03324735     A.U. after   33 cycles
 SCF Done:  E(UB3LYP) =  -1220.03699161     a.u. after   11 cycles

 The electronic state is 2-A.
 Alpha  occ. eigenvalues --  -88.80479 -19.02702 -19.01245 -14.30724 -14.25947
 Alpha  occ. eigenvalues --  -14.22009 -10.19942 -10.17496 -10.14154 -10.13431
 Alpha  occ. eigenvalues --  -10.12754 -10.12578 -10.12489 -10.12174 -10.10863
 Alpha  occ. eigenvalues --  -10.09627 -10.07382 -10.07321 -10.06324  -7.89051
 Alpha  occ. eigenvalues --   -5.85385  -5.85032  -5.84535  -0.96455  -0.96129
 Alpha  occ. eigenvalues --   -0.93589  -0.84318  -0.83486  -0.76034  -0.73406
 Alpha  occ. eigenvalues --   -0.70305  -0.65992  -0.65187  -0.62936  -0.60391
 Alpha  occ. eigenvalues --   -0.59683  -0.55652  -0.53500  -0.52663  -0.49718
 Alpha  occ. eigenvalues --   -0.48917  -0.45813  -0.42931  -0.42513  -0.41471
 Alpha  occ. eigenvalues --   -0.40568  -0.39009  -0.38821  -0.38247  -0.37161
 Alpha  occ. eigenvalues --   -0.36281  -0.35349  -0.35224  -0.33601  -0.33388
 Alpha  occ. eigenvalues --   -0.32441  -0.32174  -0.31081  -0.29687  -0.29454
 Alpha  occ. eigenvalues --   -0.28973  -0.28787  -0.28057  -0.26233  -0.26118
 Alpha  occ. eigenvalues --   -0.25523  -0.24291  -0.23939  -0.23377  -0.20940
 Alpha  occ. eigenvalues --   -0.18901  -0.18504  -0.17675  -0.14965  -0.13919
 Alpha  occ. eigenvalues --    0.03822
 Alpha virt. eigenvalues --    0.05171   0.06294   0.06395   0.06973   0.07458
 Alpha virt. eigenvalues --    0.07892   0.08154   0.08524   0.09033   0.09305
 Alpha virt. eigenvalues --    0.09772   0.10142   0.10310   0.10686   0.11042

  Beta  occ. eigenvalues --  -88.80477 -19.02695 -19.01241 -14.30724 -14.25938
  Beta  occ. eigenvalues --  -14.22007 -10.19942 -10.17492 -10.14122 -10.13427
  Beta  occ. eigenvalues --  -10.12723 -10.12577 -10.12478 -10.12165 -10.10859
  Beta  occ. eigenvalues --  -10.09626 -10.07355 -10.07291 -10.06307  -7.89048
  Beta  occ. eigenvalues --   -5.85382  -5.85031  -5.84532  -0.96448  -0.96121
  Beta  occ. eigenvalues --   -0.93576  -0.84304  -0.83474  -0.76017  -0.73390
  Beta  occ. eigenvalues --   -0.70291  -0.65960  -0.65163  -0.62908  -0.60341
  Beta  occ. eigenvalues --   -0.59639  -0.55630  -0.53458  -0.52643  -0.49699
  Beta  occ. eigenvalues --   -0.48886  -0.45774  -0.42858  -0.42494  -0.41452
  Beta  occ. eigenvalues --   -0.40543  -0.38995  -0.38771  -0.38221  -0.37136
  Beta  occ. eigenvalues --   -0.36257  -0.35322  -0.35193  -0.33575  -0.33373
  Beta  occ. eigenvalues --   -0.32421  -0.32155  -0.31064  -0.29658  -0.29435
  Beta  occ. eigenvalues --   -0.28952  -0.28768  -0.28030  -0.26211  -0.26096
  Beta  occ. eigenvalues --   -0.25504  -0.24265  -0.23928  -0.23359  -0.20932
  Beta  occ. eigenvalues --   -0.18890  -0.18494  -0.17662  -0.14942  -0.13902
  Beta virt. eigenvalues --    0.05780   0.06342   0.06753   0.06881   0.07431
  Beta virt. eigenvalues --    0.07660   0.08130   0.08486   0.08612   0.09201
  Beta virt. eigenvalues --    0.09502   0.09885   0.10438   0.10598   0.11096

 Mulliken charges and spin densities:
               1          2
     1  C    0.184571  -0.842402
     2  C   -1.047842   1.733923
     3  C    0.074073  -0.558789
     4  C    0.359149  -1.040356
     5  C    0.305303  -0.739115
     6  C   -0.123624  -0.436822
     7  N   -0.309954   0.099539
     8  C   -0.153592   0.093143
     9  O   -0.291918   0.002298
    10  C   -0.133418  -0.296715
    11  C    0.883903  -0.524179
    12  C   -0.983919   0.617750
    13  N    0.273131   0.036045
    14  C    0.987256  -1.238389
    15  C    0.281326  -0.563098
    16  S    0.235105  -0.300342
    17  C   -0.027183  -0.203539
    18  N   -0.018718   0.048540
    19  O   -0.004695   0.007016
    20  H   -0.129720   0.297631
    21  H   -0.175502   0.302406
    22  H    0.018376   0.150619
    23  H    0.050584   0.098539
    24  H   -0.081190   0.205911
    25  H    0.069086   0.099503
    26  H   -0.198653   0.320983
    27  H   -0.035537   0.184736
    28  H   -0.185980   0.344365
    29  H    0.285328  -0.070742
    30  H    0.329486  -0.130977
    31  H   -0.156245   0.360324
    32  H    0.337259   0.010059
    33  H    0.121943   0.071422
    34  H    0.186888   0.026409
    35  H   -0.224922   0.405717
    36  H   -0.909569   1.085132
    37  H   -1.090151   1.367048
    38  H    0.299564  -0.023592
 Sum of Mulliken charges =  -1.00000   1.00000

 Dipole moment (field-independent basis, Debye):
    X=             -1.0139    Y=              3.0294    Z=             -4.7951  Tot=              5.7618
 Quadrupole moment (field-independent basis, Debye-Ang):
   XX=           -213.7492   YY=           -181.7294   ZZ=           -167.2260
   XY=             12.5108   XZ=            -17.2426   YZ=              2.9726

 Summary of Natural Population Analysis:

                                       Natural Population
                Natural  -----------------------------------------------
    Atom  No    Charge         Core      Valence    Rydberg      Total
 -----------------------------------------------------------------------
      C    1   -0.29062      0.99962     2.28344    0.00756     3.29062
      C    2   -0.05725      0.99957     2.04538    0.01231     3.05725
      C    3   -0.28426      0.99962     2.27838    0.00625     3.28426
      C    4   -0.28713      0.99962     2.27996    0.00755     3.28713
      C    5    0.06755      0.99950     1.91767    0.01528     2.93245
      C    6   -0.10907      0.99958     2.09844    0.01105     3.10907
      N    7   -0.33289      0.99967     2.82395    0.00927     3.83289
      C    8    0.35053      0.99967     1.62714    0.02266     2.64947
      O    9   -0.31907      0.99988     3.31331    0.00588     4.31907
      C   10   -0.24858      0.99955     2.24106    0.00797     3.24858
      C   11    0.05639      0.99954     1.92822    0.01585     2.94361
      C   12   -0.04370      0.99947     2.03307    0.01116     3.04370
      N   13   -0.20128      0.99959     2.68991    0.01178     3.70128
      C   14   -0.00421      0.99949     1.99123    0.01348     3.00421
      C   15   -0.18687      0.99953     2.17594    0.01140     3.18687
      S   16    0.19321      4.99945     2.78712    0.02022     7.80679
      C   17    0.11934      0.99954     1.85965    0.02147     2.88066
      N   18   -0.27652      0.99965     2.76725    0.00962     3.77652
      O   19   -0.37440      0.99990     3.36745    0.00705     4.37440
      H   20    0.10325      0.00000     0.39589    0.00086     0.39675
      H   21    0.09306      0.00000     0.40563    0.00131     0.40694
      H   22    0.10426      0.00000     0.39453    0.00121     0.39574
      H   23    0.09636      0.00000     0.40278    0.00086     0.40364
      H   24    0.09923      0.00000     0.39983    0.00094     0.40077
      H   25    0.11098      0.00000     0.38790    0.00113     0.38902
      H   26    0.09884      0.00000     0.39992    0.00124     0.40116
      H   27    0.09997      0.00000     0.39904    0.00098     0.40003
      H   28    0.10248      0.00000     0.39659    0.00093     0.39752
      H   29    0.08793      0.00000     0.41025    0.00182     0.41207
      H   30    0.11547      0.00000     0.38264    0.00190     0.38453
      H   31    0.10016      0.00000     0.39870    0.00114     0.39984
      H   32    0.19902      0.00000     0.29848    0.00250     0.30098
      H   33    0.11722      0.00000     0.38163    0.00114     0.38278
      H   34    0.11859      0.00000     0.38042    0.00100     0.38141
      H   35    0.11185      0.00000     0.38715    0.00100     0.38815
      H   36    0.11621      0.00000     0.37878    0.00501     0.38379
      H   37    0.12095      0.00000     0.37449    0.00456     0.37905
      H   38    0.23302      0.00000     0.26272    0.00427     0.26698
 =======================================================================
   * Total *    0.00000     22.99243    51.74593    0.26164    75.00000

 Normal termination of Gaussian 16 at Sat Dec 12 14:36:33 2020.
